# t (s)	mx ()	my ()	mz ()	B_extx (T)	B_exty (T)	B_extz (T)
1e-08	-0.005259876	-0.0058943946	0.8177954	0	0	0.20000002
2e-08	-0.008100422	-0.007191551	0.811962	0	0	0.195
3.0000000000000004e-08	-0.004461595	-0.012087521	0.8098651	0	0	0.19
4e-08	0.0075560403	-0.006922584	0.813786	0	0	0.185
5e-08	-0.003094505	0.0034112146	0.8135133	0	0	0.18
6e-08	-0.0058304057	0.005282648	0.8114074	0	0	0.17499998
6.999999999999999e-08	0.011770466	-0.00860309	0.8073989	0	0	0.16999999
7.999999999999999e-08	-0.005298799	-0.0019983635	0.81061196	0	0	0.165
8.999999999999999e-08	0.0067445575	-0.0026451019	0.811024	0	0	0.15999998
9.999999999999998e-08	0.006287966	-4.4666464e-05	0.80674595	0	0	0.15499999
1.0999999999999998e-07	-0.003565362	0.0019427573	0.80259097	0	0	0.14999999
1.2e-07	-0.0044521727	0.00588209	0.80500245	0	0	0.145
1.3e-07	0.0063058985	0.01798539	0.8078472	0	0	0.14
1.4e-07	0.0044367216	-0.010433727	0.8111937	0	0	0.135
1.5000000000000002e-07	0.013059031	0.010636763	0.8041861	0	0	0.13
1.6000000000000003e-07	-0.0077035837	0.010986159	0.8067428	0	0	0.125
1.7000000000000004e-07	-0.0024668148	0.00248881	0.802638	0	0	0.12
1.8000000000000005e-07	0.006613694	0.0060515823	0.8031034	0	0	0.115
1.9000000000000006e-07	0.0020888234	0.01414104	0.8012661	0	0	0.11000001
2.0000000000000007e-07	0.014429623	-0.010672338	0.79704636	0	0	0.105000004
2.1000000000000008e-07	0.017976873	-0.0065955026	0.8039186	0	0	0.10000001
2.200000000000001e-07	-0.008385031	0.026647998	0.7987637	0	0	0.095
2.300000000000001e-07	-0.013550714	0.001084751	0.7996551	0	0	0.09
2.400000000000001e-07	-0.0052337307	0.0065922933	0.7995262	0	0	0.08499999
2.500000000000001e-07	0.015968777	-0.0034937903	0.78273153	0	0	0.07999999
2.600000000000001e-07	-0.0003863814	-0.0024994765	0.78674	0	0	0.074999996
2.700000000000001e-07	0.007797993	-0.00871926	0.79333097	0	0	0.07
2.800000000000001e-07	0.015150432	0.005570448	0.7726224	0	0	0.065
2.9000000000000014e-07	0.018451327	0.007220902	0.76967967	0	0	0.06
3.0000000000000015e-07	0.012044541	-0.023928454	0.718546	0	0	0.055000003
3.1000000000000016e-07	0.008863507	0.009449508	0.7097899	0	0	0.050000004
3.2000000000000017e-07	-0.011580192	-0.016398057	0.6437711	0	0	0.045
3.300000000000002e-07	0.016262768	-0.006854936	0.5774995	0	0	0.039999995
3.400000000000002e-07	0.003788911	0.0056718113	0.44770014	0	0	0.035
3.500000000000002e-07	0.006944499	0.0031039268	0.40229157	0	0	0.03
3.600000000000002e-07	0.00066596665	0.0050649866	0.31197828	0	0	0.025000002
3.700000000000002e-07	-0.013424771	0.004796936	0.27899885	0	0	0.019999998
3.800000000000002e-07	0.0049344786	0.0046028607	0.23659688	0	0	0.015
3.9000000000000024e-07	-0.008385354	-0.005623247	0.1076832	0	0	0.009999999
4.0000000000000025e-07	0.013159677	-0.008596272	0.10727675	0	0	0.0049999994
4.1000000000000026e-07	-0.0029782725	0.0011912487	0.0068016653	0	0	0
4.2000000000000027e-07	-0.00023233099	-0.0037863725	-0.08629709	0	0	-0.0049999994
4.300000000000003e-07	-0.0018354503	-0.0015165403	-0.10462954	0	0	-0.009999999
4.400000000000003e-07	-0.0066242763	-0.001852531	-0.19171439	0	0	-0.015
4.500000000000003e-07	-0.0058643515	0.016206373	-0.21538281	0	0	-0.019999998
4.600000000000003e-07	0.0129985325	0.00034843013	-0.3423355	0	0	-0.025000002
4.700000000000003e-07	0.0004482392	-0.014579845	-0.41111404	0	0	-0.03
4.800000000000003e-07	-0.016072633	0.011686927	-0.46285576	0	0	-0.035
4.900000000000003e-07	0.0031644884	-0.0022451696	-0.5619246	0	0	-0.039999995
5.000000000000003e-07	-0.0020063482	-0.011527825	-0.56552905	0	0	-0.045
5.100000000000003e-07	-0.018705381	0.015121116	-0.71286404	0	0	-0.050000004
5.200000000000003e-07	-0.013416741	-0.0020004404	-0.7124492	0	0	-0.055000003
5.300000000000003e-07	-0.0017910792	0.0060434444	-0.74603325	0	0	-0.06
5.400000000000003e-07	0.015553297	0.00486355	-0.78138113	0	0	-0.065
5.500000000000003e-07	-0.0033500423	0.0066604256	-0.7942705	0	0	-0.07
5.600000000000004e-07	-0.012882624	0.012297425	-0.7941185	0	0	-0.074999996
5.700000000000004e-07	0.012392597	-0.0056766914	-0.79420495	0	0	-0.07999999
5.800000000000004e-07	-0.0036139532	0.013857394	-0.8010128	0	0	-0.08499999
5.900000000000004e-07	0.017382663	0.013357379	-0.7978033	0	0	-0.09
6.000000000000004e-07	-0.011691514	-0.0027759243	-0.7983257	0	0	-0.095
6.100000000000004e-07	-0.028797794	0.0077296337	-0.7989034	0	0	-0.10000001
6.200000000000004e-07	-0.009072321	0.004478976	-0.8035621	0	0	-0.105000004
6.300000000000004e-07	0.0064612655	0.0041773813	-0.7998512	0	0	-0.11000001
6.400000000000004e-07	-0.016866667	0.0028377809	-0.8006855	0	0	-0.115
6.500000000000004e-07	-0.020086631	0.005652405	-0.80629784	0	0	-0.12
6.600000000000005e-07	-0.013588517	-0.0048523927	-0.80673826	0	0	-0.125
6.700000000000005e-07	0.0014738452	0.010396026	-0.802978	0	0	-0.13
6.800000000000005e-07	0.0015767082	-0.009542962	-0.80011827	0	0	-0.135
6.900000000000005e-07	0.014872904	-0.006199834	-0.8067342	0	0	-0.14
7.000000000000005e-07	-0.0098077515	0.009400007	-0.8096898	0	0	-0.145
7.100000000000005e-07	0.019098714	-0.0013954334	-0.80826724	0	0	-0.14999999
7.200000000000005e-07	0.0005594245	0.0010701113	-0.8113174	0	0	-0.15499999
7.300000000000005e-07	-0.01044808	-0.00892963	-0.81224006	0	0	-0.15999998
7.400000000000005e-07	-0.0034344974	0.023723526	-0.8159432	0	0	-0.165
7.500000000000005e-07	-0.0020854732	-0.0056988066	-0.8120663	0	0	-0.16999999
7.600000000000006e-07	0.003909955	0.014390832	-0.8094592	0	0	-0.17499998
7.700000000000006e-07	-0.0062000207	-0.011307792	-0.81131095	0	0	-0.18
7.800000000000006e-07	0.00535538	0.0134218875	-0.81765926	0	0	-0.185
7.900000000000006e-07	0.006424093	-0.010845501	-0.812101	0	0	-0.19
8.000000000000006e-07	-0.01700202	-0.011117882	-0.81558985	0	0	-0.195
8.100000000000006e-07	-0.005394856	-0.016429737	-0.81664616	0	0	-0.20000002
8.200000000000006e-07	0.0041328836	-0.016742885	-0.8179069	0	0	-0.20000002
8.300000000000006e-07	-0.0011474653	-0.011753837	-0.8152783	0	0	-0.195
8.400000000000006e-07	0.011209457	0.0073359804	-0.8109053	0	0	-0.19
8.500000000000006e-07	-0.0026278603	0.0029354694	-0.8135878	0	0	-0.185
8.600000000000007e-07	0.0076937447	0.004042778	-0.8152722	0	0	-0.18
8.700000000000007e-07	-0.0024020616	0.003352874	-0.81615275	0	0	-0.17499998
8.800000000000007e-07	0.009532429	-0.0035070144	-0.81218743	0	0	-0.16999999
8.900000000000007e-07	0.0010712096	-0.00041783974	-0.8119459	0	0	-0.165
9.000000000000007e-07	0.0016382695	-0.0026480262	-0.80836165	0	0	-0.15999998
9.100000000000007e-07	0.0006428298	0.009046389	-0.8076768	0	0	-0.15499999
9.200000000000007e-07	-0.009312202	-0.0004070726	-0.80607307	0	0	-0.14999999
9.300000000000007e-07	-0.008947057	0.012749281	-0.8024381	0	0	-0.145
9.400000000000007e-07	-0.026349897	0.008457451	-0.80994564	0	0	-0.14
9.500000000000008e-07	0.012697482	0.008962145	-0.80417407	0	0	-0.135
9.600000000000008e-07	-0.0073762247	-0.009257337	-0.80222017	0	0	-0.13
9.700000000000007e-07	-0.012898645	-0.02434575	-0.806846	0	0	-0.125
9.800000000000006e-07	0.0024623803	0.017097287	-0.8041527	0	0	-0.12
9.900000000000005e-07	0.00364412	-0.00289004	-0.803056	0	0	-0.115
1.0000000000000004e-06	0.0004151482	-0.006036142	-0.8048252	0	0	-0.11000001
1.0100000000000003e-06	-0.009631191	0.007437906	-0.80062413	0	0	-0.105000004
1.0200000000000002e-06	-0.009645917	-0.00034453813	-0.7927134	0	0	-0.10000001
1.03e-06	-0.0003054781	-0.00278426	-0.80343044	0	0	-0.095
1.04e-06	0.00806905	0.006328444	-0.7953485	0	0	-0.09
1.05e-06	-0.0009057019	-0.012653036	-0.7961674	0	0	-0.08499999
1.0599999999999998e-06	-0.0068024443	-0.0023265602	-0.7923082	0	0	-0.07999999
1.0699999999999997e-06	0.0072058113	0.0031814792	-0.79180145	0	0	-0.074999996
1.0799999999999996e-06	0.012694572	0.010528963	-0.7750843	0	0	-0.07
1.0899999999999995e-06	-0.015332185	0.00026300526	-0.7713381	0	0	-0.065
1.0999999999999994e-06	-0.007887381	0.012669934	-0.7604896	0	0	-0.06
1.1099999999999993e-06	-0.0018008081	0.0052615474	-0.6998645	0	0	-0.055000003
1.1199999999999992e-06	0.012145745	-0.0056034867	-0.67383754	0	0	-0.050000004
1.1299999999999991e-06	-0.0124154445	-0.012100401	-0.5870539	0	0	-0.045
1.139999999999999e-06	-0.009511445	-0.0011603206	-0.5821934	0	0	-0.039999995
1.149999999999999e-06	-0.016920663	-0.02836087	-0.44449285	0	0	-0.035
1.1599999999999988e-06	0.02173648	0.010299579	-0.43184626	0	0	-0.03
1.1699999999999988e-06	-0.00025400007	-0.014460419	-0.3029415	0	0	-0.025000002
1.1799999999999987e-06	-0.010582939	-0.00458463	-0.2515588	0	0	-0.019999998
1.1899999999999986e-06	-0.00798518	0.010212114	-0.19837245	0	0	-0.015
1.1999999999999985e-06	-0.004302962	-0.006672845	-0.14529696	0	0	-0.009999999
1.2099999999999984e-06	-0.007614061	-0.017160177	-0.08041707	0	0	-0.0049999994
1.2199999999999983e-06	0.0014783873	-0.012037619	-0.001129752	0	0	0
1.2299999999999982e-06	0.0068700304	-0.009090462	0.05180638	0	0	0.0049999994
1.239999999999998e-06	-0.0049099503	-0.012441099	0.14721116	0	0	0.009999999
1.249999999999998e-06	-0.0011226794	-0.015553897	0.15663399	0	0	0.015
1.2599999999999979e-06	0.020072112	0.0032774732	0.28297547	0	0	0.019999998
1.2699999999999978e-06	-0.0016669311	-0.0155700715	0.3279419	0	0	0.025000002
1.2799999999999977e-06	0.008142289	0.013382455	0.39098948	0	0	0.03
1.2899999999999976e-06	0.010871676	0.0015277066	0.5054738	0	0	0.035
1.2999999999999975e-06	-0.010172333	-0.011420911	0.5216158	0	0	0.039999995
1.3099999999999974e-06	0.005413321	-0.012554674	0.5773966	0	0	0.045
1.3199999999999973e-06	0.021132918	-0.018386435	0.68813115	0	0	0.050000004
1.3299999999999972e-06	-0.010857819	0.0021784431	0.717325	0	0	0.055000003
1.3399999999999971e-06	-0.022303158	-0.01654489	0.7584437	0	0	0.06
1.349999999999997e-06	-0.025624815	0.018490613	0.7747413	0	0	0.065
1.359999999999997e-06	0.010741439	-0.0053049913	0.7738017	0	0	0.07
1.3699999999999968e-06	-0.0052203694	0.015587217	0.78982866	0	0	0.074999996
1.3799999999999967e-06	0.0041934047	0.021119725	0.7961107	0	0	0.07999999
1.3899999999999966e-06	0.0031555833	-0.00072645245	0.79755956	0	0	0.08499999
1.3999999999999965e-06	-0.013929693	0.014482112	0.8000027	0	0	0.09
1.4099999999999965e-06	-0.013998151	0.013722277	0.80031484	0	0	0.095
1.4199999999999964e-06	-0.0037107163	0.0013195294	0.79980636	0	0	0.10000001
1.4299999999999963e-06	-0.01336826	-0.011398758	0.79839295	0	0	0.105000004
1.4399999999999962e-06	-0.020240009	0.0057150954	0.8028013	0	0	0.11000001
1.449999999999996e-06	0.00091741583	-0.0112612285	0.79832083	0	0	0.115
1.459999999999996e-06	-0.0073179267	-0.011900516	0.8033184	0	0	0.12
1.4699999999999959e-06	-0.005832919	-0.0090625435	0.8054692	0	0	0.125
1.4799999999999958e-06	-0.0019748863	-5.299406e-05	0.8013412	0	0	0.13
1.4899999999999957e-06	-0.007714105	-0.010900886	0.8052206	0	0	0.135
1.4999999999999956e-06	-0.006499482	-0.0148821585	0.80147135	0	0	0.14
1.5099999999999955e-06	0.008998793	-0.018846579	0.803118	0	0	0.145
1.5199999999999954e-06	0.016265506	0.012668718	0.8105928	0	0	0.14999999
1.5299999999999953e-06	-0.01784264	-0.0036723893	0.80939996	0	0	0.15499999
1.5399999999999952e-06	-0.0040853005	0.009553649	0.80946094	0	0	0.15999998
1.5499999999999951e-06	0.008698635	-0.002310589	0.80936056	0	0	0.165
1.559999999999995e-06	-0.026755266	0.025588088	0.81355256	0	0	0.16999999
1.569999999999995e-06	-0.000382093	0.008876536	0.8164618	0	0	0.17499998
1.5799999999999948e-06	-0.018389205	0.009501417	0.80500233	0	0	0.18
1.5899999999999947e-06	0.012086842	-0.0054588574	0.80946535	0	0	0.185
1.5999999999999946e-06	0.0029691432	-0.012043109	0.814451	0	0	0.19
1.6099999999999945e-06	-0.00038700982	-0.008164633	0.81058335	0	0	0.195
1.6199999999999944e-06	0.0021903096	-0.010112954	0.8126466	0	0	0.20000002