# OOMMF: rectangular mesh v1.0
# Segment count: 1
# Begin: Segment
# Begin: Header
# Desc: Time (s) :  1.3000000000000002e-08
# Title: m
# meshtype: rectangular
# meshunit: m
# xbase: 2e-09
# ybase: 2e-09
# zbase: 5e-10
# xstepsize: 4e-09
# ystepsize: 4e-09
# zstepsize: 1e-09
# xmin: 0
# ymin: 0
# zmin: 0
# xmax: 1.024e-06
# ymax: 1.024e-06
# zmax: 1e-09
# xnodes: 256
# ynodes: 256
# znodes: 1
# ValueRangeMinMag: 1e-08
# ValueRangeMaxMag: 1
# valueunit: 
# valuemultiplier: 1
# End: Header
# Begin: Data Text
-0.20994098 -0.36487478 0.90707844 
0.7741693 -0.34727398 0.5292095 
0.9928873 -0.062607005 0.101268336 
0.9022644 -0.38025367 0.20328797 
0.32483777 -0.76506937 0.556012 
0.5462339 -0.2192703 0.8084238 
0.6227313 0.32109115 0.7135168 
-0.35468388 0.93483543 -0.016797418 
-0.49846 0.7814732 -0.37528288 
0.2859144 0.5773708 0.7647849 
-0.088971004 0.7185165 0.68979573 
-0.15015371 0.9238207 0.35214955 
0.30097306 0.9520381 0.055124488 
0.36902264 0.7408688 0.5611913 
0.71438986 0.5710173 -0.4044581 
0.7718996 0.5367204 -0.34073788 
0.7251938 0.3839844 -0.5715331 
0.80966264 0.39833555 0.43101662 
0.48091707 0.2598324 0.8373804 
0.7158599 0.2603181 0.6479036 
0.25232357 0.6531778 0.7139269 
-0.45225188 0.52039206 0.7243344 
0.50419974 -0.13174781 0.8534784 
-0.27549276 0.35402662 0.8937388 
-0.25686118 0.5092666 0.8213829 
0.3097074 0.4649832 0.82938045 
0.30094883 0.6306302 0.7153569 
0.42059886 0.40433154 0.8121654 
-0.42670882 0.0175283 0.90421927 
-0.50270504 0.038435377 0.8636032 
-0.6031342 0.22957265 0.7638885 
-0.6238725 0.53079724 0.5736179 
-0.91649336 0.36491838 0.16393471 
0.73239404 0.6794534 0.044069216 
0.4642704 -0.21040644 0.8603385 
0.5049245 0.83036137 0.23569348 
0.12155824 0.90089047 0.41667745 
0.19339293 0.97455233 0.1133448 
-0.13175076 0.49195006 0.86059684 
0.60684603 0.51895684 0.6020148 
0.3212946 0.35992542 0.875913 
-0.29204494 0.4322415 0.8531571 
0.30953088 0.132973 0.94154596 
0.27089345 0.19998232 0.941607 
-0.19949323 0.39856756 0.89517957 
-0.37034798 0.53809303 0.7571648 
-0.22972946 0.97211 0.047188457 
0.24790518 0.46052012 0.8523288 
0.61820275 0.7011337 0.35529828 
0.02509188 0.7690782 0.6386621 
0.11560678 0.088679254 0.9893286 
0.10300467 0.4423395 0.89091295 
-0.3135864 0.219928 0.92373985 
-0.3686574 -0.14855509 0.9176182 
-0.25123432 -0.46826872 0.8471162 
0.14695284 0.44201347 0.8848892 
-0.5178495 0.10868753 0.84853935 
-0.06755543 0.53749007 0.84055984 
-0.24571402 0.6396906 0.7282998 
0.7843811 0.44110802 0.4360849 
0.09251571 -0.56515163 0.81978333 
-0.28079605 -0.060418278 0.9578639 
-0.8329519 0.45404363 0.31628415 
-0.52685285 0.6893722 0.4971842 
-0.8308902 0.22774413 0.5076949 
0.098230556 -0.48844895 0.8670458 
-0.40852034 0.6120481 0.6771324 
-0.5454249 0.792218 -0.2736828 
-0.83155745 0.5491758 0.08317627 
-0.61602885 0.6961691 0.3685881 
0.21518975 0.8400167 -0.49806166 
0.057278056 0.92566824 -0.37397534 
0.35839114 0.49836078 -0.7894254 
-0.13457677 0.97529715 -0.17517024 
0.12824644 0.61878616 0.7750204 
0.52303314 0.8522444 0.01076747 
0.18600535 0.93018866 0.31646663 
-0.08231708 0.4994271 0.86243635 
-0.7293504 0.6420563 0.23624516 
-0.7432926 0.66750723 -0.04416142 
-0.6282248 0.749485 0.2088203 
0.5351377 0.8332106 0.13923965 
-0.03811573 0.96505445 -0.2592628 
-0.024975974 0.9436273 0.33006632 
0.32071105 0.31931916 0.8917286 
0.6358189 0.5666804 0.5240303 
0.35992366 0.4782355 0.80109036 
-0.39645934 0.35193416 0.8479165 
-0.30108848 0.8005724 0.51810193 
-0.15967242 0.8275839 0.5381538 
-0.16961934 0.8360523 0.5217718 
-0.50005984 0.0467841 0.8647262 
-0.30091915 0.6210334 0.72371626 
-0.75675625 0.25990155 0.59980935 
-0.93892115 0.27374348 0.20854615 
-0.2599373 0.22383535 0.9393245 
-0.4903302 0.5454757 0.67972976 
-0.7476846 0.18674202 0.637256 
-0.49180722 0.8692156 0.050891124 
0.47114915 0.8795486 0.0664285 
0.6934594 0.5497472 0.46571684 
0.06959172 0.9849398 0.15827358 
-0.03597299 0.6362729 0.77062494 
0.42678133 0.70243174 0.5696029 
0.8114816 0.44871888 0.3743651 
0.90968156 -0.24632035 0.3343737 
-0.7082922 -0.15303577 0.6891316 
-0.6975956 -0.0057840296 0.71646845 
-0.1855945 0.8900935 -0.41627902 
-0.32195455 0.94208294 0.09394244 
-0.14187337 0.9497199 -0.27911308 
0.732758 0.6761859 -0.07640919 
0.109786846 0.94681305 0.3024767 
0.143928 0.84224725 0.51952314 
0.38329586 0.78874576 0.48058784 
-0.06545154 0.98278457 -0.17277361 
-0.7353791 0.44777673 -0.5086391 
-0.10984888 0.99362254 -0.025448348 
0.13726643 0.8406939 0.52382404 
0.22667013 0.9726928 0.049894158 
-0.30179122 0.33415356 0.8928962 
-0.5508326 0.07350568 0.8313726 
-0.06607366 -0.55749714 0.8275452 
0.093999214 -0.31579176 0.9441609 
0.3728277 -0.12902196 0.9188868 
0.6790577 -0.03741859 0.73313063 
0.41496417 0.54282236 0.73017037 
0.14730272 0.16413692 0.9753774 
0.46541008 0.5745532 0.6732624 
0.9010879 0.09127816 0.4239211 
0.6007072 0.591931 0.537372 
0.4078222 0.49104875 0.7697741 
0.09449076 0.54549193 0.83277255 
0.6720353 0.63607675 0.37917668 
0.38349116 0.27934784 0.88028365 
-0.16514845 -0.5626964 0.80999935 
-0.31368473 0.44223168 0.84025776 
-0.5091549 0.5057678 0.6963909 
-0.47538102 0.7924097 0.38223004 
-0.6727528 0.7393884 -0.026618915 
-0.6986091 0.68986696 -0.18981314 
-0.877385 0.31297255 -0.36365333 
-0.55193686 0.16830347 -0.8167251 
0.7214958 0.60716635 -0.33285567 
0.86984885 0.34981984 0.3478348 
0.1291953 0.36395386 0.92241323 
0.33546725 0.3558686 0.87224954 
-0.09532315 0.2209248 0.97062135 
-0.25177193 0.6260446 0.7380238 
-0.21363275 0.23930417 0.9471508 
-0.0015644252 0.8162951 0.577633 
0.4564546 0.48818156 0.7438602 
-0.011174466 0.72374815 0.6899738 
-0.08583072 0.7652657 0.63796675 
-0.024671767 0.7646752 0.6439435 
-0.0538535 0.71899974 0.6929209 
0.2518456 0.32672787 0.91094613 
0.057096604 0.8186352 0.57146865 
0.2938906 0.95337963 0.06852521 
0.4637681 0.8446342 -0.267418 
0.031479366 0.819129 -0.5727451 
-0.16940868 0.70065445 0.6930975 
0.73444825 0.25268027 0.6298718 
0.57774115 0.50643367 0.6401095 
0.65092635 -0.35321113 0.6719649 
0.51448506 -0.084898226 0.8532863 
0.09385136 -0.21968529 0.971046 
-0.47254172 0.08940729 0.87676156 
-0.33093184 0.0023231918 0.9436518 
-0.66109174 -0.15649407 0.73380333 
-0.4971069 0.28500572 0.8195466 
-0.30011374 -0.3353286 0.893021 
-0.58941853 -0.51535994 0.62208515 
-0.22392768 0.8235141 0.5212302 
-0.7442 0.30553743 0.5939809 
-0.24123713 0.73900324 0.6290302 
0.12256446 0.5522784 0.8246009 
0.32036018 0.94625425 -0.044409975 
0.77750415 0.5159918 0.35949948 
-0.02381381 0.87664884 0.48054117 
0.3847397 0.92263734 0.026755076 
0.8514143 -0.19029304 0.4887557 
0.87318444 0.122772515 0.47167367 
0.7112242 0.4248102 0.56008625 
0.3087794 0.45700905 0.8341451 
0.014055684 0.8601911 0.5097782 
-0.1610281 0.9014165 0.40189368 
0.12394518 0.49814636 0.8581887 
0.17292126 0.5123362 0.84119546 
-0.38991353 0.91075635 -0.1359799 
-0.7373403 0.46796545 0.4871733 
-0.6543834 0.7208121 0.22850019 
-0.8527217 0.414871 -0.3174079 
-0.24183272 0.6427655 0.7268903 
-0.70908034 0.42586726 0.5619985 
-0.109424286 0.966186 0.23347579 
0.35997152 0.63662213 0.6820065 
0.6949337 0.5661112 0.4433794 
0.5969 -0.06229941 0.7998933 
0.31054896 -0.12860903 0.9418169 
-0.4406131 0.39353764 0.8068384 
-0.8060314 -0.0017065249 0.5918703 
-0.41542143 -0.09263702 0.9048998 
0.05235288 0.29310608 0.9546456 
0.15329194 0.9119893 0.38049614 
0.128504 0.56921536 0.8120842 
-0.1570295 0.48972893 0.8576173 
-0.28376722 0.76622605 0.5765187 
-0.5760162 0.5926817 0.5629687 
-0.39886823 0.39289445 0.828576 
-0.5720971 0.6765729 0.46363127 
-0.82539 0.55876935 0.08067293 
-0.447169 0.53541803 0.7164967 
0.21339707 0.47800866 0.85203844 
0.15986662 0.13209938 0.97825986 
-0.53207487 -0.21676624 0.8184796 
-0.24291165 -0.37078586 0.8963882 
0.3170983 0.30074808 0.8994439 
0.47602582 0.8565869 0.1991443 
0.26104423 0.89154273 0.3701453 
0.20184913 0.7893175 0.57985777 
0.10006823 0.24114487 0.9653163 
-0.098479 0.655441 0.74879843 
0.25794813 0.61600906 0.7443088 
0.23933676 0.970844 -0.013413151 
0.10226698 0.5492616 -0.82936907 
0.15788682 -0.168426 -0.97298735 
0.982719 -0.037769783 0.18120922 
0.6708066 0.0068503283 0.74160075 
0.51270384 0.029718012 0.8580511 
0.5696509 -0.5306253 0.6276423 
0.5248221 0.4197637 0.74051356 
0.81055105 -0.33778366 0.4784447 
0.28672662 0.46289206 0.8387604 
0.012850775 0.34431633 0.93876576 
-0.00014099848 0.5673293 0.82349104 
-0.39801893 0.91443634 -0.073397 
-0.014217697 0.77274954 0.634552 
-0.008093715 0.8044333 0.593988 
0.1801577 0.9831815 0.02995842 
0.14020707 0.9704263 -0.19650657 
0.67801315 0.6118848 0.40730235 
-0.03113795 0.5195337 0.8538824 
0.07195201 0.55427027 0.829221 
-0.40971932 0.54826057 0.7290682 
-0.85941553 0.504722 -0.081612475 
-0.90149546 -0.012780121 -0.4325998 
-0.6585011 0.17475733 -0.7320084 
-0.083099514 0.95612156 -0.28093803 
0.40585473 0.6526202 0.6398194 
0.28091317 0.3575191 0.89065593 
-0.070283346 0.021856317 0.9972877 
0.51530504 0.75229543 0.41050252 
0.3594988 0.104641736 0.92725986 
0.010246966 0.5148655 0.85720974 
-0.3482403 -0.13470428 0.9276764 
0.728522 -0.030914683 0.6843245 
0.50512064 -0.79517794 0.33547753 
0.55408484 0.0885235 0.8277401 
0.8190442 0.13621287 0.55732656 
0.3468436 -0.43788835 0.8294296 
0.11410305 -0.35888246 0.9263821 
0.10645323 -0.104967795 0.9887616 
0.12795672 0.9853756 0.11252671 
-0.91214085 0.1629734 -0.3760834 
-0.80915964 0.16479394 0.56400675 
-0.07232767 0.24575986 0.9666286 
0.1308982 0.8727293 0.4703289 
0.42411005 0.30619434 0.8522768 
0.4939768 0.47505918 0.72822094 
0.633124 0.7019198 -0.32628617 
0.46363005 0.4056497 0.7877155 
0.4016792 -0.033986103 0.9151496 
0.06585661 0.5276955 0.8468769 
0.48518768 0.3628503 0.7955707 
0.38846678 0.01983602 0.9212492 
-0.08410346 -0.08508822 0.9928175 
-0.35036737 0.106429346 0.93054587 
-0.9892683 0.14463174 0.020735828 
-0.4550174 0.54264647 0.70604104 
-0.14186834 0.5173926 0.84390664 
-0.30164292 0.6031702 0.7383748 
-0.19334674 0.04896476 0.979908 
-0.39850554 -0.048828773 0.9158653 
-0.50260216 -0.7205551 0.47769386 
-0.5732487 -0.08022058 0.8154451 
-0.39912757 0.41944772 0.8153287 
0.024712646 0.29416072 0.9554365 
0.58571106 0.51180375 0.6284899 
0.4134471 0.73371327 0.53919053 
0.24207146 0.19655927 0.9501399 
0.59931767 0.5225442 0.606437 
0.12671965 0.8050056 0.57957584 
-0.09026774 0.5352172 0.8398775 
0.25444508 0.5879105 0.76786655 
0.08937044 0.4423671 0.89237005 
0.078169115 0.43675846 0.89617616 
-0.13770291 0.74905163 0.648043 
0.316014 0.2516117 0.9147823 
-0.08445011 0.06754026 0.99413604 
-0.61392653 0.34293687 0.71097726 
-0.90730554 0.005603224 0.42043465 
-0.4368466 0.74231136 0.5080738 
-0.2465068 0.74896806 0.61504585 
-0.04316118 0.22899568 0.9724701 
-0.4093696 0.39949805 0.8202548 
-0.023914432 0.28859466 0.9571527 
0.021587271 0.09460937 0.99528044 
0.08755491 0.014638292 0.9960522 
-0.2507659 -0.26579064 0.93084466 
-0.53722876 -0.47268495 0.6985373 
-0.14775687 -0.9689306 0.1983467 
0.43241057 -0.1003566 0.8960746 
0.40132937 -0.17836691 0.8983987 
0.674069 -0.010090344 0.7385995 
0.11239083 0.106172025 0.98797566 
-0.15361448 -0.36347812 0.9188505 
-0.07289385 -0.9227318 0.37848717 
-0.17636263 -0.2097503 0.9617178 
-0.42248192 0.56764215 0.7066057 
-0.2040722 0.34151658 0.9174535 
-0.2333264 0.22992918 0.9448235 
-0.09759318 0.45951292 0.88279307 
-0.37713766 0.121217325 0.9181904 
-0.1071445 0.82181084 0.55959547 
-0.09246362 0.8256858 0.55650127 
0.23049335 0.962979 -0.1398012 
-0.013553802 0.7726672 -0.6346666 
-0.165297 0.9861151 -0.015936397 
-0.29246408 0.3243281 0.8995978 
-0.15634839 0.6714444 0.724374 
-0.2562727 0.8581691 0.44482586 
-0.73648226 0.34485304 0.5819538 
-0.246774 0.2865844 0.9257279 
-0.41125706 0.3269873 0.85085076 
-0.6406677 0.75503147 0.13954356 
-0.50440156 0.81199336 -0.2936763 
0.5334604 0.8375873 -0.11776053 
0.52128947 0.8470261 0.103942834 
0.44252154 0.83494735 0.3271663 
0.14199068 0.592794 0.7927382 
-0.1255512 0.43142352 0.8933705 
-0.098853104 0.43020412 0.897303 
0.29628456 0.5696779 0.7666046 
0.16773964 0.4511612 0.876537 
-0.5324948 0.09990684 0.8405165 
-0.42470658 0.43653986 0.7931315 
-0.12993369 -0.19865063 0.97141916 
-0.4286597 -0.15589623 0.8899143 
-0.77365637 0.2071192 0.59879667 
-0.9422119 0.14280856 0.30305514 
-0.767158 0.21366335 0.6048279 
-0.4169058 0.7653676 0.49030814 
-0.5225628 0.521381 0.67460364 
0.03514008 0.7982044 0.601361 
0.16284193 0.97945625 0.11894534 
0.5079849 0.86047506 0.039167296 
0.60590065 0.5330362 0.5905565 
0.52254623 0.19911738 0.82903427 
0.5441587 0.34379375 0.76530856 
0.57672226 0.37654135 0.7249884 
0.914773 0.3846822 0.1233293 
-0.047269665 -0.323418 0.94507486 
-0.30198732 0.36350623 0.8812871 
0.5068007 0.8620338 -0.007132415 
-0.13475467 0.9908766 0.0021663092 
0.71316975 0.6975354 -0.069522195 
0.40198135 0.9153541 0.023190947 
-0.15862031 0.98725235 0.013132184 
0.65147334 0.7310486 -0.20285617 
0.575592 0.7140617 0.3985094 
0.400906 0.79597384 0.45354182 
-0.57465565 0.703714 0.41780075 
0.26032206 0.19309632 0.946016 
-0.15033738 0.91753775 0.36813474 
-0.21703477 0.5171091 0.8279458 
0.30542105 0.483226 0.8204941 
-0.01743771 0.14271644 0.98961 
-0.16509457 0.15804549 0.97353244 
0.5987268 -0.40066266 0.6935385 
0.25843745 0.08236349 0.9625105 
0.31409222 0.28759614 0.9047843 
0.0050873854 0.7121171 0.7020424 
-0.36547774 0.46677506 0.8053242 
-0.3670754 0.41208643 0.83393085 
0.010727794 0.1391439 0.9902141 
0.16277517 0.719098 0.6755757 
-0.122586966 0.3066874 0.9438832 
0.12463779 0.14189327 0.982004 
0.18159004 0.4682358 0.86474293 
0.28444597 -0.006175669 0.9586723 
0.39280197 0.16139537 0.90534985 
-0.12152205 0.14906485 0.98133177 
-0.8224825 -0.17575707 0.5409547 
-0.4491126 0.88678926 0.109099895 
-0.5478989 0.8327654 -0.07942724 
-0.23511171 0.8757778 0.4215872 
0.18360032 0.79548454 0.57749057 
0.16022164 0.79986906 0.57839304 
0.8634762 0.50268644 -0.041415587 
0.69143724 0.14079097 0.70858485 
0.26938266 0.2538194 0.9289827 
-0.13542758 0.44269893 0.88638437 
-0.7512754 -0.5315127 0.39125398 
0.0072745467 0.88401955 0.46739328 
0.4608462 0.73767865 0.49340755 
0.74552196 0.40518418 0.5291719 
0.52979887 0.7319904 0.42837286 
0.32331508 0.54950917 0.7703941 
0.2469625 0.25017866 0.93617326 
-0.60946923 0.4376563 0.661063 
-0.03279879 0.8624228 0.50512487 
0.17241116 0.8831306 0.43629682 
0.20555225 0.7735704 0.5994473 
0.010631442 0.93850136 0.34511185 
-0.117923304 0.936281 -0.3308655 
0.5261579 0.7540411 0.39316636 
0.11360408 0.65709645 0.74519694 
0.5622975 0.76092416 0.32375282 
0.36767957 0.8001628 0.47386867 
0.77531445 0.51860094 0.36047286 
0.49363437 -0.076510824 0.8662974 
0.42336196 0.2838726 0.86033773 
0.3643579 0.47579125 0.8005412 
0.22728878 0.09764182 0.96892005 
-0.3312523 -0.18030992 0.92615354 
-0.35627797 0.36231288 0.8612755 
-0.15200762 -0.70659244 0.69110113 
-0.07183793 0.2176607 0.97337717 
-0.8982591 0.3242013 0.29668882 
-0.4025797 0.6809986 0.61169475 
0.025060436 0.56041336 0.8278339 
-0.41689244 0.038734935 0.9081302 
-0.2801014 0.8584874 0.42958435 
0.019633131 0.9935971 0.11126309 
-0.036102697 0.8349159 0.54919225 
0.24929458 0.9185374 -0.30682462 
0.9699235 0.09765205 -0.22296333 
0.914987 0.40339175 0.008597528 
0.5384433 0.65694183 0.527737 
0.22178699 0.7286076 0.648029 
-0.31350464 0.2707293 0.91017616 
0.110228516 0.3615537 0.9258124 
0.1404311 -0.16319655 0.976548 
-0.18576096 0.33022368 0.9254433 
-0.33957914 0.47759956 0.8102992 
-0.7376621 0.36441255 0.56838214 
-0.16988188 0.04850364 0.98427016 
-0.49609244 0.73399174 0.46384105 
-0.22421095 0.49010608 0.84233344 
0.07740627 -0.19660728 0.9774221 
-0.20125742 0.6479104 0.7346479 
0.25300333 0.62296635 0.74020433 
-0.057657175 0.6263254 0.77742654 
0.36393523 0.73354346 0.57399064 
0.2860919 -0.11197504 0.951637 
-0.41489193 -0.0089212945 0.909827 
-0.6470904 -0.17494684 0.7420699 
-0.8027364 -0.38002726 0.4595581 
-0.038305648 -0.41404667 0.90944934 
0.2890779 -0.16015072 0.94381446 
-0.5384843 0.032848727 0.84199506 
-0.5607752 0.05851687 0.82589775 
-0.4794574 -0.14601153 0.86533314 
-0.820438 0.20059234 0.53539175 
-0.9196343 0.19714838 0.33971372 
-0.11447565 0.7202723 0.6841807 
-0.61853504 -0.053959813 0.78390235 
-0.38119766 -0.29502273 0.87615645 
0.19390881 0.7987494 0.5695601 
-0.47790658 0.5467297 0.68752605 
-0.27629536 0.7745352 0.5689959 
-0.64216566 0.021813173 0.7662556 
0.13609728 0.56543005 0.8134904 
0.49832842 0.6203356 0.6056837 
-0.5465231 0.6923289 0.47116157 
-0.47479013 0.80486023 0.356054 
-0.10678346 0.35873395 0.92731184 
-0.02705308 0.08185446 0.9962771 
-0.43136525 0.88720655 0.16367255 
-0.17418516 0.9217347 -0.34650353 
0.193994 0.9456818 -0.26086828 
0.4827607 0.50406736 -0.7161412 
0.9462192 -0.3099517 0.092731826 
0.70824856 -0.1429115 0.69134676 
0.49704543 0.15386644 0.85397375 
0.5889189 0.073734574 0.80482155 
0.55548626 0.0055114487 0.8315075 
0.3999 -0.2949403 0.86780775 
-0.2803719 0.34166455 0.89702684 
-0.12148827 0.0953995 0.98799783 
-0.15830787 0.001657239 0.9873885 
-0.8777032 0.1687624 0.4485045 
0.24367213 0.4988986 0.83169955 
-0.28291616 0.34382823 0.8953997 
0.08109389 0.9101366 0.40629444 
-0.38818997 0.72992 0.5626059 
0.009530613 0.97929543 0.20221202 
0.56316113 0.6315074 0.5329616 
-0.04449775 0.5923485 0.8044522 
-0.20918569 0.72478926 0.6564464 
-0.4194111 0.8936999 0.15935792 
-0.68477577 0.7211874 -0.104742035 
-0.9615557 0.10714948 -0.25284308 
-0.3543189 0.85619336 -0.37602007 
0.9589543 -0.280582 0.040993158 
0.6436244 -0.1388329 0.75264406 
-0.42662835 0.51795167 0.7414273 
0.22258635 0.5322205 0.81682116 
0.06628009 -0.004877497 0.99778914 
-0.32434186 -0.1430968 0.9350539 
-0.9111585 -0.39811817 0.1062648 
0.9823468 0.017468955 -0.18625195 
0.788907 0.2780077 0.5480307 
0.71004117 0.62565553 0.32310492 
0.9110546 0.24632816 0.33060867 
0.46732265 0.08081033 0.8803859 
-0.05541293 0.085881114 0.9947632 
-0.18899474 0.4922564 0.8496851 
-0.846291 0.15155028 0.51070935 
-0.7397607 0.6295587 0.23750807 
-0.44896555 0.2710005 0.85146266 
-0.13524511 0.3364345 0.9319445 
0.114624344 0.36438963 0.9241653 
0.5947497 0.13772535 0.7920257 
0.80877835 -0.050944597 0.58590305 
0.66436815 0.3872134 0.63928145 
0.55768263 -0.05590549 0.8281695 
0.41973305 -0.088986285 0.90327495 
0.18869941 0.67855686 0.7098966 
0.39989516 0.45930222 0.7931742 
0.42607224 0.53215486 0.73162407 
0.21630952 0.5285789 0.82086205 
0.35457647 0.8357681 0.41924596 
-0.27584246 0.6240086 0.7311117 
-0.39654174 0.35092634 0.8482955 
-0.42487255 0.33006614 0.84293526 
0.30857736 0.77186054 0.555888 
-0.72751683 0.039353002 0.6849603 
-0.4803645 -0.16900653 0.8606316 
-0.09350432 -0.08368919 0.99209535 
-0.51680195 -0.2268336 0.8255073 
-0.24870513 -0.10520331 0.96284896 
0.44023973 0.62065893 0.64882326 
0.52839947 0.38583806 0.756256 
0.05900816 0.60960025 0.7905097 
0.31847537 -0.03023414 0.9474489 
0.68614596 0.008605463 0.727413 
0.39020976 0.41227403 0.8232658 
0.24530639 0.16592877 0.95514 
-0.036105238 0.32721493 0.94426 
0.5734457 0.42319483 0.7014744 
0.26984626 0.9369619 0.22200316 
0.07397401 0.914174 0.3985143 
0.12484414 0.25681654 0.9583628 
0.34776565 0.21027899 0.91369677 
0.13003916 0.19365136 0.9724141 
-0.50241905 0.35500088 0.7883841 
-0.15941577 0.84082645 0.5172982 
-0.17586625 0.5006837 0.8475771 
0.28668338 0.054561116 0.9564705 
-0.3347623 -0.014257203 0.94219476 
-0.025628602 0.008714813 0.99963355 
-0.7864128 0.27141768 0.55487597 
-0.25580788 0.34620515 0.90260977 
-0.005835928 -0.2663347 0.963863 
-0.1701955 -0.60598516 0.7770556 
0.4055098 -0.8201087 0.4037122 
0.1172543 -0.90531814 0.40822852 
0.5317621 -0.23259106 0.8143282 
0.31244916 0.5267725 0.79049754 
0.11953881 -0.005045563 0.9928167 
0.268575 0.05191615 0.9618588 
0.27630338 0.010745271 0.96101046 
-0.1343256 0.05124629 0.98961127 
-0.24472794 -0.2204701 0.9441935 
0.15353625 0.27242273 0.9498488 
-0.41576332 0.1298615 0.90015376 
-0.7202123 0.2969395 0.6269938 
-0.32538575 0.10573609 0.939651 
-0.832377 0.4994381 0.24022935 
-0.56007546 0.47256747 0.68043774 
-0.062481284 0.9653928 0.2532049 
0.47942877 0.87305796 0.088983 
0.4327635 0.79502577 0.4250294 
-0.64498025 0.6323648 0.42908648 
-0.53000945 0.3500878 0.77235264 
-0.2636571 0.009691787 0.96456784 
-0.26431763 0.4392901 0.8585806 
-0.36817512 -0.086110294 0.9257603 
-0.20611589 0.30760688 0.928921 
-0.12406502 0.006850585 0.9922505 
-0.57337713 0.7973617 0.18829001 
-0.026735915 0.8716406 0.4894158 
0.63067967 0.38506922 0.67376924 
0.22317941 0.59579766 0.77150255 
0.03448428 0.5596718 0.8279966 
-0.0071787448 0.300703 0.9536908 
0.108684994 0.8361297 0.53765655 
0.020407232 -0.011502456 0.9997256 
-0.17839645 0.32293683 0.92945504 
-0.63061386 0.71947813 0.29099396 
-0.0788932 0.7203822 0.68907577 
0.82234186 0.03255504 0.56806165 
0.58074236 0.1791672 0.7941269 
0.45885974 0.45391938 0.7638095 
0.8065564 0.3639079 0.46587318 
0.19631566 0.3525266 0.9149782 
0.044895105 0.7306719 0.6812511 
-0.26447156 0.45595548 0.8497996 
0.3102751 0.7076064 0.6348406 
-0.5734686 0.2144991 0.7906478 
0.039128456 0.842107 0.53788924 
-0.4736135 0.6812308 0.55822486 
0.41322818 0.45812303 0.78699803 
0.32228816 0.9398802 0.112940505 
0.7922332 0.40857095 0.4532508 
0.77146447 -0.01087318 0.63617957 
0.37267905 0.107000805 0.92177075 
-0.10648803 0.19567798 0.97486943 
0.26641044 0.7318119 0.6272774 
-0.47996062 0.8042711 0.35040817 
0.4705407 0.7143315 0.51799804 
0.7068377 0.5517096 0.44271544 
0.43192944 0.85994875 -0.27189186 
0.29720697 0.87412655 0.38414943 
-0.461142 0.73278147 0.5003794 
0.5860609 0.065539114 0.80761206 
-0.21614824 0.05589411 0.97475934 
-0.32423812 0.18651836 0.92740524 
-0.3101682 0.12107268 0.9429407 
-0.6869098 0.29690337 0.6633275 
-0.07949265 0.6993077 0.71038705 
-0.08918623 0.5360759 0.83944535 
-0.1201405 -0.17085397 0.97794443 
0.8655916 -0.17878139 0.46774817 
0.43128386 0.07419983 0.89915997 
0.19266729 -0.32485458 0.92593133 
-0.2863294 0.30717754 0.9075558 
-0.5546258 -0.091435246 0.827061 
-0.15935646 0.33319736 0.92929286 
0.224485 0.06810099 0.9720951 
0.05032059 -0.25271118 0.96623236 
-0.13777138 -0.24229664 0.96037054 
0.33898354 0.1259049 0.9323295 
0.30724987 0.36487105 0.8789008 
0.19809969 -0.10649109 0.9743799 
-0.49628478 0.043453842 0.86707157 
-0.61218256 -0.15929347 0.7745051 
0.038398772 -0.3560883 0.933663 
-0.47056618 0.87353295 0.12453036 
-0.1450033 0.8011312 0.5806574 
-0.34512916 0.9376203 0.04188417 
0.17696892 0.68172985 0.70987785 
0.113421105 0.047839 0.9923946 
0.1783961 0.6863253 0.7050762 
-0.23235889 0.038465977 0.97186923 
-0.6508142 0.24734548 0.71781695 
-0.72937196 -0.2880059 0.6205394 
-0.81850487 0.55964655 0.12979099 
-0.2804212 0.9556067 -0.090442635 
0.27902117 0.93374795 0.22419207 
0.6396276 0.6995132 0.3186815 
0.22976413 0.62920535 0.742502 
0.3796065 0.40428615 0.83213687 
0.29190204 0.34459382 0.89221543 
-0.26221704 0.6978983 0.66646844 
0.13581648 0.842412 0.5214365 
-0.24255909 0.47556716 0.8455773 
0.46020487 0.5778808 0.67399216 
0.16551232 0.97413015 0.15387093 
-0.11031753 0.99160993 0.06737934 
0.4497297 0.89259166 0.031990025 
0.26227885 0.85890174 0.43988362 
0.5168714 0.7922539 0.3243113 
-0.012283915 0.20126504 0.9794599 
0.7591242 0.06613401 0.64757764 
0.65521073 0.46891242 0.5923007 
0.52873755 0.4798852 0.70010495 
0.33838484 0.48970762 0.8035436 
-0.2659679 0.31821218 0.9099462 
0.03948856 0.3463601 0.9372702 
0.51038134 -0.1506038 0.8466579 
0.17140183 0.0112270685 0.9851373 
-0.32141563 -0.0514057 0.9455419 
-0.9006651 -0.23847732 0.3632233 
-0.6954311 0.038007703 0.71758693 
-0.26190403 -0.41621953 0.87072814 
0.22583184 0.013497699 0.97407275 
0.514732 0.1771795 0.8388436 
-0.045748577 0.022895453 0.9986906 
-0.4339939 0.126538 0.8919851 
-0.35090515 0.7226777 0.5954852 
0.069546655 0.68639255 -0.7238982 
0.6483149 0.7187873 0.2510632 
0.9932925 -0.100789346 -0.056670334 
0.52502996 0.34733117 0.7769844 
0.062502705 -0.366975 0.9281286 
-0.39456463 -0.0529688 0.9173402 
-0.25103235 0.51288277 0.82093483 
0.310073 0.36422727 0.8781762 
-0.0051969592 0.34620145 0.9381459 
-0.2619297 0.2905335 0.92031693 
-0.29113182 0.16952711 0.94154286 
-0.41606432 0.44159904 0.7949093 
-0.28916058 -0.069088526 0.95478433 
0.42940304 0.22471534 0.8747092 
0.40137276 0.25218555 0.8805126 
-0.28270894 0.6187471 0.7329582 
0.15604565 0.85957754 0.48659664 
0.3384002 0.53222346 0.77603066 
0.24899293 0.017400706 0.96834904 
-0.28881595 0.601018 0.7452266 
-0.043042857 -0.23808822 0.97028935 
-0.36232942 0.7309282 0.57832646 
-0.1634766 -0.4091905 0.8976851 
0.18148524 -0.60442686 0.7757135 
-0.412326 0.05282144 0.9095039 
-0.6565207 0.3483616 0.66904765 
0.06306721 0.075140096 0.9951766 
0.28483352 0.7463872 0.6014782 
-0.6765556 0.63046074 0.3805152 
-0.6607795 0.6929536 0.28841975 
-0.9492712 0.18560983 0.25383684 
-0.06969568 0.14125705 0.9875166 
-0.20263758 0.31931254 0.9257309 
-0.13922255 0.22681701 0.9639352 
-0.013575431 -0.0987268 0.995022 
-0.27665752 0.1814078 0.94369054 
-0.23451743 0.39520845 0.8881509 
0.45477846 0.437615 0.7756738 
-0.41751164 0.8954072 0.15469283 
-0.26453665 0.9082405 0.32422164 
-0.23059204 0.92129326 0.31312317 
-0.15343596 0.9784112 0.13845243 
-0.68631357 0.44295433 0.57685804 
-0.18130222 0.98239124 -0.04513434 
0.46399668 0.7781649 0.42328066 
0.622682 0.7819197 0.029476395 
0.9716191 0.0912506 -0.21824235 
0.9769179 0.08133148 0.19752623 
0.26231384 0.17488322 0.9490034 
0.2803807 -0.68617284 0.6712328 
0.027663998 -0.21789843 0.9755794 
-0.14310811 -0.31324762 0.9388269 
-0.47329575 -0.18855073 0.8604881 
0.15482987 0.088239424 0.9839927 
-0.52427036 -0.20151523 0.82736456 
0.38184792 0.115197726 0.9170179 
-0.029323576 0.50776106 0.8609988 
0.10138054 0.45726147 0.883535 
0.45759967 -0.06619257 0.8866911 
-0.21647024 0.14938116 0.96479326 
-0.1228759 -0.26351348 0.9567979 
-0.42215958 0.38669273 0.81990856 
-0.30517444 0.5726297 0.7608968 
-0.010641457 0.7151559 0.698884 
0.46109885 0.88712925 -0.019736607 
0.19945179 0.89957833 0.38855883 
-0.20612727 0.9775991 -0.042562325 
0.060385443 0.99808556 0.013382094 
0.5775237 0.6739306 0.4607428 
0.86394614 0.23867491 0.44343156 
-0.35044912 0.21547396 0.9114585 
-0.4532969 0.12694633 0.88227355 
-0.25686607 -0.29075268 0.92167383 
-0.8737173 -0.47100765 -0.121531375 
-0.90601355 -0.33031994 0.26462874 
0.6635521 0.22149934 0.7145885 
0.57401586 0.5033042 0.64590305 
0.351282 0.25217307 0.9016706 
0.4647709 0.2954672 0.8346779 
0.33114934 0.15999612 0.9299148 
-0.017414339 0.41913208 0.9077583 
-0.019880367 0.061233673 0.9979255 
-0.17581218 0.09845575 0.97948796 
-0.74417543 0.25007698 0.61940664 
0.20718041 0.59126776 0.7794092 
0.57447785 0.30589953 0.7592105 
0.5476741 -0.5608586 0.620879 
0.2929424 0.17173891 0.9405799 
0.94462746 0.30577746 0.11907661 
0.4179791 0.5323333 0.7361486 
0.1506146 0.37897882 0.9130665 
-0.20280261 0.029131375 0.9787863 
0.2884121 0.7552197 0.58860993 
0.03973683 0.3990344 0.9160746 
0.15914087 0.30180204 0.9399946 
0.38918316 0.5948925 0.7033061 
0.30527243 0.54281193 0.7824092 
0.41492042 0.62211716 0.6639363 
0.41620016 0.37467116 0.82849205 
-0.40288526 0.70565903 0.5828626 
0.17178811 0.15688242 0.97256196 
-0.67545664 0.027085613 0.7369022 
-0.669272 -0.26517612 0.69408697 
-0.54460305 0.21367323 0.81101865 
-0.33182144 0.38316956 0.8620184 
-0.05782088 -0.30518892 0.9505349 
0.2899964 0.883918 0.3668667 
0.5584038 0.4877739 0.6710155 
0.20504396 0.115667365 0.9718941 
0.31229255 -0.22859037 0.9220737 
0.4991596 -0.3322688 0.8002731 
0.4324483 0.26167783 0.8628518 
0.67418605 0.14805894 0.72356886 
-0.27177292 -0.015575394 0.96223533 
-0.3114663 0.39179465 0.86572844 
-0.13731031 0.68061763 0.7196566 
-0.6146181 0.35997874 0.70189744 
-0.15803161 0.25708553 0.9533798 
-0.16306636 0.12829933 0.9782376 
0.108915165 0.17571653 0.97839725 
0.05687039 0.64300287 0.76374936 
-0.18441974 0.98058873 -0.06659656 
0.45650092 0.4559558 0.76401 
0.2939476 0.17807876 0.93908614 
0.36764982 -0.3939282 0.84240985 
0.08196203 -0.19499646 0.97737336 
-0.28384966 0.57325286 0.768642 
-0.25571665 0.09604164 0.96196944 
-0.07267691 -0.14955236 0.9860792 
-0.5451559 -0.26127726 0.7965797 
-0.42441982 -0.9054386 -0.0069869794 
-0.006631929 -0.929788 0.3680358 
0.013065497 -0.4900627 0.87158936 
0.058230735 0.42529172 0.9031812 
0.6007672 -0.10373209 0.7926654 
0.037719496 -0.6176427 0.78555375 
0.75812453 -0.27042714 0.5933941 
0.21158792 -0.14616264 0.96636796 
-0.6010234 -0.04261997 0.7980942 
0.2789345 -0.10218191 0.9548584 
-0.74571645 0.31896377 0.58495235 
-0.55312884 0.13321437 0.8223762 
0.024471153 0.6258702 0.7795432 
0.40689155 0.5696717 0.71408224 
-0.053052135 0.31983465 0.945987 
-0.3468134 0.907257 0.23791835 
-0.090313114 0.9945575 0.05195162 
0.073949784 0.5632726 0.8229553 
-0.2246833 0.8124024 0.5380705 
0.012892953 0.5033057 0.86401236 
0.06342119 0.32245922 0.9444564 
-0.70991576 0.69196403 0.13116935 
-0.5794175 0.81486577 0.01640629 
-0.44031528 0.8932116 0.09107987 
-0.5660326 -0.26680297 0.78001493 
-0.050069008 0.21221444 0.9759397 
-0.04183784 0.814552 0.5785799 
0.22153091 0.5304845 0.8182361 
0.14190076 0.46677864 0.87291574 
-0.1254611 0.40440142 0.9059354 
-0.4982754 0.64953655 0.574303 
-0.29004043 0.2934146 0.91092503 
-0.21544696 0.50390923 0.8364557 
0.012718715 0.694446 0.7194325 
0.005226233 0.34446576 0.93878436 
-0.455849 0.5128888 0.7274248 
0.48546466 0.46168965 0.74240613 
0.3535872 -0.1761856 0.91865927 
0.47494346 0.40343574 0.7820924 
0.5361095 0.58611494 0.6074997 
0.23526563 0.34905106 0.90709066 
-0.32386938 0.12692572 0.9375493 
-0.6921663 0.27006742 0.66930515 
0.21351269 0.5308205 0.82014763 
0.13211551 0.33716488 0.9321295 
-0.32980302 0.21072522 0.920231 
-0.31327498 0.7912245 0.52518827 
-0.34451813 0.47281453 0.81102014 
0.49816677 0.090196714 0.8623772 
0.5197477 0.4931233 0.6976331 
0.35027316 0.6496667 0.67471623 
0.22395055 0.03777246 0.97386837 
-0.461102 -0.11457719 0.87991875 
-0.47582605 0.41891333 0.7733701 