# OOMMF: rectangular mesh v1.0
# Segment count: 1
# Begin: Segment
# Begin: Header
# Desc: Time (s) :  1.9e-08
# Title: m
# meshtype: rectangular
# meshunit: m
# xbase: 2e-09
# ybase: 2e-09
# zbase: 5e-10
# xstepsize: 4e-09
# ystepsize: 4e-09
# zstepsize: 1e-09
# xmin: 0
# ymin: 0
# zmin: 0
# xmax: 1.024e-06
# ymax: 1.024e-06
# zmax: 1e-09
# xnodes: 256
# ynodes: 256
# znodes: 1
# ValueRangeMinMag: 1e-08
# ValueRangeMaxMag: 1
# valueunit: 
# valuemultiplier: 1
# End: Header
# Begin: Data Text
-0.027477998 0.93170714 -0.36216968 
0.50873476 0.85303664 0.11626522 
0.043323793 0.7183986 0.6942814 
0.07359078 0.7273571 0.6823021 
0.10472547 -0.074783914 0.99168545 
0.400804 0.61914724 0.67528725 
0.1990138 0.7002579 0.6855891 
0.5506161 0.45084128 0.70254123 
-0.7306139 0.6433012 0.22883816 
-0.6012073 -0.22778146 0.76594085 
-0.57128465 0.6398627 0.5140133 
0.020204535 0.13442105 0.9907183 
-0.14401945 0.27928057 0.94934756 
0.26209414 0.42668137 0.8655922 
0.50904363 0.83755654 0.1984282 
0.82262313 0.47986567 0.30499223 
0.75157136 0.44202673 0.48964572 
0.21210602 0.7981588 0.56387377 
-0.008381155 0.7968655 0.6040986 
-0.010751279 0.51223695 0.858777 
-0.5606006 0.75553143 0.33896795 
-0.5792686 0.8075453 0.11098883 
0.23768148 0.96874183 -0.07104143 
0.7645672 0.6279373 -0.14536805 
0.97583663 0.14847064 -0.16031039 
-0.35845515 0.3684021 0.8577819 
-0.40645385 -0.14285633 0.9024341 
-0.30422768 0.7977743 0.5205784 
0.24568497 0.5798762 0.7767771 
-0.6838811 0.36204204 0.633429 
-0.24117574 0.46398363 0.85238105 
0.15177655 0.88112485 0.4478648 
0.16702053 0.46671656 0.86849284 
-0.63084906 0.7208228 0.28713062 
-0.26433092 0.48104048 0.83590025 
-0.5098817 0.3173068 0.7995856 
-0.12909207 0.056483462 0.9900227 
-0.46467045 0.27176225 0.8427495 
-0.2171616 -0.047684815 0.9749703 
-0.111947075 -0.76262724 0.63707733 
0.014299523 0.8618308 0.5069944 
-0.018005105 0.12327811 0.9922089 
-0.042022903 0.72058284 0.69209427 
0.38112342 0.5943047 0.70819974 
0.22919422 0.70766914 0.66833705 
0.49875072 0.7014801 0.50909084 
0.7454567 0.6654198 -0.038869694 
0.2524066 0.5854548 0.77041143 
0.70065016 0.17739236 0.69110155 
-0.5979533 -0.19442087 0.77759403 
-0.1769108 0.59450376 0.78439015 
-0.26217926 0.5740584 0.7757056 
-0.8791656 0.43628874 0.19162492 
-0.19779752 0.7715747 0.6046062 
0.54406345 0.60419136 0.58219224 
0.52836335 0.7397856 0.4165927 
0.05241664 0.8674268 0.49479634 
-0.32919475 0.4450194 0.8328197 
-0.69289345 0.60952973 0.38519114 
-0.8229824 0.5646765 -0.061972406 
-0.5309063 0.6612213 0.5300234 
-0.36402526 0.2995715 0.8818972 
0.14298487 0.5015515 0.85323 
-0.17007017 0.12605835 0.977336 
-0.72814983 0.019121198 0.6851513 
-0.27291068 0.59817445 0.7534634 
-0.18784314 0.32787547 0.9258578 
-0.0070677726 0.3046787 0.952429 
-0.09607451 0.34982523 0.9318755 
-0.2782957 0.7141762 0.6422648 
-0.045877043 0.80967546 0.5850821 
-0.2178124 0.9759034 0.013048441 
0.35208765 0.85782325 0.3743977 
0.112266496 0.9626042 0.24655508 
0.3686016 0.5678613 0.73598 
0.58731 0.47002897 0.6588929 
0.3147044 0.7654107 0.5613444 
0.13165355 0.4784416 0.8681942 
0.3875335 0.459965 0.7989055 
0.15740491 0.21210691 0.9644866 
-0.18432648 -0.50555223 0.84287655 
-0.4851343 0.7317854 -0.47868043 
0.14362855 0.5927926 -0.7924442 
0.5690956 0.5689457 -0.59365904 
0.70622593 0.70049024 0.10275445 
0.34472105 0.733189 0.5861753 
0.44749016 0.3350348 0.8291588 
0.8378194 0.46850264 -0.28029296 
0.27286607 0.96142083 0.03484488 
0.45081908 0.8862198 0.106661744 
-0.16351192 0.940886 0.29664358 
-0.11788096 0.5768271 0.80831593 
-0.16678672 0.47765568 0.8625702 
0.045331426 0.76745963 0.6394927 
0.093224816 0.9950781 0.03359729 
0.076719895 0.21579939 0.97341913 
-0.15978895 0.33342847 0.9291357 
0.2339681 -0.010209127 0.97219074 
0.08194991 -0.65227574 0.7535387 
-0.46001807 -0.5860928 0.6669922 
0.3190491 -0.11087498 0.9412303 
-0.27959615 0.10850436 0.953967 
0.54560494 -0.08389415 0.83383286 
0.6804325 0.19783784 0.70560044 
-0.3239461 0.39281175 0.86067295 
0.074477084 0.39722517 0.91469413 
-0.09058708 -0.13437493 0.98678136 
-0.44218132 0.17510535 0.87966686 
-0.5154442 -0.11844981 0.84869725 
-0.8227756 -0.35012114 0.44772264 
-0.9194952 0.37201768 0.12700933 
-0.7950753 -0.42091936 0.43667185 
-0.731113 -0.14897193 0.6657937 
-0.24119733 0.06408784 0.96835774 
0.6055927 -0.26618814 0.7499343 
0.5927235 0.38821915 0.7056662 
0.6030681 0.6236844 0.49731943 
-0.13346867 0.6050453 0.7849244 
0.6039318 0.7904131 0.10253622 
-0.5170138 0.29141906 0.80484265 
-0.055099517 0.22243996 0.9733882 
-0.6128283 0.7719227 -0.16904704 
-0.4292481 0.73313075 -0.5275086 
-0.33368415 0.9413398 0.050343245 
-0.62598306 0.686019 -0.3708413 
-0.4345964 0.8768925 -0.20539157 
-0.2558593 0.7405246 -0.6214173 
-0.5422648 0.80576646 -0.23809564 
-0.65475 0.39001387 0.6474502 
-0.5338006 0.8017638 -0.2687597 
-0.5711458 0.8189903 -0.05520453 
-0.7904802 0.600084 0.12263862 
-0.6244869 0.74345976 -0.23934025 
-0.8793702 0.40454262 -0.2511045 
-0.62002575 0.74815035 -0.23630333 
-0.7003692 0.672198 0.24006845 
-0.7635706 0.6209376 0.17719056 
-0.4977687 0.56429267 0.6586351 
-0.15105727 0.88551503 -0.43936864 
0.38576007 0.83295333 0.39670908 
0.48527476 0.50671726 0.7125631 
0.16077046 -0.106657475 0.981212 
-0.16743805 -0.13064721 0.9771877 
-0.28407532 0.41557074 0.8640615 
-0.4278751 0.6917087 0.58177495 
-0.060290053 0.9179941 0.39198476 
0.5983223 0.6163272 0.5120071 
0.60821426 0.49318883 0.62196493 
0.049227647 0.7303122 0.6813375 
0.31244233 0.9483875 0.054231446 
0.6605926 0.61741465 0.42710263 
0.26159248 0.56640315 0.7815094 
-0.0510566 0.92666554 0.37240344 
-0.27220365 0.66334087 0.69705385 
0.31017458 0.73367333 0.60457855 
0.13691637 0.47852755 0.86733234 
0.10237479 0.109653145 0.9886838 
-0.08942196 -0.23480882 0.9679197 
-0.22666202 0.90682137 0.35538605 
0.56979895 0.81503415 0.10511253 
0.32568768 0.7860743 0.5253712 
0.026027497 0.7393543 0.67281336 
-0.05563591 0.70463055 0.7073899 
-0.6091812 0.12327997 0.7833902 
-0.44191027 0.5317899 0.7224368 
0.05415975 0.92708373 0.37092113 
-0.44111273 0.779385 0.44494793 
-0.6494419 0.7505633 -0.12198309 
-0.03425545 0.9408899 0.3369761 
0.32559386 0.49816275 0.8036309 
0.42430633 0.42695984 0.798542 
0.13185474 0.9622769 0.23798682 
0.88218236 0.46602067 0.06766861 
0.65304726 0.47717935 0.5880724 
-0.229501 0.16562101 0.9591137 
-0.5731154 0.50706273 0.64375937 
-0.08323299 0.7837418 0.61548454 
-0.102977484 0.60140634 0.7922791 
-0.3932949 0.7042833 0.59101963 
-0.71493524 0.50126785 0.48744056 
-0.24866663 0.68513274 0.6846592 
-0.96698993 0.24788232 0.059031792 
-0.8702864 -0.4115446 0.27061567 
-0.009013719 -0.1311648 0.9913196 
0.13947326 0.11905845 0.9830424 
0.32135177 0.31446162 0.89322287 
0.351957 0.6633974 0.66032594 
0.51821035 0.39039955 0.76095104 
0.90766126 -0.09770939 0.40817136 
0.6668558 0.08387057 0.74045193 
0.30246946 0.37054768 0.8781837 
0.62855625 0.39787292 0.6682921 
-0.45651397 0.28129512 0.84407824 
-0.3051078 -0.25098187 0.91864973 
-0.15294045 -0.85450333 0.49642047 
-0.047363628 -0.29166684 0.9553467 
-0.035965767 0.55322653 0.83225405 
0.3883491 0.53989315 0.74679345 
0.6936516 0.62138414 -0.36432016 
0.7063739 0.31590632 0.6334345 
0.3811541 0.65021974 0.65721834 
0.62620026 0.7795522 -0.013095834 
0.44257632 0.82659125 0.34766823 
-0.015385339 0.022296509 0.999633 
0.10130172 -0.13807406 0.9852277 
-0.34107456 0.53357124 0.77393144 
0.086762354 0.40142688 0.9117723 
-0.58365226 -0.17457977 0.7930145 
0.48246258 0.6752676 -0.5578921 
0.59511185 0.04564914 0.8023454 
0.20878175 -0.16022094 0.9647484 
0.23788583 0.48290315 0.84274256 
-0.13366346 0.81315404 0.56649333 
-0.6771732 0.5645251 0.4719617 
0.098180264 0.63358676 -0.7674168 
0.560508 0.82028675 0.11384483 
0.055812325 0.9789053 0.1965438 
-0.015061952 0.9998834 0.0025171433 
-0.020784775 0.78389853 0.6205411 
-0.7302042 0.42895508 0.5317889 
0.2009074 0.63481236 0.7460895 
0.9335661 0.3490204 -0.08148106 
0.8017363 0.094267376 0.590197 
0.012503716 -0.12781365 0.99171937 
-0.78172743 0.4999439 0.37277144 
-0.7884109 0.52872163 0.31442285 
-0.91895175 0.2548577 -0.3009574 
-0.5435583 0.82350504 -0.16243158 
-0.118519 0.8911052 0.4380468 
-0.78858113 0.4976538 0.3612209 
-0.23871574 0.82330036 0.51496726 
-0.46566436 0.8160218 0.34244 
-0.4588504 0.25215256 0.8519833 
-0.51615715 0.76073885 0.39352053 
0.20704499 0.6131986 0.7623122 
0.71831316 0.6867418 0.111408606 
0.8620937 0.44326293 -0.24558608 
0.8498907 0.51904255 0.09099864 
0.59090227 0.8067429 -0.00058558106 
0.91197807 -0.02032521 0.40973517 
0.48032743 -0.28659084 0.828946 
0.3840291 0.3860513 0.83874077 
-0.12002894 0.910917 0.39474463 
0.6634972 0.44445205 0.6018586 
0.9958232 0.07914394 0.045524154 
-0.2850835 -0.5277446 0.8001332 
-0.36187628 0.03756482 0.931469 
-0.05856285 0.02243253 0.99803174 
0.3390615 0.1398006 0.93031883 
0.039582685 0.14438064 0.98873025 
0.2299452 -0.18786845 0.9548983 
-0.33001655 -2.6885495e-05 0.94397515 
-0.9270769 -0.3465106 0.14303438 
-0.741083 -0.34251246 0.57747835 
-0.8790966 -0.45865154 0.12972268 
-0.82362455 -0.37887534 -0.42201447 
0.4606764 -0.3535968 0.8140926 
0.35683447 -0.049226467 0.93286973 
0.13384472 -0.37009498 0.9193015 
0.5502913 0.058931775 0.8328905 
0.1455572 0.506915 0.8496177 
0.19903511 0.3749453 0.90542877 
0.0732492 0.24246867 0.9673901 
0.30814058 0.55374366 0.7735744 
0.2642898 -0.34852284 0.89926785 
0.34120446 -0.3097444 0.8874897 
0.05708858 0.36117357 0.9307495 
0.5561046 -0.50841594 0.65746564 
0.20477039 -0.08067896 0.9754794 
-0.25877234 0.06993917 0.96340305 
0.16888733 -0.009121947 0.9855932 
0.3192639 0.48754826 0.8126298 
-0.19100603 0.5471286 0.8149645 
0.14660728 0.8098964 0.5679562 
-0.00038933367 0.8119816 0.58368284 
0.14898355 0.5203264 0.8408713 
-0.13670285 -0.089952685 0.9865196 
-0.25945148 0.8674636 0.4244902 
0.13077807 0.6151362 0.7774989 
-0.26579913 0.878709 0.3965115 
-0.16270803 0.79254866 0.5877014 
-0.2928855 0.5648841 0.7714429 
0.27141297 0.8480997 0.45504048 
-0.06140024 0.59926444 0.79819304 
-0.20193106 0.24648231 0.9478768 
0.13149875 0.015544961 0.99119455 
-0.7402807 0.35786292 0.5691385 
0.045457665 0.655984 0.7534048 
0.22883603 -0.44065747 0.86801785 
-0.13862783 -0.3191419 0.93751305 
-0.0837862 -0.19643669 0.9769302 
-0.31096634 -0.07937404 0.9471007 
-0.50591195 -0.11479382 0.85491264 
-0.877414 0.4625621 -0.12720509 
-0.78182334 0.3334131 0.52686614 
-0.5637042 0.68201554 0.4659319 
0.5604541 0.53123474 0.63535887 
-0.5327387 0.45793578 0.71167713 
-0.78643554 -0.01081189 0.6175777 
-0.18055297 0.7411168 0.6466425 
0.6814997 0.7314484 0.023268256 
0.4313931 0.70629346 0.5612928 
0.39355785 0.7936146 0.4639914 
0.2270713 0.12456888 0.96587855 
0.6092652 -0.24346037 0.75466746 
-0.077273965 0.29503828 0.9523556 
-0.13228682 0.6310971 0.7643407 
0.1985155 0.49530253 0.84573454 
0.06890493 0.31436583 0.9467979 
-0.1044781 0.5830812 0.80566794 
0.29786295 0.2320583 0.92597336 
0.19133185 0.44354236 0.8755926 
-0.24016501 0.7578923 0.60656404 
-0.31701985 0.18662387 0.9298763 
-0.2174254 0.06560519 0.9738697 
-0.6889099 0.6667547 0.28432614 
-0.056092452 0.8406478 0.53866965 
-0.32907334 0.5168289 0.79031557 
0.38098836 0.25781426 0.88790756 
0.09264512 0.16933393 0.9811946 
-0.43835837 0.43951777 0.7840066 
-0.13834383 -0.0033194253 0.9903788 
0.1199925 0.028083136 0.9923776 
-0.18253666 0.48111057 0.8574456 
-0.40254846 0.4191526 0.8137972 
-0.60005087 -0.5159136 0.6113692 
-0.19741978 -0.7091495 0.6768549 
-0.5508936 -0.010089549 0.8345145 
-0.71401954 -0.09550173 0.69358176 
-0.5663753 0.8202109 0.080455646 
0.47371593 0.75188684 0.4585404 
0.24351886 0.86273235 0.44316083 
-0.41810763 0.55100447 0.7222051 
-0.24390614 0.4584987 0.8545693 
-0.76864547 0.6359743 0.068710014 
-0.42035437 0.21355745 0.88187045 
-0.7844873 0.13395937 0.60550356 
-0.5876232 0.6541705 0.47619328 
0.25183797 0.50166094 0.8275953 
0.26484 0.94644177 0.18468319 
0.5278507 0.23457406 0.81630194 
0.42314017 0.4445353 0.78951937 
0.3847476 0.32583186 0.8635988 
0.5213887 0.6484665 0.5546576 
0.78987825 0.5443068 0.28252894 
0.3353189 0.94183916 -0.022369746 
0.00472311 0.70632887 0.70786816 
-0.10409079 0.39378208 0.91329116 
-0.33831838 0.32253873 0.8840303 
0.6164133 0.16509129 0.76992184 
0.004474896 0.6525025 0.7577735 
-0.49530047 0.17212494 0.8514989 
-0.7156146 -0.020255776 0.69820154 
0.15727422 0.5216569 0.83853376 
-0.27397662 0.5185311 0.8099768 
-0.49310645 0.08971754 0.8653305 
-0.1025044 -0.32610372 0.9397602 
0.2622169 -0.45573494 0.8506162 
0.12836175 0.17384572 0.97637135 
0.34646067 0.38103643 0.8571909 
0.06253322 0.5310178 0.8450501 
0.019426681 0.30729762 0.95141524 
0.008557395 -0.25361645 0.96726704 
0.07495205 0.20170423 0.9765744 
0.30001542 0.13307665 0.9446064 
-0.06834471 0.1505812 0.9862324 
-0.12951362 0.5181622 0.84541947 
-0.15846601 0.533397 0.83088887 
-0.074785955 -0.052037165 0.99584097 
-0.07826915 -0.18928164 0.9787985 
0.13873465 -0.48914164 0.8611 
0.53862673 0.44285113 0.7167735 
-0.23854709 0.70519793 0.667676 
-0.18061687 0.44581896 0.8767115 
0.34196132 0.44817218 0.82595646 
0.21059045 0.78096205 0.5880051 
0.11089482 0.5477266 0.82927555 
-0.5071962 0.8007383 0.3187009 
-0.79061836 0.6055874 0.09047961 
-0.5561731 0.5414183 0.63050604 
-0.6768111 0.62884474 0.38272846 
-0.47566023 0.76182234 -0.43974325 
-0.3940188 0.87952423 0.26680788 
-0.2573607 0.9280352 0.2692883 
-0.72433233 0.6499695 0.22996189 
-0.27001333 0.9565692 0.10985546 
-0.39065346 0.8810844 -0.26660848 
0.22650395 0.9736738 -0.025600078 
0.4055074 0.77843213 0.4791733 
-0.0048767915 0.93395984 0.3573449 
0.13755989 0.1344722 0.9813228 
-0.40513808 0.6650349 0.6273689 
-0.13958651 0.4873941 0.8619529 
-0.27008557 0.21354365 0.93885726 
0.264415 0.88742185 0.3775809 
0.6539994 0.50668806 0.5617403 
0.50005406 -0.24670534 0.83010983 
0.014054416 -0.21357332 0.976826 
-0.1869442 0.35067424 0.9176489 
-0.047094896 0.492697 0.8689257 
-0.6921867 0.65239793 0.30863324 
-0.17793956 0.64162445 0.7460936 
-0.05257317 0.56252456 0.8251075 
0.20174561 0.65514666 0.72806704 
0.32255578 0.31751642 0.8917068 
0.46446067 0.55945563 0.6865025 
0.5705099 0.7895767 0.2260247 
0.600268 0.5197548 0.60789245 
0.39648485 0.5624169 0.7255942 
-0.14730869 0.48043376 0.8645713 
0.35718408 0.75411355 0.55111915 
0.30261737 0.37601706 0.8758047 
-0.0053243064 0.49759573 0.86739284 
0.29756704 0.13099785 0.94567096 
-0.4442044 0.72209215 0.5303448 
0.27607432 0.9105503 0.30770302 
0.68589544 0.7053577 -0.17893611 
0.49155852 0.85687953 0.15533105 
0.6135665 0.6104485 0.5008881 
0.43939415 -0.56986964 0.6943929 
-0.37238425 -0.33355635 0.8660659 
-0.19722086 0.19564883 0.9606381 
-0.26528177 -0.052765705 0.96272606 
-0.7675629 0.48366314 0.4206152 
-0.37993658 0.35700247 0.8533449 
-0.4195831 0.15888414 0.89370346 
-0.27235758 0.3529022 0.8951432 
-0.6290746 -0.13238485 0.76598924 
0.29213908 0.37063068 0.88163924 
0.32983208 0.34822702 0.87746733 
0.07659528 -0.02787708 0.9966726 
-0.019881044 0.4407182 0.89742535 
-0.19465263 -0.2475935 0.94910896 
-0.11826803 -0.242541 0.96290535 
-0.7476296 0.5036558 0.43287525 
-0.42911014 -0.0143760955 0.9031378 
-0.3859625 -0.24898769 0.8882782 
-0.9781332 0.07149084 0.19530629 
-0.8995636 0.18309365 0.39656287 
-0.49214357 0.4861956 0.7220863 
0.14481838 0.7479074 0.6478134 
0.5588022 -0.055866856 0.8274171 
0.7296981 0.2511908 0.6359591 
0.65168446 0.29410443 0.6991495 
0.51826984 -0.094401315 0.849991 
0.24505213 -0.27893835 0.92851657 
-0.22617662 0.54560965 0.80694133 
-0.043604303 0.6567542 0.752843 
-0.34380764 0.4918816 0.7999056 
-0.053612493 -0.66662353 0.7434641 
0.16787045 -0.4677411 0.8677776 
0.44873053 0.032003995 0.8930938 
0.04512562 -0.30090162 0.952587 
-0.10621753 0.27977374 0.95417213 
0.1290221 0.8383992 0.52956617 
0.17466451 0.94244975 0.28509808 
0.39589852 0.9173859 0.0408352 
0.47448415 0.16327 0.86499006 
0.17080191 0.2290228 0.958319 
0.30688277 0.31573153 0.89785117 
0.14104754 0.16889316 0.97549003 
0.2728351 0.5256271 0.8057774 
-0.29913154 -0.21499792 0.9296754 
-0.6200284 0.5494491 0.56006294 
-0.51459354 0.6145578 -0.5979232 
0.5270632 0.6462259 -0.5519026 
0.9158369 -0.26943597 0.29773664 
0.4687927 0.08971703 0.87874025 
-0.78273064 0.11780792 0.61110896 
-0.30301735 0.65984404 0.6875946 
-0.8737554 0.34024712 -0.34753898 
-0.79626024 0.5444693 -0.2636717 
-0.3213849 0.93201774 -0.16749573 
-0.152169 0.6694891 0.7270688 
-0.16291536 0.39421272 0.9044639 
-0.32603595 0.740927 0.5871353 
-0.22385529 0.9598724 0.16891979 
0.8809388 0.35962725 -0.30759582 
0.77636826 0.29209438 0.55851 
0.7490993 -0.027216796 0.6618985 
-0.13587059 0.38188684 0.9141672 
-0.8931166 0.350522 0.2819167 
-0.9318613 0.22172259 0.28718248 
-0.64530605 0.7090465 0.28431183 
-0.22079594 0.73622906 0.6397 
-0.42870495 0.7973213 0.42484206 
-0.17873873 0.94113725 0.2869027 
0.50457066 0.79687953 0.33225226 
0.076433085 0.63176507 0.7713825 
-0.35434973 0.22170869 0.9084501 
0.4332645 0.5773384 0.692071 
0.3858414 0.7586453 0.5249608 
0.47856256 0.8371594 -0.26484323 
0.81399786 0.45099887 0.3660706 
0.19668663 0.96774197 -0.15744795 
0.5961208 0.67489225 0.434926 
0.0898738 -0.32490194 0.9414677 
-0.27683833 -0.2872214 0.9169867 
0.22910249 0.47673997 0.8486642 
0.6333461 0.66209257 0.4006323 
0.38165733 0.34918553 0.85580796 
-0.46837714 -0.13766699 0.8727375 
-0.30731514 0.04795248 0.95039886 
-0.4537095 -0.09262082 0.88632333 
-0.1941901 0.18823645 0.9627342 
0.20510827 -0.041242685 0.9778699 
-0.3141766 0.02047197 0.9491438 
-0.7251777 0.08550086 0.6832327 
-0.9303362 0.2188903 0.2942137 
-0.89347637 0.3375986 0.29618797 
-0.88050973 0.41764078 0.22422929 
-0.9048088 0.179695 -0.3860449 
0.4657199 0.440412 0.7675561 
-0.06745478 0.31967127 0.9451245 
0.84772646 -0.05282632 0.52779657 
-0.10168703 -0.1309806 0.9861561 
0.4556821 0.30478582 0.83633685 
0.4001311 -0.4214317 0.81381226 
-0.032106303 0.09570867 0.99489146 
0.830606 0.32807818 0.4499538 
0.480455 -0.21733494 0.84966385 
-0.4838894 0.21830422 0.8474636 
0.03823998 0.5876384 0.80821955 
0.2035665 -0.6584076 0.7246104 
-0.10105561 -0.4415957 0.89150494 
-0.008034907 -0.22397803 0.9745611 
0.3614656 -0.2951175 0.884448 
0.045978934 -0.4469299 0.8933867 
-0.6340914 0.026202662 0.77281415 
-0.48772457 0.09208855 0.868127 
0.013445769 0.80197877 0.5972013 
0.10838648 0.36345935 0.9252836 
0.505792 0.25972277 0.822629 
-0.30508104 0.5169896 0.7997796 
-0.52741116 0.6648689 0.52894884 
0.75001943 0.30463102 0.58708674 
-0.2874751 0.7220831 0.62924886 
0.35190564 0.5864757 0.72952646 
-0.3063211 0.52784044 0.79218173 
0.1116044 0.96336716 -0.24386135 
0.25900793 0.5446953 0.7976352 
-0.31511578 0.51116467 0.7996329 
0.4695661 0.44462404 0.7627695 
0.00080511195 0.3623657 0.9320357 
0.06539156 -0.17989711 0.9815096 
0.26152727 -0.18521339 0.94725895 
-0.073824555 -0.08052018 0.99401534 
-0.333015 0.118397936 0.9354588 
-0.6072226 -0.19736724 0.76962775 
-0.6929241 0.3359151 0.63797915 
-0.58434236 0.30280966 0.7528946 
-0.55784166 0.48447302 0.67386836 
-0.83401406 -0.09763966 0.54303503 
-0.5570017 0.47422746 0.6818046 
-0.4668912 0.35298112 0.8108125 
-0.4499302 0.58762985 0.67249835 
-0.2195792 0.8301253 0.51252025 
-0.3222166 0.5448732 0.7741381 
0.12356802 0.9268187 0.35459566 
-0.45475882 0.7217992 0.5217282 
0.6625054 0.11834241 0.7396497 
0.062214933 0.47459918 0.87800056 
-0.62531596 0.4722214 0.62127846 
-0.18731032 0.5721452 0.79847646 
-0.29096794 -0.2937952 0.9105065 
-0.673363 0.115763806 0.7301925 
-0.5457576 -0.50510615 0.6685929 
-0.00428983 0.38597733 0.9224984 
0.16278884 0.5683803 0.806501 
-0.59310395 0.7384756 0.3207516 
-0.21632335 0.023568314 0.9760373 
-0.159863 -0.10556537 0.98147833 
-0.18323441 0.41753218 0.8899955 
0.4937347 0.03927815 0.86872506 
0.3665231 0.65653974 0.65925455 
0.68111306 0.57844615 0.44887105 
0.042526726 0.19676198 0.9795286 
0.004476861 -0.024472436 0.9996905 
-0.47451618 -0.22293858 0.85154736 
-0.3040512 -0.13683714 0.942777 
-0.15158732 0.27450964 0.9495609 
-0.07692026 -0.32531294 0.9424727 
-0.70716345 -0.6618006 0.24887706 
-0.32500157 -0.5193039 0.7903781 
-0.6512174 0.43525878 0.62166363 
0.17368655 0.68505883 0.7074796 
0.10947457 0.13870308 0.9842646 
-0.5059243 0.4959494 0.70574427 
0.17734072 0.8048566 0.5663534 
-0.35567993 0.16177568 0.9205001 
-0.2847825 0.6008865 0.7468831 
-0.65715605 0.1630639 0.73590505 
-0.34086967 -0.08849852 0.9359359 
-0.28538468 0.58683085 0.75775015 
0.11098374 0.6419142 0.75870204 
0.55957955 0.6105383 0.56045854 
0.36303464 0.2550079 0.8962014 
0.41342482 0.46591404 0.78230697 
0.03743324 -0.08174556 0.99595 
0.047491457 0.8119533 0.5817872 
0.35667622 0.20695691 0.91101646 
0.5041516 0.59757584 0.6234856 
0.7387725 -0.01666267 0.67374897 
0.23470482 0.21703015 0.94752926 
0.28316584 0.10426595 0.9533865 
0.11577763 0.26093733 0.9583879 
0.30069846 0.26918107 0.9149437 
0.5030943 0.2503248 0.8271842 
-0.11518069 0.18622619 0.97573215 
0.31660452 0.3054281 0.89803976 
-0.38479817 0.3128655 0.8683581 
-0.14792605 -0.046204656 0.98791856 
0.81480455 -0.16747586 0.55501854 
0.3892484 -0.43656635 0.81110764 
0.2730739 -0.06413173 0.95985305 
-0.43655986 -0.0957475 0.89456576 
-0.5152458 0.42841876 0.74227977 
0.020477071 0.74808735 0.66328436 
0.53725266 -0.6066362 0.58596265 
0.0076205973 0.22165795 0.9750947 
0.04450544 0.16312367 0.98560137 
0.30095726 0.36982715 0.8790067 
-0.23053458 0.2070547 0.9507798 
0.08587514 0.027151173 0.995936 
-0.5919241 -0.50339204 0.62946194 
-0.22719017 -0.42801607 0.8747496 
-0.31999254 -0.21371293 0.92300147 
0.1167057 0.39503375 0.9112235 
0.18554382 0.20812877 0.96034163 
-0.35685185 -0.27115363 0.89394206 
-0.61316615 0.4447974 0.65282667 
-0.8280077 0.37649018 0.41552174 
0.06768002 0.4739101 0.8779685 
-0.46460494 0.275391 0.84160686 
-0.70573395 0.2857948 0.6482753 
-0.16169073 0.11561092 0.98004603 
-0.7930677 0.46812516 0.38974673 
0.26819533 0.8938551 0.359297 
-0.2065786 0.76581585 0.6089757 
-0.07632527 0.94026625 0.33177382 
0.38294455 0.65759057 0.6487898 
0.48317063 0.71907663 0.49947476 
0.47851446 0.71861935 0.50458926 
0.09093515 0.77487844 0.62553525 
-0.3509817 0.7612327 0.545286 
0.053459283 0.6207944 0.78214866 
-0.07750904 0.5869111 0.80593294 
-0.5386479 0.41033804 0.735854 
-0.25722143 -0.018819673 0.96616924 
-0.5367502 0.2865384 0.79359627 
-0.054973003 0.5597705 0.82682216 
0.25060487 0.6200629 0.7434509 
0.13646957 0.04917741 0.989423 
0.23249194 0.26552922 0.9356505 
-0.70673805 0.49279085 0.5076205 
-0.4619111 0.45915914 0.75882214 
-0.98744893 0.1567739 0.019149594 
0.35099778 0.43179768 0.83087385 
0.72132057 -0.09926188 0.68545157 
0.16214314 0.12369031 0.9789843 
0.6284004 -0.07451469 0.77431303 
0.3057053 0.35745615 0.88247913 
0.6760076 0.22857742 0.70054704 
0.33631542 0.07599278 0.9386784 
0.6418593 0.1320527 0.7553666 
0.33413666 0.2813124 0.8995644 
0.4061911 -0.25849262 0.8764647 
0.53840864 -0.036883377 0.8418763 
0.13710238 -0.040036567 0.9897475 
0.34492037 0.04201398 0.9376912 
-0.08365238 0.20060281 0.9760947 
0.06613464 0.66344225 0.7452991 
0.8027921 0.5938906 0.053093053 
0.21340711 0.8779204 0.42861798 
0.32274193 0.7403527 0.5896742 
-0.042755865 0.00829545 0.9990512 
-0.6162538 0.18166529 0.7663087 
-0.6859193 0.2104268 0.69658834 
-0.46948323 -0.04132706 0.8819737 
-0.93682194 0.2808715 0.20850912 
-0.35509872 0.89638275 0.26533568 
0.46504176 0.4515346 0.7614807 
0.09028178 -0.182607 0.9790322 
-0.20115447 -0.61797094 0.7600321 
0.3558693 0.21531437 0.90939367 
0.4163215 0.48801294 0.7671506 
0.023983402 0.4710711 0.8817692 
-0.36525363 -0.13341354 0.92129844 
-0.007177953 0.18032551 0.9835809 
0.11567335 -0.30104658 0.9465679 
-0.18547219 0.24663882 0.9511937 
-0.6790988 -0.21135698 0.70296025 
-0.63431555 0.6731062 0.38022608 
-0.9197567 -0.0160061 0.39216238 
-0.81110865 -0.45978495 0.36152557 
-0.028131211 0.0749362 0.9967915 
-0.1421273 0.26599547 0.9534392 
0.0659229 0.46877643 0.88085353 
-0.21452744 0.5638484 0.79752934 
0.63715065 0.31665054 0.7026888 
-0.038524885 0.21112789 0.976699 
0.59937245 0.67498946 0.4302812 
0.58539504 -0.060325168 0.8085009 
-0.061666578 0.18447402 0.9809009 
-0.10984908 0.5518377 0.82668525 
0.20104137 -0.73029107 0.6528839 
0.92947453 0.26290342 0.2587642 
0.62733716 -0.08494455 0.7741011 
-0.19894405 -0.6245565 0.7552155 
-0.6486305 0.3481966 0.6767848 
0.0010572417 0.75145125 0.6597877 
0.42706066 0.855907 0.2916203 
0.16351457 0.97767466 0.1319673 
0.2056285 0.26702783 0.9414951 
-0.12932439 0.2758184 0.9524702 
0.08247748 0.38128582 0.92077065 
0.26701355 -0.035394326 0.96304256 
-0.032578696 -0.17594431 0.98386097 
-0.20365861 0.16893269 0.9643573 
-0.13811108 0.89303774 0.4282628 
-0.27918026 0.92240345 0.2668902 
0.41694376 0.7622588 0.4950954 
0.38807422 -0.19149655 0.9015141 
-0.32882673 -0.058263812 0.94259137 
-0.24689782 -0.12882072 0.960441 
-0.26765507 0.8937538 0.35995138 
-0.64416873 0.76415104 -0.03346495 
-0.35116366 0.84143645 0.41069323 
-0.21250108 0.94319856 0.25538158 
-0.27103272 -0.06264854 0.9605293 
-0.6874408 -0.12134061 0.7160319 
-0.67468673 0.68924177 -0.2640902 
-0.47008935 0.7198215 0.5107573 
0.38331756 0.67851627 0.6266446 
0.6143098 0.053984627 0.78721607 
0.50895214 0.119282916 0.85249007 
-0.5831626 -0.49728274 0.6423639 
-0.8139851 0.3808723 0.43859378 
-0.5679313 0.67016566 0.47784108 
-0.9267944 0.22907816 0.29761595 
-0.21846518 0.6130326 0.7592524 
-0.93448704 0.12747043 0.33239335 
-0.31153226 0.8107344 0.49563837 
-0.673332 0.48229158 0.56037396 
-0.18835263 0.4624838 0.8663902 
0.6124365 0.029590765 0.78996575 
0.27270833 0.58781356 0.76164657 
0.45469025 0.6530926 0.6055798 
-0.38851827 0.8942547 0.22217636 
0.7202974 0.6893 -0.0776991 
0.807961 0.58541495 -0.06699598 
0.46089852 0.19270442 0.86627805 
0.22522901 -0.23806936 0.9447724 
0.32373285 0.33608297 0.8844464 
0.12047051 0.7638906 0.63400155 
0.2998225 0.7455535 0.5951945 
-0.05217829 0.4269671 0.90276057 
0.19929199 -0.2607049 0.9446247 
-0.044923503 0.12305843 0.9913822 
-0.10997663 0.46375018 0.8791138 
-0.05297809 0.058775607 0.99686444 
0.4989021 0.21420704 0.83976907 
0.18118346 0.43073323 0.88410485 
-0.45230862 -0.42046437 0.7865282 
-0.3332066 -0.37628472 0.8645133 
-0.93745494 -0.3450654 0.045914575 
-0.37496907 0.9268193 -0.020102253 
0.18480502 0.52283615 -0.8321596 
0.031886775 0.6838106 0.7289625 
0.050858114 -0.09256855 0.99440664 
0.33239877 -0.782573 0.526394 
-0.41485867 -0.105209835 0.90378267 
-0.19015305 0.27803084 0.94156295 
-0.02247766 -0.26804468 0.96314424 
-0.4331302 0.0018285259 0.90132964 
0.2706475 0.80822444 0.5229946 
0.4039785 -0.4315317 0.8065866 
0.18555976 0.6834421 0.70602727 
0.12851946 -0.40692285 0.9043763 
-0.36976594 -0.46718818 0.8031242 
-0.040504843 -0.45812923 0.88796234 
-0.21755219 -0.34220624 0.91409296 
-0.5985536 -0.082790166 0.7967933 
-0.56722766 -0.17034794 0.8057508 
-0.21909449 0.6539812 0.72409 
-0.15681803 -0.2522619 0.9548676 
-0.5399016 0.018833354 0.8415175 
0.3144954 -0.4501957 0.83571315 
-0.32764328 -0.09426918 0.94008684 
0.08962877 0.1837325 0.97888154 
0.40132987 0.4699665 0.7861716 
0.3485469 0.28070796 0.89426965 
0.35404143 0.66472834 0.65786844 
0.17925413 0.53792506 0.82371396 
0.5318137 0.6074571 0.59005946 
0.69809437 0.59449875 0.39904344 
0.7503464 0.38274598 0.53896743 
0.49452996 0.60756177 0.6215376 
0.46550575 0.15393515 0.87155515 
-0.07377125 -0.20810764 0.97532 
0.11476035 -0.12274544 0.9857808 
-0.12417915 -0.61966366 0.7749817 
0.033905003 -0.19062302 0.98107773 
-0.021837814 -0.47928214 0.8773892 
-0.36357263 -0.30803797 0.87916297 
-0.5099445 -0.05788124 0.8582578 
-0.5705386 0.6590971 0.4899763 
-0.55642825 0.69351745 0.45762557 
-0.3437586 0.45287785 0.822637 
-0.5374121 0.8091951 0.2374692 
-0.77391964 0.5894397 0.2315369 
-0.59393007 0.28522304 0.75225997 
-0.66249096 0.3041792 0.68452966 
-0.52922845 0.30965015 0.78995824 
-0.7902745 0.06288836 0.6095173 
-0.42258275 0.45515117 0.78374815 
0.024685955 -0.056682274 0.9980871 
-0.34706256 -0.10761596 0.93164724 
-0.73719984 -0.14880456 0.6590855 
-0.25904816 -0.002007974 0.9658624 
-0.39189327 -0.6279408 0.67239136 
-0.48548758 -0.07159691 0.87130696 
-0.5809681 -0.1546474 0.7990996 
-0.7906629 0.051076584 0.61011755 
-0.0004230511 0.68314475 0.7302829 
0.06621134 0.24557514 0.9671137 
-0.57220465 -0.3818502 0.7257908 
-0.030402899 0.65196353 0.75764054 
0.24945916 -0.075299844 0.9654534 
0.89936745 0.34453714 0.26913244 
0.43101907 0.9019625 -0.026193965 
0.007928486 0.4104015 0.91187054 
0.2839337 -0.24546418 0.92689216 
-0.11450281 0.015387509 0.99330384 
-0.49681985 -0.30982026 0.8106673 
0.30599073 0.2293762 0.92398936 
-0.16502422 -0.26531422 0.9499344 
0.05109962 0.03752371 0.9979884 
-0.7501524 0.06770434 0.6577899 
-0.18486796 0.4121517 0.892163 
-0.46079278 0.67703223 0.57384443 
-0.23006631 0.8880637 0.39801052 
-0.122408345 0.44272012 0.88826525 
0.24282396 0.8679003 0.43334243 
0.37560108 -0.37133798 0.84913605 
0.11428974 0.19383517 0.974354 
0.18697165 0.4833004 0.8552557 
0.10713648 0.12168077 0.98677033 
-0.29208738 -0.61164576 0.7352378 
0.22258957 -0.17401491 0.95925635 
-0.1413402 -0.22950098 0.9629913 
0.43409884 0.06888458 0.8982279 
-0.11395256 0.6913324 0.7134945 
0.15501088 0.5190247 0.8405862 
-0.14432374 0.19594948 0.96993536 
-0.46752235 0.76711076 0.43927664 
0.22421423 0.69447905 0.68368626 
0.9597019 -0.18501021 0.21152695 
0.85295033 -0.011624016 0.5218626 
0.6169931 0.03671912 0.7861115 
0.2685904 -0.28670946 0.91959614 
-0.21717168 0.03725019 0.97542244 
-0.26922426 -0.14027727 0.9528067 
-0.30577293 0.34861726 0.8859847 
-0.5582438 0.499908 0.66216004 
0.12923038 0.5359155 0.8343226 
0.39959696 0.55140877 0.7323051 
0.220161 0.5875605 0.7786539 
-0.17106609 0.28577715 0.942904 
0.38112712 -0.018454868 0.9243384 
0.08045283 0.5189006 0.85104024 
0.5811023 0.15422198 0.79908425 
0.23741104 0.6037705 0.76098436 
-0.07753728 0.524542 0.8478465 
0.3382158 0.16504738 0.9264823 