# OOMMF: rectangular mesh v1.0
# Segment count: 1
# Begin: Segment
# Begin: Header
# Desc: Time (s) :  2.8000000000000003e-08
# Title: m
# meshtype: rectangular
# meshunit: m
# xbase: 2e-09
# ybase: 2e-09
# zbase: 5e-10
# xstepsize: 4e-09
# ystepsize: 4e-09
# zstepsize: 1e-09
# xmin: 0
# ymin: 0
# zmin: 0
# xmax: 1.024e-06
# ymax: 1.024e-06
# zmax: 1e-09
# xnodes: 256
# ynodes: 256
# znodes: 1
# ValueRangeMinMag: 1e-08
# ValueRangeMaxMag: 1
# valueunit: 
# valuemultiplier: 1
# End: Header
# Begin: Data Text
0.55673593 -0.0678785 -0.82791156 
0.9621913 0.26046175 -0.07967259 
-0.5359232 0.30116722 0.78872347 
-0.5332166 0.6415292 0.5514712 
-0.5064678 0.74956673 0.4261926 
0.03994887 0.9762001 0.21316086 
-0.8272299 0.2902098 0.48111224 
-0.37916407 0.9188375 0.10941857 
-0.14615153 0.9765686 0.15796699 
-0.3924333 0.8765839 0.27856222 
0.73781806 -0.583658 0.3390692 
0.8125138 -0.40252435 0.421658 
0.59018177 -0.6354236 0.49791813 
0.71962094 -0.30965146 0.6214996 
0.5039189 0.5490463 0.6667939 
0.41240364 0.9034877 -0.11676237 
0.053282224 0.99821496 0.026982239 
-0.4123859 0.8582478 0.3055302 
-0.34039906 0.934695 0.102341756 
0.3927361 0.9014999 0.18181401 
0.59319305 0.7350266 -0.32841736 
0.10810566 0.95221907 -0.28564334 
0.32868817 0.91062456 0.25045374 
0.24379243 0.7988617 0.54989576 
0.00044339936 0.9055136 0.4243171 
-0.32339287 0.73141724 0.60037154 
-0.4807756 0.21206927 0.85081226 
0.21950598 0.80270267 0.55451393 
-0.0592224 -0.085438855 0.99458176 
-0.17589451 0.5347776 0.8264829 
0.023381056 -0.24495144 0.96925336 
-0.14538413 0.8117968 0.56555253 
-0.5338055 0.43768218 0.7235234 
-0.33656326 -0.099991865 0.936337 
-0.3499407 0.32442725 0.8787995 
0.45949164 0.80633557 0.37241164 
0.99944293 0.033303194 0.0021868611 
-0.009734312 0.5313295 0.84710944 
-0.3397259 0.06774523 0.9380815 
-0.46313775 0.3064483 0.8316207 
-0.024263283 0.64064413 0.7674545 
-0.1304888 0.13080284 0.9827835 
0.527834 -0.045387056 0.8481341 
-0.25147447 0.42905867 0.86756516 
-0.6073982 0.024762494 0.79401153 
-0.4451298 -0.86916906 0.21541739 
-0.4476556 -0.044166174 0.8931147 
-0.8851883 -0.021337472 0.46474338 
0.4735962 -0.0324982 0.88014233 
-0.7807418 0.06840479 0.62109816 
0.53770465 0.7663203 0.35160646 
0.6552388 0.48761916 0.57696587 
0.6405247 0.73389244 0.22611943 
0.07763829 0.98814183 0.13246924 
-0.49066904 0.7965143 -0.35328305 
0.35186726 0.45205954 -0.81965345 
0.66936725 0.17354721 -0.7223773 
0.9295308 0.36157948 0.072338276 
0.94017655 -0.009654002 0.34055087 
0.79301834 0.30624077 0.52662957 
0.69175124 0.35060918 0.6313109 
-0.22573648 0.38386106 0.89537364 
-0.48191696 -0.009142639 0.8761693 
-0.6685886 0.723188 -0.17317185 
-0.4720385 0.87445164 -0.111866154 
0.22304483 0.9455347 -0.23709768 
0.08049454 0.84222853 -0.5330777 
0.43774307 0.7557624 -0.48703614 
0.65865993 0.57682514 0.48315617 
0.44597578 0.63153106 0.6342509 
-0.58253855 0.8109336 0.05509598 
-0.35265243 -0.11514387 0.9286433 
0.041052736 -0.5220518 0.85192525 
0.17530018 -0.15144898 0.9727966 
-0.5322094 0.79580927 -0.28886127 
-0.7266298 0.35671064 0.58716834 
-0.5015134 0.13124068 0.8551375 
0.15839978 0.7299294 0.66491544 
-0.055658195 0.9060868 0.41941494 
0.014551482 0.6999595 0.7140343 
0.08871981 0.9195546 0.3828161 
-0.28963444 0.5981816 0.7471885 
-0.4891026 0.855037 0.1723089 
0.41283038 0.91080344 0.0028423124 
0.76016796 0.61766416 -0.20158294 
0.49467134 0.7745036 0.39426452 
0.7784975 0.39013052 0.49167052 
0.37026235 0.33937493 0.86471415 
0.3389912 0.48788077 0.8043988 
0.007507935 0.9981678 0.060039394 
-0.4766744 0.34008113 0.81063336 
-0.7623567 0.106234156 0.63837814 
-0.7070887 0.13474189 0.69416875 
-0.123815194 0.09549963 0.9876992 
-0.64340824 0.03959956 0.7644984 
0.3059061 0.9166104 0.2573847 
0.24101229 0.9575063 0.15841317 
0.12515356 0.93993413 0.3175855 
-0.0666556 0.58819085 0.80597055 
-0.3844918 0.66321087 0.6421195 
-0.22405107 0.8721773 0.4348655 
-0.88923335 0.43960485 0.1265376 
-0.7055072 0.46908692 0.53124106 
-0.37520143 0.9218392 -0.09714117 
0.08915832 0.91607195 0.3909769 
-0.2737739 0.8156467 -0.5096746 
0.29809204 0.79403675 -0.5297611 
0.565567 0.6449095 0.51402897 
0.6541643 0.3214556 0.6846426 
0.006635286 0.42126444 0.9069137 
0.4887603 0.4585712 0.74217653 
0.3075228 0.3669604 0.87793505 
0.34823027 -0.0848562 0.9335605 
0.4219076 -0.091289215 0.9020313 
0.4434895 0.8464409 0.29471132 
-0.11097747 0.93003047 -0.35032484 
-0.6751686 0.38854814 -0.6270389 
0.27784452 0.9109293 -0.3049759 
-0.13881218 0.25534925 0.9568323 
0.3695193 0.7119144 0.59718794 
0.65039295 0.71462435 0.25749004 
0.5809564 0.7634931 0.28207812 
0.30876872 0.58545834 0.74960023 
-0.17128658 0.10980333 0.97908336 
0.3396094 -0.124527894 0.9322866 
0.53994155 0.06404842 0.8392622 
0.5448504 0.21704061 0.8099578 
0.30712578 0.32557896 0.89424384 
0.15233202 0.64890146 0.74546754 
0.2338462 0.7300364 0.642155 
0.052627042 0.5675561 0.82165104 
-0.72643596 -0.09473127 0.6806738 
-0.9785705 -0.09236717 0.1840327 
-0.49074033 0.15051514 0.85820705 
-0.5387622 0.061751977 0.84019166 
-0.22834793 0.2174748 0.9489795 
-0.21272662 0.45784655 0.86320573 
-0.5462549 0.72111964 0.42613634 
0.5713359 0.4521472 0.68493676 
-0.08055761 0.23524067 0.96859294 
0.020721612 0.06453642 0.9977003 
-0.11519072 -0.11215454 0.9869917 
-0.7052441 0.68535614 0.1814328 
0.32188663 0.2979455 0.8986755 
-0.38995314 0.5855083 0.71071553 
-0.31513464 0.73951477 0.5948177 
-0.31391925 0.36671677 0.87577033 
0.017365957 0.5354773 0.8443711 
0.46291298 -0.20456007 0.8624772 
0.37761736 0.52405256 0.7633964 
0.50018775 0.82565 0.26098752 
-0.12613472 0.52682793 0.84056073 
0.6661939 0.5253448 0.52933794 
-0.18242098 -0.15373947 0.97112656 
-0.7946409 -0.105850115 0.59778064 
-0.77027124 -0.49505866 0.4019941 
-0.88878137 -0.112533115 0.44430175 
-0.81956804 -0.4587811 0.34326127 
-0.89294577 -0.44228238 0.083870165 
-0.67160404 0.72775143 0.13901775 
-0.3812401 0.7989067 -0.46519265 
0.261917 0.7232204 -0.63902414 
0.42233202 0.8693715 -0.25657162 
0.061578177 0.99726534 0.04086819 
-0.03410061 0.4838165 -0.8745049 
0.38305563 0.51979023 -0.76360095 
-0.57318515 0.29131356 0.76589507 
0.01001876 -0.0031378164 0.9999449 
-0.12877847 0.3950671 0.9095813 
0.29290965 0.40067795 0.86813664 
-0.21795748 0.4485322 0.86678344 
0.16351874 0.49240452 0.8548681 
-0.19289467 0.20281677 0.9600298 
0.27339163 0.6446329 0.7139366 
-0.5660656 0.71484125 0.41057506 
0.08225494 0.25515965 0.96339387 
-0.68821543 -0.4628875 0.5586545 
-0.49888694 -0.10482119 0.86030483 
-0.2702798 0.43107393 0.8608856 
-0.5000505 0.59472305 0.62948716 
0.16575062 0.341772 0.9250507 
-0.32088622 0.54814607 0.77237815 
-0.08978906 0.51134485 0.8546722 
-0.65067106 -0.3702943 0.662955 
0.2775619 0.51782024 0.80921054 
0.56488854 0.00764907 0.8251318 
-0.42628935 -0.18367292 0.88574356 
-0.8823277 0.4656234 -0.06850293 
-0.45653996 -0.40897927 -0.7901312 
0.42807385 -0.37711826 -0.8213006 
0.8067104 -0.58923554 -0.044942573 
0.8356922 -0.09468717 0.5409741 
0.9133037 0.102478065 0.39417592 
-0.34294105 0.80096424 0.4907626 
-0.830717 -0.092754096 0.5489134 
-0.9189326 0.33827174 -0.20281789 
-0.6124157 0.66089064 -0.43378654 
-0.61856747 0.468431 0.6308303 
-0.2866931 -0.21690184 0.9331456 
-0.8186049 0.5739786 0.020850737 
-0.6465159 0.69962347 -0.30421075 
-0.20890367 0.894526 -0.39519924 
-0.28085572 0.48910135 -0.82577235 
-0.025644159 0.45299223 -0.89114565 
0.037630115 0.8154918 -0.5775441 
0.70145535 0.704483 -0.10800174 
0.94751996 -0.302159 -0.1044311 
0.9745816 0.15036044 0.16608012 
0.96151155 -0.2636615 0.077319525 
0.54936934 0.83481055 -0.035840727 
0.53180337 0.59283566 0.60475713 
0.36658075 0.25732413 0.8940934 
-0.3350687 0.6045142 0.7226975 
0.29506597 0.23265208 0.9267196 
0.6969379 0.53084415 0.4821639 
-0.28446785 0.3692895 0.8847053 
0.23743962 0.26378894 0.9348999 
-0.0765673 -0.049686067 0.9958257 
-0.23364675 -0.145615 0.9613561 
-0.12413411 -0.78421354 0.60794735 
0.9854559 0.06976039 0.15495254 
0.99574405 -0.0381451 -0.083896905 
0.9834881 0.10810391 0.14513732 
0.40183705 0.89629185 -0.1875846 
0.95602536 0.28773856 -0.0567644 
0.86693436 0.36506537 0.33934096 
0.74854344 0.16905414 0.64117354 
0.6968967 0.3634704 0.6182429 
0.2584317 0.8821271 0.3937829 
0.020906903 0.99945116 0.025699817 
-0.40854147 0.90594536 -0.11116193 
-0.279396 0.5933148 0.75492746 
-0.1979883 0.01818221 0.98003584 
-0.4744668 0.8145072 0.33385548 
-0.04277922 0.5697846 0.82067996 
0.23838396 -0.1361713 0.96157706 
-0.3608973 0.5058335 0.7835085 
-0.71078795 0.46067813 0.5315601 
0.004485811 0.96180165 0.27371052 
-0.2658696 0.63545257 0.7249231 
0.33057994 0.5317173 0.7797395 
-0.26823357 0.36272132 0.8924596 
-0.25171584 0.6487502 0.71816605 
0.23855351 0.15325367 0.95896065 
-0.63200855 0.5341722 0.56144935 
-0.60984 0.7791703 -0.14487572 
-0.22315025 0.8405004 0.4937238 
0.35712665 0.6684745 0.6523822 
0.3299007 0.24367431 0.9120243 
0.13788271 0.19473602 0.971116 
0.46765545 -0.17501837 0.8664105 
-0.10231097 -0.0750404 0.99191815 
0.24204706 -0.3062588 0.92066216 
0.7396211 -0.31832594 0.5929834 
0.66524273 -0.5397846 0.51583415 
0.5835091 -0.116845995 0.8036568 
0.74798214 0.61915416 0.23910448 
0.75534934 0.64684606 0.105060436 
0.6509166 -0.0771615 0.7552177 
0.85042197 0.2549542 0.46019664 
0.3642681 0.22478166 0.9037599 
-0.2754965 0.38852617 0.8792889 
-0.66762996 0.0048515047 0.7444775 
-0.2586752 0.32692948 0.90895784 
-0.1636853 0.98368824 0.074596204 
0.054340705 0.5437337 -0.83749676 
0.49713126 -0.740746 -0.45183626 
0.55134654 -0.8301875 0.082497284 
0.049831517 -0.19207157 0.980115 
-0.24576677 -0.22802372 0.9421273 
-0.40686807 0.23652045 0.8823359 
-0.27206483 0.3411314 0.8997834 
0.15273698 0.59071404 0.7922932 
-0.4257292 0.7657291 0.48209307 
0.007864219 0.94387645 0.33020523 
0.43484098 0.86889774 0.2364956 
0.4462976 0.8565449 0.2591322 
0.3148957 0.78411335 0.53479636 
0.53349745 0.13556275 0.83486724 
0.42541912 -0.56972283 0.70316035 
0.15033272 0.1998764 0.96821976 
0.288571 0.45654523 0.8416016 
-0.48163867 0.07328453 0.8733005 
0.11502442 0.59863544 0.7927201 
0.018995417 -0.046372864 0.99874365 
0.4751093 0.409025 0.7790826 
-0.01939209 0.97481614 0.22216535 
0.0777845 0.6821711 0.7270435 
-0.009035811 0.40310928 0.9151073 
-0.5751337 0.49337658 0.6525341 
-0.17061077 0.4352866 0.88397825 
0.011039036 0.61786985 0.7862029 
0.45142072 0.42776963 0.7830917 
0.30251274 -0.04118088 0.9522553 
-0.17244813 -0.124494754 0.9771197 
0.4544794 0.46495637 0.75977904 
0.18213837 -0.14461347 0.97258043 
0.06744932 -0.3339777 0.9401647 
-0.1774394 0.07787682 0.98104566 
0.07228555 -0.39654103 0.91516674 
-0.15910245 -0.4271223 0.89008594 
-0.41889176 -0.4110291 0.809682 
-0.8012892 0.041368674 0.5968453 
-0.61553925 -0.5433298 0.57088023 
-0.3580682 -0.39893207 0.8441803 
0.15842374 0.054047864 0.98589087 
0.55275565 0.23355354 0.7999463 
0.6132992 0.20232002 0.7634991 
0.048927523 0.6790613 0.73244923 
0.029348517 0.9928389 0.1158004 
-0.41076854 0.8698976 -0.27303362 
0.29619932 0.46372637 -0.8349993 
0.55474585 0.5066852 -0.65994483 
0.77110326 0.63463664 -0.051344357 
0.5430043 0.30369505 0.7828893 
0.39042944 0.30731776 0.8678252 
-0.4948589 0.25305164 0.83131194 
-0.45431998 0.87104875 0.18672846 
-0.8492998 0.28541213 -0.44410565 
-0.8230481 0.5582834 -0.10445831 
-0.6962227 0.70986253 0.106626175 
0.16710809 0.9642662 -0.20558608 
-0.31392384 0.88912904 0.33301863 
0.59864104 0.67055416 0.43816212 
0.09149846 0.53681386 0.8387247 
0.23538673 0.85783505 0.4568502 
-0.56745076 0.17231818 0.80517465 
-0.6199605 0.05265227 0.7828645 
-0.39094782 0.0063792206 0.9203908 
0.037756935 -0.098918475 0.994379 
-0.15613705 0.9337388 0.32210737 
-0.98606294 -0.04125001 0.16117801 
-0.4809741 -0.4225226 0.7682048 
-0.14998437 0.38610324 0.9101808 
0.07576589 0.80505466 0.5883423 
-0.10805045 0.70880955 0.6970755 
-0.14443965 0.70781326 0.691475 
-0.5887881 0.32374278 0.7406209 
-0.3798746 0.8240876 0.4202084 
-0.086991325 0.8319202 0.54803413 
-0.18981847 0.970895 -0.1460545 
0.123317674 0.99138564 0.0441284 
0.2872261 0.23637459 0.92823935 
0.42520678 0.43482512 0.79380494 
0.46523932 0.6599678 0.5899109 
0.040664006 0.15119961 0.9876666 
-0.36103803 0.7980389 0.48247844 
-0.62751067 -0.13657026 0.766537 
-0.22853023 -0.0061070756 0.97351766 
0.057048146 -0.4305599 0.9007574 
-0.37549567 -0.40891477 0.8317402 
0.32080936 0.24928695 0.91374916 
0.08923837 0.40660796 0.909234 
0.16572359 0.64768547 0.74366605 
0.12812296 0.71044797 0.69198865 
0.08139037 0.8828453 0.46255797 
-0.065059796 0.96537226 0.25263384 
0.23510168 0.5005755 0.8331576 
0.19270438 -0.11200758 0.97484326 
0.54810464 0.67510945 0.49376982 
0.44115987 0.57064503 0.69263434 
0.21801127 0.84917283 0.4810162 
0.08527075 0.9928139 0.08396163 
0.57071793 0.12625967 0.8113813 
0.49229187 0.062953934 0.86815065 
0.8760675 -0.06412913 0.47790492 
0.92296934 0.2197665 0.31595945 
0.85712075 -0.1850296 0.480737 
0.8717767 0.0031056723 0.48989382 
-0.34780467 0.6802365 0.6452211 
-0.19457202 0.96812963 -0.15769222 
-0.20038027 0.9776054 0.0643077 
-0.30086285 0.75766945 0.57915336 
-0.41468057 0.8128827 0.40897667 
-0.17147526 0.41984722 0.8912489 
0.35255927 0.075494796 0.93273926 
-0.09689208 0.69881135 0.70871335 
0.12340887 0.5955209 0.7938043 
0.10806626 0.036652975 0.99346787 
0.3640382 0.51758665 0.7743257 
-0.29243284 0.42128152 0.85848993 
0.48856562 -0.20604119 0.84785056 
0.23137847 0.4716854 0.85086834 
0.17414586 0.7706419 0.6130125 
-0.06645364 -0.1932945 0.9788878 
0.08726114 0.2586083 0.96203285 
0.41665906 -0.3576899 0.8357352 
-0.51644427 -0.46617192 0.7183099 
-0.38696054 0.29607466 0.8732705 
0.0983065 0.10125986 0.98999107 
-0.33872172 -0.2702638 0.9012354 
-0.76879895 0.3688965 0.5223634 
0.5177492 0.11407699 0.8478928 
0.14961572 0.6759295 0.72161937 
0.54834265 0.81856245 0.17110187 
0.062427144 -0.3206919 0.94512415 
-0.2800527 -0.26091057 0.92384857 
-0.4363834 -0.6780892 0.5914091 
-0.5457012 0.8334192 0.08730799 
0.07275113 0.50312537 0.86114585 
-0.0005710333 -0.51115555 0.85948807 
-0.4074696 0.83776426 0.36348245 
-0.4023333 0.04364766 0.91445225 
-0.27725172 -0.067287795 0.9584382 
0.09712741 0.32023284 0.9423467 
0.17288397 0.59630275 0.7839223 
-0.57615113 0.057145394 0.81534314 
0.32270178 0.07104659 0.9438305 
0.58414364 0.3831361 0.71552986 
0.40812206 0.5363735 0.7387421 
-0.7417123 0.59098595 0.31717268 
-0.99775165 0.0008712757 0.06701423 
-0.8889616 0.3839111 -0.24971907 
-0.9248109 -0.21644254 0.31285366 
-0.78753513 -0.0075027347 0.6162241 
-0.87719154 -0.47817537 -0.043399546 
-0.015819186 0.9752318 -0.22061905 
0.038802817 0.76971024 -0.6372131 
-0.08727064 0.76956457 -0.63257754 
0.090115525 0.93476504 -0.34364754 
0.6637209 0.66424215 -0.3438852 
0.5694288 0.8202922 -0.053588755 
0.2666131 0.79023635 0.5517645 
-0.021165982 -0.55790967 0.8296318 
0.55713385 0.81884384 0.13819082 
0.6594745 -0.34589782 0.6674191 
-0.0065566343 0.22644264 0.9740025 
0.11332207 0.083781004 0.9900197 
0.46891424 0.43217728 0.7702871 
-0.31413853 0.64461267 0.6969875 
-0.04877337 0.44286716 0.8952597 
-0.33346146 0.13940774 0.93239963 
0.09138171 -0.33443004 0.93797976 
-0.7159331 0.14822437 0.6822532 
-0.83814645 -0.0029848833 0.54543716 
-0.47656944 0.7977031 0.3695287 
-0.120026216 0.82735986 0.5486978 
0.20769638 0.49657866 0.8427764 
-0.06761392 0.18809614 0.97982055 
-0.033311337 0.6118096 0.7903034 
0.011404947 0.37717196 0.926073 
0.4335088 -0.04128448 0.90020317 
-0.0054328092 -0.29514417 0.9554373 
-0.7968115 0.25495645 0.54780346 
-0.6831487 -0.1648994 -0.71141833 
0.08494458 0.047286827 -0.99526304 
0.4606668 0.7345996 -0.49814606 
0.6935599 0.6953083 0.18847033 
0.80210644 0.5414311 0.25194752 
-0.1352931 0.4808094 0.8663246 
-0.2521783 -0.10371185 0.962107 
-0.57491684 0.12408008 0.8087489 
-0.49570403 0.86617893 0.0633368 
-0.088156834 0.49963248 0.86174 
-0.66699964 0.5647051 0.48602444 
-0.59736675 0.771911 -0.21750037 
-0.35759738 0.7284614 -0.5843528 
0.15264414 0.9763123 0.15334332 
0.6087765 0.7931451 -0.01766187 
-0.3020771 0.9510265 0.06555881 
-0.060040772 0.92090595 -0.3851328 
0.36077946 0.6904049 -0.6270402 
0.85652155 0.2436357 -0.45498633 
0.79586816 0.48911667 0.35687345 
0.22163083 0.9184796 0.3275286 
0.10086753 0.59318 0.79872614 
0.3222842 0.44443366 0.83583 
0.20683023 0.16946279 0.9635889 
-0.25321177 0.098836094 0.9623489 
0.20898898 0.23016742 0.95044553 
0.1891234 -0.15038341 0.97036964 
-0.80510044 -0.15711144 0.57195234 
0.27646923 0.51042986 0.8142643 
-0.12430792 -0.2849559 0.950446 
-0.056479223 -0.20453835 0.97722787 
0.37733865 -0.15559876 0.91291004 
0.43841323 -0.03204312 0.89820224 
-0.6170032 0.59805244 0.51150787 
-0.19577625 0.7564343 0.62408227 
0.4327814 0.90122145 -0.022367062 
0.45152736 0.603191 0.6574828 
0.45220375 0.20393574 0.86828685 
0.16754116 0.07259448 0.9831887 
0.71345484 0.44139197 0.5442016 
0.3744724 0.5735625 0.7285578 
-0.18255803 0.6877641 0.70260453 
0.33370098 0.941702 -0.042907756 
0.030481253 0.636197 0.77092445 
0.563911 0.5237135 0.6385362 
0.36315992 0.7742848 0.51826453 
0.23351409 0.29737097 0.9257656 
0.52896124 0.20715868 0.82297343 
0.43999243 0.43255484 0.78695816 
0.11086181 -0.11574023 0.9870734 
-0.22002006 0.025151888 0.97517115 
-0.61395323 -0.021081185 0.7890609 
-0.17623565 0.52676016 0.8315436 
-0.17897384 0.08119923 0.9804974 
-0.10607705 0.21869211 0.9700111 
-0.023680365 0.27166924 0.9620994 
-0.76147884 -0.055777166 0.64578557 
0.16391365 0.5250572 0.8351331 
0.11306421 0.084763505 0.9899655 
-0.18083411 0.33902386 0.9232345 
0.14312907 -0.46343043 0.8744977 
0.45462048 -0.5382899 0.70962256 
0.2767218 0.24999976 0.92786056 
0.1904681 0.12190221 0.97409534 
-0.012979363 0.12920429 0.99153304 
0.20144331 0.60550815 0.7699224 
-0.021635182 0.600436 0.7993801 
-0.40897572 0.6462169 0.64431566 
0.7964095 0.5457047 0.26064962 
0.84926033 0.10661952 0.51709706 
0.7571837 0.018639123 0.65293604 
0.8280068 -0.022202015 0.5602785 
0.6936487 0.09535164 0.7139745 
0.5531323 -0.005920811 0.8330724 
0.006017523 -0.14552777 0.9893359 
-0.3360714 0.09557751 0.93697447 
-0.8317928 -0.36502793 0.41818124 
0.057528283 -0.78156793 -0.621162 
0.45203635 -0.82842344 -0.3307233 
0.89764345 -0.40918303 0.1637245 
-0.132644 0.023704667 0.9908803 
0.22616139 -0.11054912 0.96779644 
-0.009395327 -0.27734265 0.9607251 
-0.50212616 -0.28665775 0.8159024 
-0.03228287 0.5197505 0.853708 
-0.24646945 0.7581581 0.60369617 
-0.15982111 0.54637897 0.82214797 
-0.24764116 0.9033795 0.3501135 
0.4187329 0.7579846 0.5001223 
0.43784612 0.77927893 0.44834712 
0.85359246 0.25925946 -0.45184588 
0.26691273 -0.047313645 0.96255857 
-0.091061525 0.021380754 0.9956158 
0.3634563 0.5151579 0.7762164 
-0.07163424 0.5962842 0.7995709 
-0.058246806 0.3708878 0.92684925 
-0.26591468 -0.1392588 0.9538849 
-0.018281015 0.800302 0.5993184 
-0.27646104 0.33358055 0.90127313 
-0.054562114 -0.08029486 0.99527675 
-0.18069226 -0.24400811 0.9527909 
-0.4090755 0.4335367 0.8029342 
-0.085556574 0.18617035 0.9787854 
0.020484181 0.29060382 0.95662427 
0.0175724 0.6126408 0.7901662 
-0.12613843 0.20469342 0.97066456 
-0.07082057 -0.43592972 0.89719003 
0.3036829 -0.3544377 0.8843928 
-0.14036676 -0.37436068 0.9165977 
-0.22828965 -0.62777805 0.74416304 
-0.031279694 -0.29285848 0.9556441 
-0.060986303 -0.17994878 0.9817836 
-0.1995719 -0.4607732 0.8647885 
-0.59742224 -0.29232663 0.7467475 
-0.55091965 -0.33712098 0.76343775 
-0.5165075 0.1431838 0.84422654 
-0.75017667 0.08095459 0.6562631 
-0.011703414 0.39288205 0.9195145 
0.6187679 0.57887423 0.5310658 
0.88665223 -0.05478785 0.45917988 
0.9106554 0.37403136 0.17552032 
0.5663763 -0.01834028 0.8239427 
0.14106366 0.8534454 0.50172913 
-0.023412418 0.9813298 0.19090241 
0.7424559 0.5483172 0.38484755 
0.4756923 0.28546712 0.83200085 
0.50467634 0.13742642 0.8523002 
0.5279815 0.07313583 0.846101 
0.15955244 0.4550508 0.87605464 
-0.14502853 0.7528671 0.6419954 
-0.7055741 0.63319343 0.31816873 
-0.9058685 -0.035308383 0.4220849 
-0.7732201 0.59458095 0.22046353 
0.00868115 0.81120855 0.58469266 
-0.1706464 0.6957865 0.6976827 
0.017607005 0.40949312 0.91214335 
-0.21700849 0.01952926 0.9759744 
-0.29310396 0.011995837 0.9560054 
0.19774996 0.15826552 0.9673919 
-0.23875482 0.45827553 0.85614234 
-0.565598 0.5430388 0.6206511 
-0.38846302 0.005891748 0.92144555 
-0.069964446 0.4978698 0.86442506 
-0.60584766 -0.030986972 0.79497695 
-0.21420549 0.1798959 0.9600799 
-0.033542942 0.048110776 0.9982787 
0.40904364 0.2976075 0.8626199 
-0.20452689 0.33137888 0.9210628 
-0.07834873 0.83112156 0.5505437 
-0.11563592 0.7526832 0.6481485 
-0.09331537 0.5443509 0.83365124 
0.43826592 0.75410783 0.4891262 
-0.54862434 0.7788247 0.30404496 
0.40085056 0.89967364 0.17293452 
-0.17570266 0.27520418 0.94519377 
0.2340329 0.46164265 0.855637 
0.57536423 0.6110299 0.5436898 
0.900383 0.059168424 0.43105623 
0.1787072 0.72628325 0.66375935 
-0.06910338 -0.11274294 0.9912184 
-0.45014033 -0.20787817 0.86842406 
0.0033757766 0.2722689 0.9622153 
0.10189687 0.16502512 0.9810116 
-0.098536454 -0.18733744 0.977341 
0.45241752 0.6429656 0.61799157 
-0.1786312 0.5207148 0.83483356 
-0.55072063 0.012202737 0.8346005 
-0.6695657 0.25696212 0.6968877 
-0.11665944 0.9269335 0.35662988 
-0.07491083 0.8667302 0.49311984 
-0.576104 0.5071508 0.64101666 
0.6978908 0.54572225 0.46382713 
0.039833587 0.31345916 0.9487659 
0.25227472 0.7405693 0.62282795 
-0.008393617 0.7936709 0.6082894 
0.3014015 -0.06815568 0.9510583 
0.83255607 -0.29075727 0.47149843 
0.59399337 0.414781 0.6892958 
0.3075721 0.7450359 0.59187925 
0.57360816 -0.031981733 0.81850535 
0.43165627 0.22418818 0.8737349 
0.21028462 0.20209 0.956525 
0.07590581 0.99453235 0.071720116 
0.017490456 0.9746761 0.2229364 
-0.36406487 0.8141271 0.45238683 
-0.33596873 0.62143624 0.7077726 
0.1761075 0.0020549481 0.9843688 
0.020449055 -0.12925322 0.9914008 
0.028652446 0.033022698 0.9990439 
-0.8436133 0.44882026 0.29474917 
-0.063679576 -0.19504568 0.9787248 
-0.4749204 0.11167734 0.872914 
-0.30077174 -0.10495179 0.94790375 
-0.3909785 -0.092127785 0.9157775 
-0.056357455 0.7339473 0.6768644 
0.24918753 0.08921251 0.9643375 
-0.50470376 0.21969624 0.8348698 
0.57674605 0.6198212 0.53215206 
0.30421552 0.09707749 0.94764394 
-0.22857471 0.5308365 0.81606764 
-0.20351574 -0.065631226 0.97686946 
0.19993626 0.048527405 0.97860646 
0.15860274 -0.2755845 0.94810253 
0.036447342 0.098651 0.99445444 
-0.08659351 0.34030175 0.9363206 
-0.0628486 0.51640373 0.854036 
0.7090461 0.5360356 0.4581698 
0.5420629 0.1778118 0.8213105 
0.20677486 0.61175823 0.76354176 
0.5314071 0.3291601 0.7805512 
-0.38770375 0.32383236 0.86302865 
-0.42651343 0.09853365 0.89909816 
0.096791714 0.16846648 0.9809436 
-0.3789012 0.09373379 0.92067796 
-0.2362066 -0.03855591 0.9709376 
-0.8088966 0.0645979 0.5843916 
-0.010808469 0.6437514 0.7651584 
0.28677636 0.15797053 0.9448834 
-0.47665882 0.56929886 0.6698472 
0.5679401 0.6310004 0.528472 
0.52463627 0.59743947 0.6064842 
0.21808352 0.47266167 0.85383284 
-0.8612868 0.26077476 0.43609813 
-0.9856287 -0.09313469 0.14093292 
-0.9893045 0.14125782 0.036372498 
-0.94502264 0.2001651 0.2585852 
-0.8570169 -0.13413452 0.497524 
-0.8714311 0.45611113 -0.18047315 
-0.6737653 0.7179844 -0.17475368 
-0.29326308 0.40658188 -0.8652676 
0.03363911 0.9906775 -0.13201022 
0.3008559 0.8869668 -0.35039353 
0.25049725 0.7189705 0.6483307 
0.13028322 0.7659755 0.6295299 
0.5895223 0.7931813 0.15273134 
0.52265596 0.47418886 0.7085025 
0.9049897 0.3546853 0.23493 
0.5983113 0.08335283 0.79691654 
0.10478333 -0.18195377 0.9777082 
0.04356457 -0.49590868 0.86728126 
0.26654738 -0.15998834 0.9504506 
0.36505327 0.42028508 0.8307206 
0.23770003 0.47288752 0.8484552 
-0.4665602 0.3973166 0.7902286 
0.19350016 0.378526 0.9051386 
-0.38012657 0.8135745 0.44000039 
-0.5002819 0.79412246 0.34509084 
0.12407208 0.8147804 0.5663383 
0.4410957 0.69552034 0.5671737 
0.0644375 0.21245475 0.975044 
-0.5323544 -0.21895622 0.8177146 
0.3691629 0.06337887 0.92720115 
0.5055418 0.5197331 0.6886982 
0.15079011 -0.1727756 0.97335035 
-0.48154002 0.0005433566 0.876424 
-0.63463795 0.2897429 0.71643823 
-0.791611 0.60981566 0.038432002 
0.12499025 0.7400003 0.66089106 
0.027352301 0.81811494 0.574404 
0.55574 0.3655111 0.74669594 
0.21328267 0.76041615 0.613415 
0.6779378 0.7270279 0.108769394 
0.49412698 0.34548643 0.79779553 
0.068100646 0.8584768 0.5083108 
-0.12025329 0.79642457 0.5926609 
0.2842751 0.39615136 0.87307036 
-0.0926213 0.32451636 0.9413344 
0.013065203 0.87614477 0.48187104 
-0.6072183 0.6603725 0.4418079 
0.4277677 0.7559142 0.4955891 
0.19794048 0.96743226 0.1577796 
0.36754072 0.73273814 0.5727204 
0.3484236 0.8953995 0.2772377 
0.26464406 0.96432775 0.0059588216 
0.47123745 0.7294792 -0.49577758 
0.74853677 0.6620647 0.036922004 
0.48321947 0.82415444 0.2954123 
0.116391115 0.6795388 0.7243482 
-0.30715853 0.66875213 0.67707044 
0.11592889 0.16962731 0.97866595 
0.1146629 0.3483128 0.93033904 
0.4739663 0.094115384 0.87549883 
0.13143513 0.19935378 0.9710731 
-0.09006266 0.26562035 0.9598618 
-0.10222137 0.22027738 0.9700663 
0.4681267 -0.18934764 0.86313665 
-0.033240262 0.46514538 0.88461 
-0.46782744 0.61628854 0.633503 
0.08414806 0.011308764 0.99638915 
0.12587968 -0.3063996 0.94354314 
-0.12792295 0.51783997 0.84585905 
-0.0015023298 0.95763385 0.2879847 
0.53705585 0.60552686 0.5872889 
-0.14330181 0.69899786 0.7006188 
-0.16342905 0.26731348 0.9496497 
0.47921145 0.57643473 0.66187567 
0.10304671 0.446793 0.88868296 
0.4734629 0.3545481 0.8063055 
0.595095 0.37367278 0.7114989 
0.46008012 0.28973168 0.83927464 
-0.22528325 0.53952605 0.8112701 
0.21702294 0.80261415 0.5556182 
0.619532 0.47625124 0.6239911 
0.5943394 0.41231424 0.6904765 
0.12178567 0.35067552 0.9285445 
-0.26796633 0.5808507 0.76863945 
-0.45966953 -0.10119312 0.8823061 
-0.4644091 0.12980841 0.87605596 
-0.5974035 0.37458423 0.709081 
-0.043078575 0.07301993 0.9963997 
-0.1338158 0.13174023 0.9822107 
-0.38189176 0.22343916 0.89679086 
-0.011776032 0.65416986 0.756256 
-0.3149508 0.37885237 0.8702166 
-0.07500408 0.1057697 0.99155796 
-0.08285924 0.019743804 0.9963657 
-0.31111306 -0.04435636 0.94933724 
-0.4201601 0.546853 0.7241667 
-0.31064442 -0.47734654 0.82197344 
0.20227842 0.19307236 0.96010756 
0.095041014 0.4946856 0.8638596 
0.33272046 0.6789227 0.654493 
0.15945269 0.26834407 0.9500349 
0.05522274 0.16078311 0.9854437 
0.114726014 0.24841003 0.96183705 
-0.33350447 -0.29761878 0.89453787 
0.023170806 -0.17524494 0.9842522 
0.6285111 -0.41848305 0.65562624 
0.5127943 -0.46060866 0.7244872 
0.4463959 -0.3008062 0.8427612 
0.19966154 -0.16457401 0.96594554 
0.02662412 -0.34080264 0.9397579 
-0.7816178 0.086957864 0.61766654 
-0.103590555 -0.9018174 0.41951695 
0.5963818 -0.78953546 -0.14478478 
0.64064217 -0.3920485 0.66020876 
0.50027555 0.027013157 0.86544484 
0.5772937 0.18668401 0.7949095 
0.2351341 0.06971721 0.96945935 
-0.543814 -0.24004886 0.80414116 
0.34014806 -0.19782743 0.9193279 
-0.29088372 0.33797312 0.89507586 
-0.20676276 0.67509174 0.7081669 
0.15752697 0.67233706 0.72328985 
0.19398104 0.2662786 0.94417536 
0.68406725 0.14393803 0.71507615 
0.7822571 0.6202301 0.058210615 
0.3810042 -0.011278293 0.9245046 
-0.09812787 0.20967613 0.97283447 
0.3297227 0.31885287 0.8886033 
0.67187893 0.62900674 0.39106175 
0.06151253 0.773802 0.63043374 
-0.08680362 0.38186908 0.920131 
0.43672487 0.60794747 0.6630771 
0.23144318 0.42768613 0.87379557 
0.42601657 0.61044025 0.66773695 
0.18020092 0.08916798 0.9795799 
-0.24768694 0.29960355 0.9213517 
0.23297346 -0.16206788 0.9588834 
0.6872961 -0.45679766 0.56476545 
0.07540334 -0.07402725 0.9944015 
-0.3993562 0.17186277 0.90054315 
-0.25097522 0.03462955 0.96737397 
0.0044820635 -0.34315792 0.9392671 
0.37829348 -0.16823046 0.9102707 
-0.5442341 0.056012474 0.83706146 
-0.029205441 0.5086949 0.8604514 
-0.31697696 0.20321828 0.926406 
-0.7281855 -0.44166896 0.52409405 
-0.52726674 -0.4792779 0.70162845 
-0.4915585 -0.37818766 0.78443897 
-0.45885915 -0.6077404 0.6481512 
-0.80293435 -0.32755733 0.49799865 
-0.48817447 0.4260077 0.7617107 
-0.1952403 0.7747198 0.60140705 
0.03326284 0.5498673 0.8345895 
0.47769958 0.13215548 0.86852646 
0.66951025 0.28923842 0.68417627 
0.21199478 0.7140293 0.6672484 
0.65288264 0.37411186 0.65862334 
0.6177201 0.29095715 0.7305928 
0.18806873 -0.124962896 0.9741738 
0.13191724 -0.9832686 -0.12562147 
0.0614785 -0.7170192 0.6943371 
-0.28301516 -0.2833738 0.9162978 
-0.31137544 0.29217732 0.90425545 
-0.657944 0.42427233 0.6221758 
-0.7589756 0.36387715 0.53995335 
-0.2822965 0.47849315 0.83147645 
0.07023348 0.6092375 0.7898715 
-0.40052658 0.529477 0.7478186 
-0.050996296 -0.074744284 0.99589795 
-0.4840151 -0.03808312 0.8742306 
-0.1355369 -0.21243837 0.96772915 
0.7011668 -0.24508476 0.66955113 
0.84585476 0.0303598 0.53254867 
0.32417455 0.15390502 0.93339396 
0.18278486 0.10658328 0.97735864 
-0.19126655 0.22099271 0.9563364 
-0.22361903 -0.033041116 0.97411644 
0.10088699 0.0029745034 0.99489343 
0.3259856 -0.5668489 0.75658166 
0.65708894 0.13168316 0.7422222 
-0.16827208 -0.27740413 0.9459025 
0.12658334 0.35886505 0.92476624 
-0.17288639 0.7208998 0.67112875 
-0.34589764 0.9143404 -0.21056254 
-0.02298169 0.8098855 0.5861377 
0.25257996 0.923656 0.28820673 
-0.19993976 0.626064 0.7537028 
0.22217329 0.7143382 -0.6635963 
0.65485996 0.4753181 0.58756375 
-0.26100588 0.89610696 0.35898244 
0.20789982 0.08902402 0.9740905 
0.25359556 -0.056094762 0.96568257 
-0.26451162 0.21826893 0.9393574 
-0.018469155 0.042817403 0.9989122 
-0.21752846 0.113799565 0.9693973 
-0.16029838 -0.51368636 0.8428706 
-0.014678569 0.45297685 0.89140147 
0.45220023 0.60918707 0.6514647 
0.20179991 -0.016584277 0.97928643 
-0.265352 -0.2575002 0.9291297 
-0.3527509 0.078512706 0.9324177 
-0.26662663 0.31522048 0.91079444 
-0.5400875 0.5083615 0.6707266 
-0.46194476 0.020540453 0.8866708 
0.25635007 0.65136576 0.714148 