# OOMMF: rectangular mesh v1.0
# Segment count: 1
# Begin: Segment
# Begin: Header
# Desc: Time (s) :  4.000000000000001e-08
# Title: m
# meshtype: rectangular
# meshunit: m
# xbase: 2e-09
# ybase: 2e-09
# zbase: 5e-10
# xstepsize: 4e-09
# ystepsize: 4e-09
# zstepsize: 1e-09
# xmin: 0
# ymin: 0
# zmin: 0
# xmax: 1.024e-06
# ymax: 1.024e-06
# zmax: 1e-09
# xnodes: 256
# ynodes: 256
# znodes: 1
# ValueRangeMinMag: 1e-08
# ValueRangeMaxMag: 1
# valueunit: 
# valuemultiplier: 1
# End: Header
# Begin: Data Text
-0.050260182 0.81427586 0.5782982 
0.1308592 0.92029536 0.36869007 
0.42006242 0.39334 0.81782097 
0.46395415 0.38708875 0.7968117 
0.88398325 0.12828033 0.4495752 
0.19132575 -0.46301308 0.86545557 
0.15831105 -0.7774134 0.60874134 
0.2350096 -0.20368148 0.9504128 
0.09010682 -0.47173852 0.8771223 
0.6963629 0.36076382 0.6204259 
-0.0803533 0.60038024 0.79566765 
-0.04677999 0.74114984 0.6697078 
0.13362375 0.79841036 0.58709943 
0.42431453 0.750011 0.507386 
-0.0017666792 0.7461946 0.6657256 
-0.5568997 0.80672073 0.19764736 
-0.72634023 0.6766141 -0.12092671 
-0.9815107 0.1834861 -0.054495864 
-0.621887 -0.05814819 -0.78094524 
0.43633837 0.37435132 -0.81821144 
0.7334545 0.6068615 0.3062085 
0.64638335 0.3451846 0.68046767 
0.09241885 0.86491865 0.4933301 
0.026629118 0.73947614 0.67265594 
0.3199383 0.7426227 0.5883461 
0.15631571 0.051045958 0.98638725 
0.2611799 0.3451997 0.9014557 
0.28685394 -0.563088 0.7750141 
0.21891636 -0.5540038 0.80321574 
0.12213807 0.20035656 0.9720801 
0.6842669 0.30712813 0.6614009 
0.74769545 0.4864921 0.45197025 
-0.11908903 0.9247368 0.36149657 
0.79239106 0.59903646 0.115203775 
0.88892174 -0.2995615 0.34652707 
-0.08810934 0.15203537 0.9844399 
0.23642701 0.31658226 0.9186283 
-0.50638944 0.81711847 0.27547652 
-0.8948116 0.42042673 0.15017878 
-0.6176874 0.7052185 0.3480361 
-0.49753746 0.8086746 -0.31385034 
-0.38954294 0.7340156 -0.556307 
-0.5773462 0.80475354 -0.13799667 
-0.3459998 0.9149748 -0.20761797 
-0.30891013 0.68161774 0.66330373 
0.5513173 0.8286084 0.09724968 
0.20595826 0.6545853 0.7273922 
0.548616 0.7715247 0.3221338 
0.80094 0.39492756 0.45003054 
0.3128628 -0.05284701 0.94832706 
0.6953985 0.09935034 0.7117236 
0.0070662354 0.72334427 0.6904515 
-0.21854168 0.31405926 0.9239082 
0.1312007 0.8222034 0.5538663 
-0.24865189 0.72412467 0.6432852 
-0.59739393 0.621461 0.5068597 
-0.075844 0.6632651 0.74453145 
0.24753228 0.9479373 -0.20035687 
0.23687048 0.38060382 0.8938866 
0.6508633 0.6363493 0.41404894 
0.20854494 0.7816777 0.5877831 
0.22455715 0.6103057 0.75967175 
0.48658374 0.39872333 0.777339 
-0.072248794 0.3567288 0.9314101 
-0.36610016 0.26790765 0.89117694 
-0.75620973 0.5150177 0.4036132 
-0.5932672 0.16599576 0.78770524 
-0.70774263 -0.14703101 0.69100094 
-0.61629015 0.11979751 0.77835417 
-0.81162333 0.42659217 0.39910737 
-0.6890198 0.48504612 0.5384999 
-0.32532597 0.9455448 0.010398621 
-0.09056847 0.98714185 0.1317135 
0.4489198 0.8101631 0.37697062 
-0.4443056 0.8685465 0.2195895 
0.18376721 0.98145443 0.054560244 
-0.6615006 0.5850796 0.46914694 
-0.75289553 0.49986106 0.4281206 
-0.4753541 0.65812033 0.5838803 
0.098191634 0.7088472 0.69849414 
-0.1730703 0.8055445 0.56669635 
0.35530415 0.013616224 0.93465155 
-0.09734089 0.78283536 0.61456794 
0.05837013 0.44320077 0.89452004 
-0.40505573 0.43436447 0.80452317 
-0.83086175 0.32656354 0.450583 
-0.51115733 0.16858049 0.8427923 
0.2638033 0.6056931 0.7506955 
-0.0039273356 0.35569853 0.9345925 
-0.55175024 0.701805 0.45060125 
-0.39717945 0.7367655 0.5471975 
-0.5110055 0.859394 0.01775993 
0.2013483 0.8826071 0.42481026 
-0.33190918 0.6189315 0.7118709 
-0.6893014 0.638607 0.3421181 
-0.3652127 0.6319992 0.68351793 
-0.5601466 0.6182492 0.5513653 
-0.649167 0.19897637 0.7341598 
-0.8838147 0.2908256 0.36645883 
-0.8399095 0.51850826 0.16031669 
0.36550125 0.13527994 0.9209279 
-0.34232736 0.391832 0.8539788 
-0.32676223 0.7024414 0.6322995 
-0.47961938 0.4638893 0.7448302 
-0.49292675 -0.02706702 0.86964977 
-0.5124855 0.4051644 0.75710005 
-0.046157736 0.5316583 0.84570026 
0.07137736 0.39207602 0.9171596 
-0.3666565 0.05667489 0.9286286 
-0.07168786 0.39600697 0.91544497 
0.6838184 -0.075992875 0.72568417 
0.64818954 -0.17370883 0.7414011 
0.33457577 0.63434386 0.69689816 
0.063131854 0.73866326 0.67111176 
0.26292747 -0.23429993 0.9359342 
-0.07783264 -0.16116928 0.9838529 
-0.16665314 -0.5779025 0.798909 
-0.011992001 -0.021453978 0.999698 
-0.65663034 -0.25890946 0.7083802 
-0.76832813 0.4670116 0.43768954 
0.0925288 0.97538435 0.20015967 
-0.12160577 0.13364553 0.98354006 
-0.79157484 -0.24687324 0.5589839 
-0.08018313 0.9613938 0.26323524 
0.34481508 0.92208934 0.17565265 
0.5245833 0.36008757 0.7714593 
-0.6262642 -0.009829406 0.779549 
-0.76757956 0.3764133 0.51878196 
-0.005690692 0.5832635 -0.8122631 
-0.30354607 0.95125544 0.054525737 
-0.03827378 0.940105 -0.3387295 
0.013436266 0.9563811 0.2918129 
-0.19913773 0.8487179 0.4899206 
0.5604066 0.8098328 0.1735376 
0.4299512 0.86789507 0.24879779 
0.06133668 0.95644295 0.28540307 
0.44539848 0.6987296 0.5598189 
-0.49249426 0.79287076 0.35889474 
-0.277866 0.7963693 0.5372024 
0.096341036 0.7608124 0.6417812 
-0.09370097 0.7251156 0.68222255 
-0.4409139 0.89487445 0.06924399 
0.3058425 0.8918515 -0.3332586 
-0.045240212 0.9821683 -0.18247955 
-0.088374786 0.93039495 0.35574615 
-0.4725642 0.87971866 -0.05270834 
-0.21004431 0.965147 -0.15611787 
-0.019831147 0.9687023 -0.24743222 
0.20243081 0.93783504 0.28193498 
0.7300371 0.2978718 0.6150759 
0.8035945 0.55869037 0.20518517 
0.5131931 0.787821 0.34054512 
-0.09134581 0.609405 0.78757954 
0.8685686 0.3799004 -0.3182208 
0.8724683 0.47381994 0.119557 
0.72288775 0.3380785 -0.60260797 
0.8713579 0.4852449 -0.07261451 
0.72339 0.33492205 0.6037667 
0.47594145 0.048546676 0.87813616 
0.34576008 0.06359681 0.93616533 
0.6646799 0.29236427 0.6875492 
0.49236047 0.20593208 0.8456792 
0.4528278 0.8631049 0.22360024 
0.073127456 0.28498012 0.95573986 
-0.09361803 0.69971806 0.7082587 
-0.13066033 0.81703687 -0.56158584 
0.77502996 0.61816555 -0.13114862 
-0.6001698 0.71450245 -0.35955894 
0.5480588 0.43746847 0.7129186 
-0.14280002 0.8674373 0.47661394 
0.017846651 -0.7172881 0.69654816 
-0.17169125 0.4730882 0.86412376 
0.016958268 0.65802723 0.75280315 
-0.10229166 0.32033193 0.94176644 
-0.29330176 0.7498662 0.59302175 
-0.049039233 0.9692965 -0.24095547 
-0.32104415 0.7677867 0.5544677 
-0.75902396 0.3639596 0.5398296 
-0.15065625 0.6769098 -0.72048306 
0.036386993 0.8481677 -0.52847666 
0.017905695 0.98718745 -0.15855733 
0.07300823 0.9852476 0.15478064 
-0.07817955 0.9235428 0.37544194 
-0.22914842 0.85294265 0.46902013 
-0.5555296 0.31458962 0.7696884 
0.15019672 0.4004985 0.9039037 
-0.1459356 0.7456074 0.6502096 
-0.30415404 0.90899456 0.2849899 
-0.11354974 0.8275341 0.5498126 
0.21986865 0.8816284 0.41759938 
0.39435202 0.5777549 0.7146228 
0.34156224 0.51764333 0.784462 
0.34076822 0.79380745 0.503733 
0.43389103 0.6508266 0.62302756 
-0.10512648 0.34677094 0.93204 
0.32889 0.032049827 0.9438243 
0.48836184 0.41045418 0.77008444 
0.09348134 0.31172636 0.94556224 
-0.621749 0.17241083 0.76400447 
-0.6845446 0.7024933 0.19468415 
-0.60958564 0.75989205 0.22576429 
-0.013768338 0.9962736 0.08514341 
0.576042 0.77922994 0.24693428 
-0.3939795 0.90978837 0.13063478 
-0.7085855 0.6682241 0.22667849 
0.33938083 0.63229024 0.69644076 
0.06584993 -0.20035994 0.97750694 
-0.3067082 0.6692365 0.67679584 
-0.66970253 0.65507907 0.3498142 
-0.7238688 0.5591015 0.40425184 
0.19278604 0.48470536 0.8531673 
-0.6868811 0.29431048 0.6645117 
-0.775811 0.556102 -0.29810706 
-0.12323321 0.99232304 0.01042061 
0.7181934 0.66423845 0.20732978 
-0.19078843 0.5037368 0.8425254 
0.6909293 0.7219719 -0.037058488 
0.54648185 0.7417057 0.3888836 
0.119862996 -0.23602325 0.9643267 
-0.18146272 -0.32305425 0.9288203 
0.2955791 0.16076373 0.9416942 
0.45251343 0.15438251 0.8782925 
0.45339364 0.107387446 0.8848176 
-0.0817756 0.45881817 0.88475907 
-0.2926261 0.81678927 0.4972176 
0.22279511 0.7924362 0.56780916 
-0.33734468 0.6135894 0.71393746 
-0.58925885 0.55665433 -0.58558524 
-0.5075203 0.5573402 0.6571111 
0.08617061 -0.1366641 0.98686254 
-0.045701947 0.42742383 0.9028955 
-0.4168197 0.12931074 0.89974445 
-0.6714824 0.7118513 0.205862 
-0.7244016 0.5919836 -0.3532674 
0.087091 0.8004026 -0.5931028 
-0.5640481 0.7446268 0.3569043 
-0.71459943 0.62587404 -0.3124571 
-0.7834972 0.613258 -0.100233525 
-0.019508854 0.9945229 0.10268297 
-0.6106174 0.51577806 0.60093224 
0.064762995 0.6316548 0.77254003 
0.9287507 0.3705002 0.012321514 
0.92759204 0.3067969 -0.21318685 
0.679686 0.59197533 0.43311918 
0.5579227 0.6609849 0.501818 
0.05823214 0.27037397 0.9609927 
-0.095054746 0.18135875 0.97881234 
-0.11795824 0.042191476 0.99212193 
-0.48356333 0.7612946 0.43196908 
-0.18617898 0.39938167 0.89768136 
-0.56591284 0.7961358 0.21426767 
-0.69125813 0.6627987 0.2878545 
-0.281512 0.8013917 0.52775204 
-0.80762815 0.5812562 0.09938885 
-0.65304 0.6872029 -0.31826273 
-0.22948527 0.82165265 -0.5217504 
0.24399446 0.78841245 0.56468815 
0.12375039 0.9880052 0.092366554 
0.49904108 0.7590626 0.41806945 
0.7578074 0.561311 0.3326528 
0.7768466 0.25693676 0.5748852 
0.517715 0.23437154 0.82282513 
0.25125256 0.17079034 0.95273435 
0.552682 0.24025342 0.7980107 
0.19701521 -0.0500983 0.9791196 
0.38448295 0.13285607 0.9135218 
0.07714404 0.2542616 0.96405387 
-0.11254236 0.037203576 0.99295026 
0.30384737 0.04728666 0.95154655 
0.725512 0.24583955 0.64280266 
0.30948067 -0.36251315 0.8790939 
-0.27437943 0.7028171 0.6563263 
-0.691201 0.7016478 -0.1730077 
-0.77139556 0.5191439 -0.3680196 
0.13303855 0.77467865 -0.6182022 
0.69762874 0.7042139 -0.13189791 
0.3744149 0.56930625 0.731918 
0.68258923 -0.07826111 0.72659975 
0.75033665 0.44524777 0.48862 
0.46412805 0.3666518 0.8063199 
0.0048578433 0.49137846 0.8709327 
0.5506553 0.18761484 0.8133754 
-0.24879472 -0.119950674 0.9610999 
0.78392917 -0.042704273 0.61938 
0.32336128 -0.32115093 0.89011216 
0.6321782 -0.72706395 0.26782253 
0.46823984 0.27801785 0.83872384 
0.3624654 0.3992891 0.8421325 
0.38305464 0.9130895 0.13977371 
0.119268775 0.8781435 0.46329153 
0.433626 0.48199865 0.7613448 
0.043374594 0.45877147 0.8874951 
-0.41900516 0.50616306 0.7538127 
-0.33944148 0.8791547 0.3344647 
-0.6421067 0.7496535 0.16037048 
-0.36777243 0.91171575 0.1830793 
-0.52582395 0.5213704 -0.67207307 
0.3672513 0.7201719 -0.5886247 
0.50738996 0.82717496 -0.24153097 
-0.03504064 0.8390021 0.54299885 
0.05788821 0.9218269 0.38325477 
0.17279291 0.9766233 0.1278653 
0.33126202 0.5456406 0.76976746 
-0.05293212 0.7757121 0.62886333 
0.36183771 0.83010334 0.4242666 
0.7385217 -0.006212404 0.67420113 
0.5176865 0.16847987 0.8388179 
-0.49872497 0.515461 0.6968309 
-0.43998623 -0.009389687 0.8979555 
-0.4272079 0.72358364 0.5421442 
-0.5775253 -0.23439874 0.78199863 
-0.95031685 0.2936539 0.10327379 
-0.49627352 0.6764014 0.54423696 
0.37746626 0.7097018 0.5948468 
0.23192814 0.52501065 0.8188853 
0.62618923 0.2633912 0.7338339 
0.30727753 0.4698835 0.82752055 
0.4941779 0.09858035 0.8637535 
0.3846355 0.19381267 0.9024922 
0.5348372 -0.028985424 0.84445786 
-0.12613344 0.7585776 0.6392577 
-0.2180701 0.83908254 0.49838337 
-0.32847896 0.0062825633 0.94449043 
-0.37564194 0.47804374 0.79395676 
-0.67328364 0.5034787 0.541478 
-0.01115611 0.86912566 0.49446553 
-0.32748964 0.12169777 0.9369847 
0.0022849333 0.6399796 0.7683885 
-0.3134709 0.2724137 0.90968496 
-0.4158035 0.2881733 0.8625912 
-0.62997526 0.33002168 0.7030057 
-0.039572176 0.9710593 0.23553723 
0.075358815 0.68468976 0.72492826 
-0.4958895 0.8354983 0.23671986 
-0.21044509 0.97760326 -0.0021951813 
0.23323438 0.94407076 0.23309278 
0.18171291 0.5762871 0.7967897 
-0.05346608 0.7713982 0.63410276 
-0.74074316 0.14700036 0.6555079 
-0.19911283 0.9151589 0.35048303 
-0.47061577 0.028325716 0.88188356 
-0.9386772 0.28400162 0.19552082 
-0.25678897 0.631441 0.7316705 
-0.17228413 0.67082864 0.7213232 
-0.16955528 0.7293998 0.6627421 
0.52502334 0.59445405 0.6090771 
-0.29485485 0.90073544 0.31896117 
-0.92563593 0.37795532 -0.018653246 
-0.2060814 0.9773286 -0.048572965 
-0.2970809 0.9544462 -0.027848067 
-0.6114387 0.79092443 0.024108969 
-0.6783381 0.6868197 0.26102903 
-0.72087234 0.5282542 0.4486542 
-0.16222173 0.7616068 0.6274068 
-0.48771048 0.4482847 0.74911904 
0.19381215 0.6641341 0.7220546 
0.9605251 0.2748937 -0.042720214 
0.28279996 0.7218046 0.6316821 
-0.33803442 0.015671613 0.9410033 
-0.8273745 0.29320312 0.47904423 
-0.31803995 -0.030767687 0.94757795 
-0.32164502 0.24156 0.915529 
-0.44430736 0.109017715 0.8892166 
-0.17471477 0.70856947 0.68366957 
-0.26038453 0.43009216 0.86441934 
0.3790385 0.61730015 0.68939865 
0.12792587 -0.2201023 0.9670523 
0.23880255 -0.19324294 0.9516462 
0.62418586 0.38648945 0.67898303 
0.2646437 0.5763504 0.77316487 
0.23481295 0.6859215 0.68874866 
0.031018086 0.2874554 0.95729166 
-0.3539435 -0.44078255 0.8248848 
-0.4198356 0.14770448 0.89550066 
-0.5502367 0.08879454 0.83027416 
-0.44425642 0.37807685 0.8122156 
-0.3905539 0.7057901 0.59103984 
-0.4329087 0.72527874 0.5353138 
-0.17954016 0.6667259 0.72335476 
0.25749227 0.41926718 0.8705818 
0.25817254 0.21988441 0.9407433 
-0.49493387 0.39159882 0.7756874 
-0.4290411 0.43284374 0.79282415 
-0.2723429 0.20286864 0.940571 
0.3828734 0.8646348 0.32529184 
-0.23073378 0.76217794 0.6048527 
0.75563 0.65069354 -0.07497424 
0.6519785 0.74338 0.14936632 
-0.120364375 0.87519383 0.46855965 
-0.16983207 0.6290179 0.75861305 
-0.1567777 0.8456151 0.51025087 
-0.16453521 0.7851612 0.59703445 
-0.0054476894 0.9630845 0.2691442 
0.27057838 0.4382012 0.8571856 
0.36775607 0.09353699 0.9252061 
0.73720616 0.041306738 0.6744041 
-0.6579362 -0.09325672 0.74727714 
-0.5351063 0.51033175 0.67321825 
-0.45530504 0.5879063 0.6686281 
-0.539763 0.83804715 -0.07958071 
0.10387379 0.9445936 0.31137323 
-0.394468 0.88017577 0.26398027 
-0.39789104 0.8211961 0.40904763 
0.48056492 0.58410275 0.65412647 
0.6794856 0.31573665 0.6622762 
0.24286088 0.26896 0.9320296 
0.21888037 0.8948221 0.3890821 
0.7526323 0.49895787 0.42963457 
0.5646119 0.50206375 0.655092 
0.7464236 0.37706712 0.54833597 
0.4267225 0.4330457 0.7939644 
0.46775538 0.8576267 0.21373235 
0.3345019 0.91335005 -0.23216401 
0.4043155 0.8239643 0.3970035 
0.10395068 -0.16618407 0.98060036 
-0.24599047 -0.09344171 0.96475774 
0.30161536 0.3000888 0.9049723 
0.5574607 0.43549904 0.7068084 
0.4070566 0.6026134 0.6864125 
0.35102174 0.39548436 0.84874964 
-0.17800458 0.47782102 0.8602334 
0.036974527 0.4906942 0.870547 
-0.63172024 0.7716368 0.07420345 
-0.3035344 0.8814597 0.36179492 
0.37004253 0.38839847 0.8439284 
-0.27805313 0.9531216 -0.11935552 
0.09175407 0.9005551 0.4249492 
0.38003084 0.23419112 0.8948358 
0.21870129 -0.022865726 0.9755239 
0.05175098 -0.08769063 0.9948026 
-0.27180207 0.94024795 0.20507963 
-0.17678334 0.9386642 0.2960699 
-0.54552454 0.7775015 -0.3128806 
-0.21277076 0.61039424 -0.7629859 
-0.81209534 0.5528081 -0.18682732 
-0.37053233 0.9209589 0.12058458 
0.2053422 0.92201644 -0.32820776 
0.5342353 0.48034126 0.6956041 
-0.5048423 0.8336971 -0.2237934 
-0.8496561 0.34312153 0.4004399 
-0.50556254 -0.05330167 0.8611419 
-0.13000625 0.49796385 0.85739756 
0.39681792 0.81575066 0.42081642 
-0.49664432 -0.031990174 0.86736447 
-0.5531525 0.34328812 0.7590623 
0.722757 0.62402236 0.297016 
0.4009878 0.06859907 0.9135114 
0.05660714 0.8004814 0.5966786 
-0.16542348 0.475998 0.86374825 
-0.009151691 0.3977012 0.91746944 
-0.47092855 0.51414627 0.7168542 
-0.037442263 -0.09153491 0.9950977 
-0.24073252 0.6172751 0.7490123 
-0.1046695 0.6020669 0.7915554 
-0.41391042 0.83922327 0.3526792 
-0.44603652 0.14013381 0.8839762 
0.6031352 -0.0054549742 0.79762036 
0.06674268 0.95094603 0.30207148 
0.032816343 0.9838928 -0.17572148 
-0.17922506 0.6078775 0.7735396 
0.24794056 0.7578467 0.6034848 
-0.021975944 0.46021923 0.88753337 
0.057021208 0.32343972 0.9445292 
0.3419794 0.5530199 0.7597494 
-0.24652658 0.56535953 0.7871425 
-0.22570904 0.57699865 0.7849382 
-0.043511484 0.044185176 0.99807537 
-0.22543968 0.30320367 0.92587495 
-0.2762961 0.78806436 0.5501045 
-0.511193 0.8587412 -0.03529017 
0.5505973 0.83099747 -0.0792834 
0.015102063 0.91342825 0.40671968 
0.52478665 0.8475641 0.07895534 
0.84526265 0.4678966 0.25807753 
0.5571376 -0.33802024 0.7585118 
0.43818793 -0.0637178 0.89662224 
0.17808758 -0.101159066 0.97880113 
0.8154721 -0.1257953 0.5649609 
0.69285196 0.2412282 0.679533 
0.6076219 0.20350826 0.76771086 
0.29615217 0.68386704 0.66679823 
0.6362252 0.27014506 0.7226612 
0.50641453 0.44346407 0.7395161 
-0.12719053 0.010946591 0.9918179 
-0.51182866 0.40231413 0.7590619 
-0.1371395 -0.27811742 0.9507069 
-0.12112447 0.012016428 0.9925647 
-0.42611298 0.327558 0.8432873 
-0.46246257 0.60284305 0.6501605 
0.13986981 0.98980314 -0.02695112 
0.35660577 0.9325488 0.056436613 
0.23264094 0.23115335 0.94469386 
0.094624504 0.5414034 0.8354213 
0.47713184 0.61736333 0.62546605 
0.46585417 0.6060655 0.6447206 
-0.14928506 0.3661777 0.91849214 
0.015460169 0.57243526 0.81980413 
0.3639875 0.117717884 0.9239349 
0.25892523 0.6872947 0.67866325 
0.18415949 0.3881511 0.90300834 
-0.33634615 0.45352286 0.82534134 
0.012376038 0.66372275 0.7478763 
-0.2558453 0.14566481 0.95568043 
-0.1309496 0.15920447 0.9785225 
-0.52578324 0.30319127 0.7947498 
-0.046219386 0.37251002 0.9268765 
-0.4462046 0.6965755 0.5618577 
-0.31939006 0.33427796 0.8867064 
-0.6308888 0.7160744 0.29869205 
-0.15735355 0.6218302 0.7671812 
-0.75326544 0.64863354 -0.108930126 
-0.20843314 0.9591463 -0.1912957 
0.43067318 0.24779664 0.8678234 
0.16842079 0.6810875 0.7125689 
0.79292077 0.45134053 0.40935126 
0.4275375 0.68138164 0.59407985 
-0.093896806 0.54392034 0.833867 
0.54708064 0.32407779 0.7718008 
0.37316224 0.09912077 0.9224561 
0.34981158 -0.18921103 0.91751355 
0.039620478 0.33756378 0.94046855 
0.05317791 0.13399483 0.9895543 
-0.19951093 0.29738033 0.9336811 
0.28057703 -0.035653576 0.9591691 
-0.06300903 -0.30870268 0.94906926 
0.41493943 0.20003618 0.887587 
-0.17231882 0.15059878 0.97346103 
0.2817388 0.6990839 0.65719485 
0.10790322 0.93288064 0.34364337 
0.5793781 0.8119457 0.07117052 
0.33897942 0.8653226 0.36920172 
-0.07019183 0.99616206 0.052290805 
0.09488055 0.83708787 0.538778 
-0.016748667 0.43065554 0.902361 
0.59435123 0.54073066 0.59527904 
0.6779597 0.24486466 0.6931176 
-0.25673175 0.6032913 0.7550686 
0.25505742 0.80252695 0.53934807 
0.13601127 0.3343244 0.9325923 
0.3802531 0.6137353 0.69190794 
0.6687864 0.4689862 0.576868 
0.5694788 -0.24679285 0.7840836 
0.06958466 0.59296656 0.802215 
0.34052613 0.70946336 0.6170119 
0.42844564 0.7493221 0.50492656 
0.28933412 0.7385685 0.60893553 
0.020714877 0.7214068 0.6922017 
0.47520936 0.26909283 0.83771425 
-0.058928758 -0.05015706 0.99700135 
-0.5819165 0.76164055 0.28509098 
-0.31877685 0.9368125 0.1440963 
-0.45022932 0.77986234 0.43486595 
0.0035011163 0.9951632 0.098173685 
0.32045567 0.90558183 -0.27790254 
0.9154896 0.3957894 0.072316594 
0.64330465 0.63553315 0.4269155 
0.27929416 0.72446823 0.63019097 
0.13506782 0.42346045 0.895789 
-0.2949455 0.2986213 0.9076522 
-0.5412522 0.11730683 0.8326374 
0.7056497 -0.48150337 0.5198204 
0.6936756 0.09489045 0.7140098 
0.24501602 -0.0016635173 0.9695176 
-0.7352405 0.43350574 0.52105105 
-0.48988917 -0.17277153 0.8544932 
-0.25310096 0.3505409 0.90169895 
-0.47742277 0.31341058 0.8208784 
-0.26822922 0.8004743 0.53599817 
0.3865823 0.48663682 0.78341484 
-0.15902826 0.22725269 0.9607634 
0.298922 -0.15053014 0.94233024 
0.37543917 0.19306989 0.9065151 
0.13823439 0.24350289 0.95999885 
0.6823226 0.6582583 0.31801233 
0.23878606 0.080287874 0.96774745 
0.11361022 0.25733924 0.95961934 
-0.26183325 0.63531715 0.72650915 
-0.59715575 0.37271938 0.71027136 
-0.71677494 -0.2212627 0.6612689 
-0.29081866 0.36145985 0.8858732 
-0.27016482 -0.01568219 0.9626864 
-0.24715023 0.6336714 0.7330603 
-0.32372463 -0.047454376 0.9449606 
-0.22376588 0.6359841 0.738548 
-0.50814813 0.18825135 0.84044456 
-0.3233795 0.5596772 0.76301205 
-0.7323817 -0.14724681 0.66478235 
-0.36561465 0.51407486 0.7759208 
0.05789233 0.54162884 0.83862185 
-0.2820541 0.45592314 0.8441444 
-0.121666014 0.4647761 0.87702954 
0.036899637 0.5161349 0.8557122 
0.4462604 0.28369477 0.84874564 
0.09876916 0.464227 0.88019204 
-0.67551285 0.29566306 0.67547446 
-0.89671594 -0.2948823 0.330068 
-0.18393692 -0.25955915 0.9480488 
-0.4666629 0.25530943 0.84678376 
-0.32814834 0.42113146 0.84555733 
-0.37363634 0.5930802 0.71319836 
-0.30017376 0.5304463 0.79279417 
0.13631783 0.8737819 0.46682188 
-0.058451883 0.76180756 0.645161 
-0.2097873 0.97580266 0.06163149 
-0.16412821 0.88140833 0.4429237 
-0.17776416 0.7675537 0.6158419 
-0.60379535 0.18894228 0.7744237 
-0.34075636 0.6353527 0.69297343 
-0.6269256 0.73525083 0.25762486 
-0.21764462 0.9693208 0.11422816 
-0.96989244 0.13940316 0.1996884 
-0.45601958 0.888787 0.045868516 
-0.0555986 0.669718 0.74053127 
0.35459346 0.5320774 0.7688675 
-0.13238578 0.35109323 0.9269345 
-0.68568677 0.264884 0.6779898 
-0.55974436 0.471222 0.6816423 
-0.6169347 -0.20095532 0.7609261 
-0.1926523 0.30941978 0.931206 
-0.18935914 0.2548035 0.9482712 
-0.1558692 0.46059448 0.87381786 
-0.08493291 0.827625 0.55481833 
0.5420984 0.059834994 0.83818203 
0.11565267 0.4540373 0.8834447 
-0.13921088 0.30164382 0.94320273 
0.08684666 0.34759536 0.9336141 
0.4935062 0.72925085 0.4739671 
0.18170184 0.9566746 0.22750464 
-0.46325216 -0.010595444 0.88616323 
-0.4003794 0.059414085 0.91442126 
-0.7386397 -0.10638906 0.66565216 
-0.6451304 0.49196678 0.5846157 
-0.51322496 0.49256155 0.7028395 
-0.47187743 0.14265014 0.8700476 
-0.213318 0.55511117 0.8039571 
0.10654259 0.7404917 0.6635667 
-0.017786909 0.015159947 0.9997269 
-0.059529655 -0.124217324 0.9904677 
-0.79263467 -0.13875297 0.5936986 
-0.5885388 0.49043825 0.6427227 
-0.8351024 0.34728914 0.42660806 
-0.21311016 0.9765036 0.03201496 
0.58046865 0.75011516 0.31683373 
0.6184868 0.71760607 0.3201809 
-0.48717633 0.25477207 0.8353146 
-0.06598948 0.8960737 0.43897313 
0.80850077 0.10499939 0.5790524 
0.11869189 0.9909256 0.063076794 
-0.3339331 0.741362 0.5821265 
-0.18968295 0.6544212 0.7319518 
-0.4673719 0.4286401 0.77319545 
-0.23404843 0.5459484 0.8044637 
-0.22986926 0.10960848 0.96702963 
-0.367798 0.85436654 0.36712742 
-0.17726046 0.9632548 0.2017894 
-0.26113832 0.6856391 0.67948943 
-0.51228374 0.6928479 0.5074714 
-0.7175742 0.6907796 0.088943414 
-0.16735579 0.8669057 -0.46953875 
0.9565047 0.27421722 0.09951789 
0.9059517 0.40511116 0.12303094 
0.6840565 0.45695236 0.5685608 
0.19396794 0.7479987 0.63472396 
0.1400762 0.9897017 -0.029482158 
-0.17413114 0.91429555 0.36570755 
-0.24462593 0.7555733 0.6076737 
-0.08488497 0.18889703 0.97832125 
0.7703724 0.506751 0.3869492 
0.35629627 0.63146627 0.6886969 
0.24870375 0.36414716 0.89752066 
-0.29676703 0.21463953 0.93051565 
0.50760883 0.02006998 0.861354 
0.2729551 0.94719625 -0.16827072 
0.04766651 0.47920954 0.8764052 
0.1963709 0.8169352 0.54226893 
0.30349463 0.31392133 0.89963573 
-0.25653225 0.5394451 0.80199134 
-0.4057943 0.62507534 0.66679215 
-0.10006735 0.69469684 0.7123081 
-0.49212474 0.4830244 0.72422427 
0.10507981 0.71874195 0.6872905 
0.101749755 0.77619445 0.6222292 
0.23532447 0.879763 0.4130853 
-0.39537778 0.35946676 0.84525734 
0.34485903 0.4492192 0.824181 
-0.2775172 0.51355 0.8119426 
0.12777527 0.5929744 0.7950188 
-0.30650645 0.51402307 0.8011456 
-0.46315 0.7012505 0.54197776 
-0.07371554 0.9087432 -0.4107942 
0.09021969 0.9818449 -0.16685617 
0.4753294 0.87227076 0.11491643 
0.798431 0.47245908 0.37321636 
0.97462434 -0.121103756 0.18825887 
-0.39123294 0.8865331 0.24697378 
-0.6490727 0.5134201 0.56134176 
-0.32435003 0.5908656 0.7386981 
-0.47328088 0.26580492 0.8398529 
-0.32332802 -0.19668353 0.9256212 
-0.06622074 -0.2058668 0.9763369 
-0.254971 -0.46872583 0.84574586 
0.4103321 0.32133383 0.85344726 
0.5403212 0.3004677 0.78598493 
0.474013 0.3161285 0.82181174 
0.028853983 0.32585368 0.9449798 
-0.47520965 0.40914586 0.77895796 
-0.5848201 0.26819354 0.7655441 
-0.55236936 -0.19544707 0.8103633 
-0.49773043 -0.06660213 0.8647709 
-0.20616879 0.6868271 0.696967 
0.5819399 0.7924058 0.18286398 
-0.25820032 0.6286353 0.7335874 
0.15038444 0.044750452 0.9876143 
0.082008645 0.39867723 0.9134173 
0.030356092 0.4074115 0.9127402 
0.6071016 0.6068982 0.51293504 
0.11333102 0.106147036 0.9878709 
-0.118752114 0.46789145 0.8757715 
-0.28509593 0.411844 0.86550844 
-0.168062 -0.16995038 0.97101605 
-0.2578446 0.58716536 0.7673025 
-0.50352275 0.44495386 0.740595 
-0.37070864 -0.6337842 0.6788908 
0.23581518 -0.25442433 0.9379016 
0.71151656 -0.30984437 0.63066685 
0.3004639 0.11102964 0.9473088 
-0.22665931 0.57923394 0.78301585 
0.06890802 0.8933734 0.44399974 
0.71445215 0.46962613 0.5186612 
0.20235702 0.0053234026 0.9792974 
0.24184543 0.9308376 0.27395692 
0.727943 0.45759773 0.51059115 
0.8288059 0.07182419 0.55490726 
0.81446964 0.0030093682 0.5801985 
0.03246562 -0.07786197 0.9964354 
-0.24940278 0.5245205 0.8140495 
0.37814295 0.4975674 0.7806629 
0.78736746 0.3367456 0.51638633 
0.28569865 0.37838307 0.88045585 
0.46212995 -0.24510162 0.8522683 
0.3129902 -0.09788206 0.9446991 
0.39338452 0.2075172 0.89564806 
-0.32895052 -0.5595984 0.7606848 
0.5066312 -0.04144314 0.8611663 
0.39353892 -0.14823444 0.90727824 
0.6770771 0.25832933 0.68908095 
0.7208054 0.38163903 0.5786115 
0.18773821 0.7550391 0.6282279 
0.052708562 -0.18586427 0.9811607 
0.38283512 0.4129969 0.82636 
0.4476767 0.6722673 0.589612 
0.49424002 0.45835444 0.7386732 
0.29863834 0.30337432 0.9048642 
0.26886138 -0.63383585 0.725235 
-0.22716251 0.013356259 0.9737654 
-0.50920314 -0.2732099 0.8161302 
-0.31923315 -0.10089909 0.94228965 
-0.22458598 0.01765117 0.9742945 
-0.22064024 -0.56783026 0.7930238 
0.20754452 -0.41721487 0.8847921 
-0.32837367 0.5126238 0.79333955 
-0.5056422 0.6204079 0.5995165 
-0.32508957 0.42218 0.84621555 
0.26109245 0.78130126 0.5669207 
0.41680172 0.8352117 0.35874465 
-0.41603196 0.8434707 0.33981544 
-0.43332615 0.7909503 0.43200257 
-0.6642678 0.57000095 -0.48357767 
0.57985324 0.26035544 0.7720009 
0.036408126 0.34253934 0.93879783 
0.1684357 0.47285038 0.8648943 
0.1927227 0.13642187 0.97172374 
-0.2898851 0.16780138 0.9422363 
0.24993582 -0.6853705 0.6839586 
-0.5544501 -0.67116314 0.49206218 
0.22829294 -0.27671537 0.93344045 
-0.37770045 0.15793604 0.9123589 
0.011695418 -0.08312253 0.9964707 
0.33171347 0.20433387 0.92098534 
0.65660584 0.32086203 0.68258077 
0.25611857 0.10026688 0.9614312 
0.13838921 0.04606473 0.98930603 
0.20353559 0.48770177 0.8489525 
0.49120012 0.45390037 0.743436 
0.2731058 0.81243515 0.5151334 
0.3141737 0.7505502 0.5813512 
-0.3669126 0.54726607 0.7522467 
-0.014897014 0.91373193 0.4060443 
0.5246857 0.33803895 0.78130317 
-0.33707598 0.3807722 0.86104137 
-0.48566055 0.70389795 0.5183257 
0.10971234 0.16465923 0.9802299 
0.07846017 0.7439444 0.6636194 
-0.2985258 0.68898106 0.6604449 
0.1696418 0.6104503 0.7736744 
0.5778871 0.8131201 -0.069872245 
0.5481644 0.83609176 -0.021596832 
0.44307283 0.28838402 0.8488352 
0.5790407 0.58036536 0.5726151 
0.39254874 0.6590683 0.64150965 
0.41513836 0.82929796 0.37406558 
0.06916816 0.20193526 0.9769534 
-0.17599203 0.30488336 0.9359877 
-0.20569904 -0.17992659 0.9619326 
-0.07673364 0.15701434 0.9846108 
-0.19583961 0.33864963 0.9203061 
-0.3245306 0.83483166 0.44467524 
-0.47596872 0.69721574 0.5360448 
0.08775876 0.99588925 0.022427617 
0.27170858 0.9315214 0.24174859 
0.38547748 0.6446808 0.6601469 
0.67995363 0.11002542 0.7249534 
0.56432074 0.21618013 0.7967485 
0.36676967 -0.023241678 0.93002146 
0.5032059 -0.34677428 0.79153746 
0.06886288 -0.5369572 0.84079427 
0.47928697 -0.20454325 0.85349053 
0.7583808 -0.44038707 0.48053926 
0.40417063 0.12633748 0.90591663 
-0.8041822 -0.32996425 0.4943831 
-0.7360241 0.39290276 0.5512676 
-0.6261116 0.66496676 0.40718976 
-0.16808207 0.82785106 0.53517395 
0.22076134 0.6373124 0.7383071 
0.14217958 0.52075475 0.8417835 
-0.06973229 0.33180267 0.940768 
-0.22364496 0.042941418 0.97372437 
-0.45494446 0.22258787 0.86225307 
-0.21177265 0.2938107 0.9321093 
0.7356109 0.04973172 0.67557645 
0.26993802 0.13539547 0.95331085 
-0.072611414 -0.03424429 0.99677235 
0.0010572717 0.17928928 0.9837958 
-0.34303856 0.37541908 0.8610373 
-0.4063144 0.6070507 0.6829335 
0.29548055 -0.19543183 0.9351458 
0.3235911 -0.08477924 0.94239134 
-0.41060904 0.45070565 0.7926315 
-0.78288764 0.22982822 0.5781574 
-0.313084 0.6584096 0.6844526 
-0.4046733 0.27752176 0.871333 
-0.14940032 -0.22797224 0.9621374 
-0.60945994 0.03887655 0.79186326 
-0.7730381 0.19722575 0.6029213 
-0.5235445 0.4593479 0.7175659 
-0.16258109 0.47189903 0.8665326 
-0.28703305 0.17338377 0.94209886 
-0.26321962 -0.12108679 0.95710677 
-0.75738704 -0.08133816 0.6478804 
-0.39173108 0.014660561 0.91996306 
-0.57092226 -0.2764903 0.7730466 
-0.1829602 -0.5805615 0.79339397 
0.21045193 -0.36172032 0.9082227 
0.0064191297 -0.37746927 0.9259998 
-0.35926607 -0.60311115 0.7121692 
-0.79818213 -0.04362333 0.60083467 
-0.5328262 0.19405739 0.8236735 
-0.16295679 0.21046458 0.9639242 
0.32562456 0.8260614 0.4599905 
0.010964407 0.79238415 0.60992396 
0.17355858 0.44109473 0.88051856 
-0.32907623 0.7698192 0.5468888 
-0.38097867 0.3385433 0.8603743 
-0.72404397 0.14489464 0.6743634 
-0.6783065 0.63850504 0.3636092 
-0.75551105 0.3500377 0.5537839 
-0.52992904 0.6227448 0.5756424 
-0.10423162 0.9892911 0.10217099 
-0.124451734 0.89569 0.42690888 
-0.27881166 0.82748747 0.4873691 
-0.56692743 0.41893086 0.7092886 
-0.17587774 -0.17302082 0.96908766 
-0.49313954 0.06094948 0.8678125 
-0.12838794 0.3276416 0.93603826 
-0.11767879 0.25114262 0.9607701 
0.027693534 0.4257185 0.9044319 
0.2551268 0.56400484 0.7853718 
0.18605481 0.36840633 0.91085696 