# OOMMF: rectangular mesh v1.0
# Segment count: 1
# Begin: Segment
# Begin: Header
# Desc: Time (s) :  4.600000000000001e-08
# Title: m
# meshtype: rectangular
# meshunit: m
# xbase: 2e-09
# ybase: 2e-09
# zbase: 5e-10
# xstepsize: 4e-09
# ystepsize: 4e-09
# zstepsize: 1e-09
# xmin: 0
# ymin: 0
# zmin: 0
# xmax: 1.024e-06
# ymax: 1.024e-06
# zmax: 1e-09
# xnodes: 256
# ynodes: 256
# znodes: 1
# ValueRangeMinMag: 1e-08
# ValueRangeMaxMag: 1
# valueunit: 
# valuemultiplier: 1
# End: Header
# Begin: Data Text
-0.21912818 0.91816986 0.33007145 
0.13673727 0.83177185 0.53801364 
0.3432846 0.82204944 0.45430234 
-0.8001029 0.29518512 0.522208 
-0.39661875 0.52473956 0.75322115 
-0.24573794 0.16204377 0.955696 
-0.6203508 0.2849736 0.7307223 
-0.49519765 -0.07775456 0.865294 
-0.83481884 0.12745535 0.5355676 
-0.4185933 0.81838864 0.3937255 
-0.5244753 0.8437398 0.114144355 
-0.15284711 0.853964 0.4973764 
-0.3572522 0.7785559 0.5159667 
0.20530981 0.96888 -0.13827376 
0.5828806 0.7018156 -0.4095182 
0.50378084 0.83876956 -0.20656835 
0.35053545 0.9293576 0.11584197 
0.25446525 0.9669313 -0.017071338 
-0.6328966 0.6938922 0.34344664 
-0.24657921 0.730329 0.6370387 
-0.3199321 0.9061305 0.27671462 
-0.14479811 0.9626457 0.22879463 
0.82587934 0.5636114 0.01629765 
0.8955304 0.18105519 -0.40650278 
0.9925936 0.12064778 0.0142162135 
0.73559636 0.31866363 0.5977888 
0.31019175 0.70533615 0.63740265 
0.1477173 0.06392213 0.9869618 
-0.13898271 -0.6312944 0.76298827 
0.10774048 0.59496576 0.79649717 
0.5886847 0.6155461 0.52397853 
0.702977 0.6511999 0.2859409 
0.29456577 0.21963634 0.9300489 
0.92984456 0.041292865 0.36562833 
0.91616476 0.31418687 0.2488552 
0.20289828 -0.25608164 0.94512147 
0.07191741 0.35037333 0.933845 
-0.6440409 0.36674672 0.67134815 
-0.11586587 0.13922617 0.9834588 
-0.37243778 0.40838155 0.8333755 
-0.5728423 0.043938845 0.8184871 
-0.3440981 0.7721473 0.53421456 
-0.34544605 -0.14743255 0.9267851 
0.50781137 0.827981 0.2378553 
0.09337488 0.19632372 0.97608304 
-0.2870949 0.12547763 0.9496484 
-0.63366735 0.62968355 0.44940445 
-0.27798608 0.92214185 0.26903176 
-0.1483071 0.42266825 0.8940675 
0.10681266 0.6809052 0.7245407 
-0.079109184 0.8277131 0.55554736 
0.067354605 0.99760777 0.015561921 
0.13027091 0.2777231 0.95178753 
0.3034661 0.6664917 0.68095315 
0.08225558 0.92465574 0.37181434 
0.15648371 0.62814724 0.7621969 
0.38473687 0.6764341 0.6280242 
0.2349288 0.82810897 0.50896376 
0.11930793 0.99142337 -0.05334133 
0.38683143 0.9125382 0.13279888 
0.6139289 0.4867982 0.62138474 
0.65977216 0.5375804 0.5250792 
0.482271 0.78370136 0.391442 
0.31724995 0.5689164 0.7587401 
-0.7326158 0.45403737 0.5070742 
-0.91656274 -0.30945766 -0.25327602 
-0.4198829 0.8412752 -0.34052092 
-0.2699657 0.95498544 -0.12296948 
0.95730674 0.28907403 0.00045259602 
0.83899546 -0.5426254 0.040548727 
0.088746615 -0.43950868 0.89384353 
-0.03287913 -0.15012726 0.98811984 
-0.76631147 -0.20298307 0.609561 
-0.5771307 -0.08828023 0.81186634 
0.40084058 0.056130446 0.9144267 
0.44453636 0.7062787 0.55096096 
0.44577447 0.48166338 0.75451005 
-0.55840933 0.23264502 0.79627603 
0.1718159 0.6940796 0.6990943 
0.056754004 0.99830717 -0.012724974 
-0.3560908 0.72443384 0.59025 
0.3309267 0.76622695 0.5508028 
0.1173926 0.69679546 0.7075981 
0.82251996 0.4123045 0.3917476 
0.82281566 -0.2575766 0.50658524 
0.90092075 0.36487776 0.2349596 
0.9602783 0.23374411 0.15241246 
0.71954995 0.20498222 0.6634985 
0.58318514 0.64666146 0.49165446 
-0.036727585 0.877206 0.47870728 
-0.2519073 0.5679861 0.7835399 
-0.7382304 0.65695834 0.15304126 
-0.15953678 0.8887341 0.4297673 
0.19920817 0.63655984 0.74505556 
-0.02901106 0.71332705 0.70023066 
-0.6858384 0.2419866 0.68634415 
-0.18673167 0.972898 0.13638489 
-0.4214558 0.5175787 0.74463904 
-0.45787656 0.8250898 -0.33102244 
-0.9558344 0.22893696 -0.18430573 
-0.80158347 0.57148874 -0.17568302 
-0.39866355 -0.2113151 -0.89242 
-0.48207194 -0.1685732 -0.8597614 
0.37649846 0.48450866 -0.7896204 
0.4049275 0.8699768 -0.28137913 
0.8161229 0.515218 0.2617134 
0.6039393 0.74046665 0.294901 
0.66156805 0.54412156 0.5160033 
0.3635039 0.30847067 0.8790397 
-0.19901828 0.10058552 0.9748202 
-0.22923651 0.43914986 0.86867607 
-0.51345223 0.2734313 0.81338936 
-0.59273297 -0.04845192 0.8039403 
-0.09288901 -0.3038516 0.9481803 
0.72058266 -0.01884834 0.69311285 
0.47731876 0.5270561 0.70312077 
-0.39126238 -0.17693686 0.9031097 
-0.41588378 0.42724776 0.8028076 
-0.5873646 0.5844803 0.55980855 
0.50750226 0.8458162 0.16442794 
0.63324374 0.7362326 0.2386712 
0.5614515 0.68428546 -0.46532333 
0.3582936 0.8635621 -0.3548045 
0.30249035 0.91373914 0.27125716 
-0.49525347 0.6471656 0.5795695 
-0.017265221 0.84432167 0.53555846 
-0.16007574 0.97076225 -0.17887595 
-0.3253371 0.8996904 -0.29105493 
0.45644146 0.8896813 0.011337071 
0.2913159 0.90133464 0.3205169 
0.59746194 0.3404462 0.7260411 
0.6158606 0.515851 0.5954944 
0.11276682 0.3578873 0.9269306 
-0.35881054 0.15468076 0.9205047 
0.22083355 0.49422154 0.84081966 
-0.32570663 0.53770244 0.7776833 
-0.35266978 0.6789549 0.6439288 
-0.7997793 0.23118551 0.55399126 
-0.7672113 0.24706559 0.5918999 
-0.98771644 0.15542224 -0.016134616 
-0.8636158 0.31209502 0.39593503 
-0.48064575 0.48037001 0.73363775 
0.09722711 0.995248 -0.005329918 
-0.27649787 0.8397273 0.46734038 
-0.9276918 0.33233944 -0.17011292 
0.2624593 -0.008220322 -0.9649081 
0.41479784 0.59168124 -0.69127136 
0.43725872 0.85155374 -0.28924215 
0.36199537 0.9270785 -0.0973908 
0.36965728 0.7116757 0.597387 
0.27102938 0.48056933 0.83402413 
-0.9137037 0.32210016 0.24778426 
-0.96902937 0.18097164 -0.16802236 
-0.48573914 -0.031753372 -0.8735269 
0.005821409 0.45423517 0.89086276 
0.45019355 0.6519098 0.61019623 
-0.41879052 -0.29476142 0.8589122 
0.4369087 -0.31915364 0.8409827 
-0.29638183 -0.0658009 0.95280015 
-0.60631853 -0.335528 0.72097087 
-0.31008157 -0.26156864 0.91401935 
-0.47035524 -0.21588519 0.8556632 
-0.4935399 0.6492068 0.5787478 
-0.98302066 0.091629565 0.15897942 
-0.41436124 0.16353746 0.89529896 
-0.33600572 0.75863117 0.55819273 
0.27789328 0.9289636 -0.24454446 
-0.2331255 0.5523021 -0.8003842 
-0.4040783 0.8877497 -0.22050232 
0.069508016 0.9321493 -0.35533968 
0.49643663 0.66257805 -0.56083965 
0.46289575 0.799035 0.38375852 
0.7996604 0.5501512 0.24057625 
0.10937062 0.81205505 0.57324046 
0.59908605 0.32491356 0.7317972 
0.051923726 0.31617215 0.94727993 
0.44404697 0.07168439 0.89313143 
0.6890193 0.6968973 0.19896384 
0.6372684 0.43648785 0.6351121 
0.87312406 0.15524815 0.4621173 
0.5617066 0.62849456 -0.5380338 
0.41368502 0.84595376 0.33649197 
0.0043970165 0.7659788 0.6428508 
0.152778 0.058483016 0.9865286 
0.35750172 -0.1562088 0.9207559 
-0.013863592 0.08317116 0.9964389 
0.71242595 -0.3365015 0.6158052 
0.15069006 -0.7560692 0.6369081 
0.057577956 -0.082210176 0.99495035 
0.053899415 0.7401467 0.67028195 
-0.50532025 0.67045593 0.5432682 
0.01747605 0.99325293 -0.11464351 
0.39968738 0.5387948 -0.74158627 
0.36947894 0.35950765 -0.85687786 
0.05919792 0.085968845 -0.99453765 
0.14944644 0.241694 -0.95877516 
0.26122016 0.15849625 -0.952178 
0.6050156 0.6460264 -0.4654096 
0.26070765 0.76509917 0.58877397 
0.31200472 0.6392567 0.70285416 
-0.5351905 0.51897484 0.66651046 
0.3236444 0.8056091 0.49623424 
0.28454417 0.8409172 0.46031845 
0.3794695 0.80969614 0.44765496 
0.3993593 0.041693054 0.91584605 
-0.028415991 0.28019556 0.9595223 
-0.009551553 0.5162225 0.85640126 
-0.26887667 0.9621869 0.043611344 
-0.08293881 0.90738976 0.41202566 
-0.5370057 0.37890255 0.753696 
-0.63136876 0.7651056 0.12643977 
-0.41456908 0.6066221 0.6783379 
-0.57153153 0.4033921 0.7145814 
-0.5246382 0.34719405 0.77731013 
0.51642346 0.15534115 0.84212595 
-0.37925893 0.75352526 0.536994 
-0.12202315 0.6884595 0.71493626 
0.29995885 0.727252 0.61735666 
0.53756917 0.5463684 0.64226246 
0.4904333 0.8249818 0.28085637 
0.6835305 0.020275751 0.7296403 
-0.16538288 0.47802833 0.86263406 
-0.40968436 0.34560797 0.84422386 
0.38679913 -0.3512878 0.8526331 
-0.035397235 0.5212554 0.8526663 
-0.07881654 0.90803605 0.4114104 
-0.8050678 0.38113287 0.45453656 
-0.93555796 0.030870365 -0.35182154 
-0.025110772 0.50372344 -0.86349994 
0.6583384 0.65179265 -0.37650618 
0.72970426 0.6820929 0.047760654 
0.85350084 0.48951018 -0.17865145 
0.63001555 -0.18426223 0.7544057 
-0.06817526 -0.41430545 0.90758103 
0.794086 -0.59415346 -0.1280981 
0.6925212 -0.0132637005 0.72127557 
0.7985919 0.2510181 0.54702926 
0.82594377 0.25665814 0.50193983 
0.8798608 -0.4503778 0.1516733 
0.71359897 -0.6588483 0.23810819 
-0.59325653 0.34771028 0.72604704 
-0.7189327 0.060610037 0.69243217 
0.6582127 -0.7527761 -0.00917745 
0.96187913 0.12883002 0.24122906 
0.92809075 0.37174633 0.02126479 
0.19889769 0.8387593 0.5068753 
-0.55662435 -0.0063764793 0.8307399 
0.20055354 0.6307235 0.74964404 
-0.22890027 0.92402387 0.30624285 
0.13809259 0.4350612 0.88974845 
0.6995806 0.6886082 0.19080275 
0.84221375 -0.058167856 0.5359967 
0.29545307 -0.0026397014 0.9553537 
0.30022866 -0.19674605 0.93335617 
-0.63494927 -0.516373 0.57462907 
-0.9826305 0.18498334 0.01478656 
-0.38477218 0.15763722 0.9094509 
-0.7298518 0.62533754 0.27616918 
0.22939907 0.58522797 0.77774316 
-0.29135814 0.18070574 0.9393913 
-0.19456038 -0.23220451 0.9530096 
-0.31074026 -0.03714803 0.9497687 
-0.4711088 0.3365418 0.8153503 
-0.232769 -0.17011322 0.9575386 
-0.18146336 0.28784832 0.94032675 
0.77233946 0.28146324 0.56944734 
-0.17052066 0.51049 0.8428065 
-0.17027217 -0.011325461 0.9853321 
-0.31188 0.67423266 0.6694335 
-0.06093138 0.94049674 0.3342952 
0.2705912 0.9473836 0.17101121 
0.049201727 0.900838 0.43135855 
-0.26930502 0.39085525 0.8801745 
0.2331206 0.96746916 0.098276034 
-0.41619793 0.70557016 0.5735417 
-0.41986707 0.7167448 0.5567662 
0.07304128 0.6793697 0.730152 
0.18293889 0.6940594 0.6962866 
0.7156178 0.66246974 -0.22141616 
0.80351436 0.3327866 0.49357662 
0.7415572 0.20171554 0.6398468 
0.65710187 -0.009089143 0.75374705 
0.36304513 0.6583569 0.6593667 
0.28711924 0.35077932 0.8913565 
-0.11893104 0.006449184 0.9928816 
-0.0043773856 0.65103453 0.7590355 
0.45812157 0.7942809 0.3990519 
0.86600643 0.47888222 0.14389159 
0.18277417 0.6149469 0.7670945 
0.16785838 0.15368395 0.9737581 
-0.18686692 0.61451834 0.76645166 
0.62163013 0.066572845 0.7804768 
-0.30062154 0.035943814 0.953066 
-0.6080961 0.5741847 0.54820716 
-0.5122068 0.2553808 0.82001525 
-0.20187035 0.17912127 0.9628935 
-0.726505 -0.12716386 0.6752925 
-0.68122935 0.53909016 0.4952861 
-0.61367273 0.7295783 0.30186316 
-0.506888 0.49755424 0.7039207 
0.13235024 -0.34756768 0.9282673 
0.11069453 0.67015773 0.73391783 
-0.13655734 0.5553705 0.82031447 
-0.30831024 0.85683227 0.41325927 
-0.116793 0.34610736 0.93089694 
0.43186393 0.5381322 0.7238145 
0.25103998 0.7109793 0.656877 
0.9876958 0.061098948 -0.14395821 
0.8034034 -0.059525516 0.59245247 
-0.44252753 0.3168112 0.838928 
-0.26841664 0.6791279 0.68318224 
-0.35955814 0.21929696 0.9069878 
0.42669296 0.20103747 0.8817693 
0.24879329 0.17497243 0.9526209 
-0.5840626 0.4029646 0.70462084 
-0.40552095 0.893699 0.1919764 
0.17760997 0.019643411 0.9839049 
0.3053635 0.15682837 0.93923277 
0.8083566 0.48544106 0.33302677 
-0.098473564 0.5609506 0.8219717 
-0.65320474 0.07231084 0.75372064 
-0.9823477 0.17462571 0.06707281 
-0.42304578 0.6781337 0.60097164 
-0.57418495 0.4212117 0.70206296 
-0.5975438 0.11698773 0.7932562 
0.152341 -0.30214062 0.94101185 
0.5120112 -0.22731826 0.8283544 
-0.73458606 -0.04325486 0.6771354 
-0.929795 0.27337927 0.24646512 
-0.68164855 0.1957339 0.7050132 
-0.33157 0.15052588 0.931345 
0.25085732 0.027670793 0.9676285 
-0.13041937 0.3352124 0.93307203 
0.07959402 0.609975 0.78841317 
-0.16876447 0.13829134 0.97590685 
-0.22295742 0.41753498 0.8808829 
0.45981443 0.16835684 0.8719098 
0.3145262 0.50807524 0.80183095 
-0.12285118 0.7749223 0.62000245 
0.25030157 0.12140848 0.96052545 
0.4025732 0.24652559 0.88156676 
0.052220535 0.39521912 0.9171013 
0.7319483 -0.1942008 0.6530986 
0.4554519 -0.2574186 0.8522319 
0.36299 0.56178904 0.7433919 
-0.57615477 0.27745944 0.7688055 
-0.577562 0.54590625 0.6069667 
-0.34499556 0.714036 0.60920507 
-0.42731613 0.3260304 0.8432705 
-0.67523366 0.53535545 0.5073994 
-0.58526933 0.66446096 0.46470577 
-0.0031949603 0.90366924 0.42821914 
-0.061434273 0.7472592 0.6616869 
-0.33864293 0.71230185 0.614774 
-0.33334896 0.92761236 -0.16856429 
-0.8649812 0.48769322 -0.118164375 
-0.7744239 0.54498076 0.3213467 
-0.9132167 0.2150429 -0.3461097 
0.33476114 0.07967899 -0.93892825 
0.5172988 0.68950814 -0.50693244 
0.83491856 0.5301373 0.14787038 
0.5689193 0.6862311 0.4532304 
0.2724775 0.78906137 0.55057985 
0.043607138 0.6897941 0.7226912 
0.32043678 -0.018829428 0.9470828 
-0.17942494 -0.23949143 0.95417535 
0.13032581 0.23569238 0.96304953 
0.020009354 -0.12361386 0.99212873 
0.39438468 -0.4313065 0.81144035 
0.35906234 -0.20159824 0.9112807 
0.3846993 -0.247157 0.88933676 
0.5806123 -0.2210551 0.7835968 
-0.840297 -0.21084309 0.49944595 
-0.59718734 0.40254372 0.6937765 
-0.085475564 0.7343036 0.6734183 
-0.23351069 0.8983473 0.3720819 
-0.17222035 0.95368093 0.24664341 
-0.017099552 0.8726099 -0.4881186 
0.7494281 0.53005534 -0.39673552 
0.5477425 0.5995636 0.5835253 
-0.69715595 0.56611055 0.43987793 
-0.77533025 0.6031067 0.18741795 
-0.5907085 0.78950286 0.16657919 
-0.53760684 0.6216758 0.5696474 
-0.09777111 0.33862773 0.93582696 
0.6549731 0.40663683 0.63691187 
0.19429433 0.35633245 0.9139349 
0.29744557 0.466301 0.83312035 
-0.1656886 -0.36727 0.9152377 
0.027484216 0.049222976 0.99840957 
-0.49854392 -0.10365191 0.86064523 
-0.28457946 0.42135188 0.86109066 
-0.39424357 0.4157219 0.81960195 
-0.6011386 0.77206796 0.20626093 
-0.5613478 0.6920673 0.45379686 
-0.9189931 0.1431393 0.36737287 
-0.81966203 -0.1523603 0.5522142 
-0.8621075 0.06811414 0.50212663 
-0.42195067 0.7028415 0.57268804 
-0.086466104 0.95707005 -0.27665988 
-0.2712208 0.7157324 -0.64355767 
0.5888207 0.7803629 -0.21053223 
0.4047093 0.8906448 -0.20727368 
0.34450424 0.580409 0.73786336 
0.41660136 0.25680277 0.8720641 
0.025896184 0.62206984 0.78253347 
-0.018117461 0.755215 0.6552267 
-0.39599428 0.57966983 0.71215975 
-0.4471346 0.21417949 -0.86844563 
-0.022397816 0.7633 -0.64565593 
0.6036071 0.4403356 0.66465265 
0.6290504 -0.20661175 0.74940467 
0.121675 -0.7806522 0.6130068 
0.14947629 -0.47328672 0.86813396 
-0.32202733 -0.13607234 0.9369006 
-0.21537167 -0.50488454 0.8358867 
-0.24348408 -0.5036088 0.8289111 
-0.12461783 -0.6252628 0.77040046 
-0.77076304 -0.33563742 0.54154587 
0.007830385 0.5726196 0.81978387 
0.28696465 0.40620968 0.8675511 
-0.20116314 0.73864675 0.6433774 
-0.49748367 0.8638053 0.07968999 
0.013152441 0.8585323 0.51259094 
-0.36699265 0.8093386 0.45857105 
-0.41363102 0.8439525 -0.34154588 
0.34879565 0.7899807 -0.504254 
0.7254711 0.680203 -0.10495523 
0.9139322 0.40546462 -0.01806595 
0.42725295 0.3824906 0.81924105 
-0.08590292 0.2751895 0.95754457 
-0.75428635 0.13281073 0.6429724 
-0.6743987 0.03192531 0.7376769 
0.42458022 0.6559184 0.62410164 
0.5638144 0.12139441 0.81693125 
0.9253564 0.10261958 0.36494517 
0.35666978 0.36817825 0.8586219 
0.89344215 0.32479197 0.31027627 
0.7042081 0.697638 -0.1318799 
0.28778803 -0.2585486 0.9221338 
0.19360909 0.03184253 0.98056185 
0.38084245 -0.14208212 0.9136585 
0.51061195 -0.15237369 0.84620196 
0.6959212 -0.6396664 0.32637507 
0.48703542 -0.60471255 0.630174 
0.30672035 0.28896314 0.90687543 
-0.09903921 0.69924724 0.70798635 
-0.5454786 0.39860123 0.73727214 
-0.58769494 0.77225 0.24133949 
0.32957473 0.9140916 -0.23625673 
0.24067725 0.97059846 0.0036261827 
-0.46325308 0.56870097 -0.67968804 
0.47897252 0.85391974 0.2034859 
0.21718647 0.93981725 -0.2637681 
0.25270134 0.95616955 0.14792505 
0.09941258 0.3125071 0.9446992 
-0.4528506 0.23153237 0.860999 
0.13758518 0.79392475 0.5922448 
-0.29256883 0.43580142 0.85116434 
0.11072325 0.5619141 0.8197518 
-0.48200864 0.39576116 0.7816911 
-0.21992603 0.057920106 0.9737956 
-0.3231091 0.28016666 0.9039399 
-0.27150196 0.50981116 0.81632066 
-0.18583147 0.971458 -0.14743139 
0.15271243 0.40960422 0.8993906 
-0.64861614 0.6560365 0.3858928 
-0.14511874 0.5988176 0.78762805 
-0.1272055 0.7507411 0.6482335 
-0.46406648 0.31623816 0.82742727 
0.59589344 0.5467601 0.5881875 
-0.02218482 -0.043937825 0.99878794 
0.785132 0.4341306 0.4416996 
0.6417694 -0.03327518 0.76617557 
-0.2562346 0.49770617 0.82863295 
-0.08841624 0.5078164 0.8569161 
0.6857126 0.23338252 0.6894426 
-0.5895061 0.21051872 0.779849 
-0.43568417 0.011756775 0.9000228 
-0.20252658 0.3017382 0.93163145 
-0.5884569 0.5168542 0.62175584 
-0.52357185 0.39745378 0.7535935 
-0.804483 0.028199967 0.593306 
-0.87418747 0.3403097 0.34638944 
0.44964123 0.8830411 0.13439167 
0.14455058 0.8642515 -0.481845 
0.22175089 0.6481577 -0.72850406 
0.093021385 0.37850365 -0.92091376 
0.9946145 -0.03050626 -0.099053144 
0.43861634 -0.75249565 0.49129 
0.88994366 -0.45478308 -0.03424433 
0.69602185 0.24562132 0.67470276 
0.43092078 0.86876386 0.24404237 
0.6935353 0.50817275 0.51065576 
0.81788576 0.0035016672 0.57537 
0.3545912 -0.38917935 0.8501792 
0.16974822 0.49621257 0.85144514 
0.54507023 0.58161646 0.6038384 
0.766952 -0.032741234 0.64086866 
0.4845502 -0.32339492 0.8127896 
0.7176814 0.2846112 0.6355548 
-0.27638558 -0.04059167 0.9601892 
-0.57551247 0.6330704 0.5176943 
-0.4840758 0.6309232 0.60630566 
-0.63632274 0.7138747 0.29236352 
-0.1001225 0.8956504 0.43334273 
0.58329266 0.63576865 0.50553733 
0.6648059 0.083503306 0.7423344 
0.26059845 0.13044724 0.95659393 
-0.47457582 0.46642053 0.7464782 
-0.69601953 -0.3850339 0.6060576 
-0.9835329 -0.14645706 -0.105893984 
-0.20799881 0.53395426 0.8195299 
-0.5810307 0.36246613 0.7287123 
-0.112551875 -0.016606804 0.9935071 
-0.35158247 -0.088605486 0.9319544 
0.14271165 0.06822375 0.9874103 
-0.007906712 0.40103525 0.9160285 
-0.30157128 0.33783314 0.8915849 
0.029776469 0.15144429 0.98801726 
0.1823071 0.03789978 0.982511 
0.6090609 -0.09044731 0.7879493 
0.63107336 0.27586475 0.7250139 
0.6366589 0.37438536 0.674167 
0.34531924 0.012905678 0.9383966 
0.43879926 0.5298263 0.72576815 
0.65438944 0.65904176 0.370727 
0.2806287 0.6884683 0.66877425 
0.023078516 0.0990904 0.99481076 
0.07359199 0.9154161 0.39572397 
-0.096348114 0.6849147 0.72222507 
0.111964904 0.9922341 0.054178514 
0.017364692 0.9131189 0.40732333 
-0.48148957 0.44083762 0.7575157 
0.13100721 0.9544911 0.26792535 
0.56124794 0.46544668 0.6843685 
0.9171359 -0.10555203 0.3843443 
0.71411395 0.37554383 0.5907692 
0.57717085 0.09788347 0.81073594 
0.6955549 0.4477559 0.561888 
0.7280482 -0.110315055 0.6765918 
0.1576363 0.20046173 0.96693635 
-0.21606785 0.38894963 0.8955629 
0.30941626 0.7896242 0.52986336 
-0.476037 0.6653847 0.5750236 
-0.044354472 0.3913082 0.9191902 
-0.79817194 0.6022159 -0.016049704 
-0.26582965 -0.43424663 0.86067677 
-0.3079834 0.1225488 0.94346607 
-0.013912785 0.19007495 0.981671 
-0.24049181 -0.1369078 0.96094745 
-0.14238618 -0.034045648 0.9892255 
-0.20084898 -0.44553858 0.872442 
-0.25289446 0.043643866 0.96650904 
-0.15276125 0.731063 0.6649895 
-0.35979035 -0.2468781 0.89977896 
-0.300837 -0.038239617 0.9529087 
-0.07416074 -0.008590172 0.99720937 
0.10085976 0.68524086 0.72129905 
0.18504347 0.8094968 0.55720174 
0.53551173 0.10010404 0.83857405 
0.6230711 0.2671582 0.7351251 
0.10998792 0.33380502 0.93620354 
0.4602143 -0.008223909 0.8877699 
-0.22187532 -0.018051561 0.974908 
-0.33039144 -0.11974176 0.93621767 
-0.50003135 0.10601945 0.85949326 
-0.46074685 0.061460946 0.885401 
0.26643386 -0.58002317 0.76979613 
0.05567036 0.5297637 0.8463164 
-0.32453826 0.1213362 0.93805784 
0.071698725 0.28227943 0.95664924 
0.06691704 0.34059387 0.9378263 
-0.05866276 0.1282982 0.9899991 
0.32957125 0.4669517 0.8205724 
-0.3111282 0.56359684 0.7652176 
-0.039315052 0.67383325 0.73783684 
-0.012963371 0.18029828 0.9835265 
-0.4920381 0.714077 0.49798852 
-0.017033732 0.12344174 0.9922057 
-0.47178912 0.26534602 0.8408369 
0.19952206 0.2876169 0.9367324 
-0.49170664 0.20513926 0.846252 
-0.9664092 0.24499422 0.07766043 
-0.450587 0.22688809 0.8634195 
0.4973222 -0.14225718 0.8558233 
-0.115703784 0.05261779 0.9918891 
0.029778998 0.30945292 0.9504484 
0.24820872 0.4745804 0.84449154 
-0.06470446 0.50868237 0.85851943 
0.06332094 0.04016495 0.9971847 
-0.08135715 0.444109 0.89227146 
0.28159955 0.66322213 0.69342494 
0.8069418 0.56073064 -0.18554322 
0.41682017 0.5914083 0.6902878 
0.5708734 0.16134882 0.80502814 
0.52395517 0.5769386 0.62658834 
0.1401218 0.44083607 0.88658315 
0.18667708 0.3979308 0.8982221 
-0.19621603 -0.3477709 0.91681767 
-0.4221433 0.05057704 0.9051171 
-0.34761727 0.020491097 0.93741256 
-0.09374526 0.79078454 0.6048734 
-0.5387894 0.55016667 0.63798326 
-0.26658562 -0.015120701 0.96369267 
-0.78317636 0.39984447 0.47619244 
-0.5759535 0.3107971 0.7560971 
0.39225414 0.28819904 0.87354344 
-0.053981464 0.25021732 0.9666837 
-0.7464482 0.42448914 0.5124687 
-0.057039753 0.63028353 0.77426684 
-0.3319853 0.8620386 0.38298205 
0.010770196 0.8726685 0.48819432 
-0.4527553 0.74225056 0.49404132 
0.010278178 0.8642857 -0.50289625 
0.09162003 0.98849905 -0.12031422 
0.5358409 0.8342022 -0.1303128 
-0.05060197 0.9845322 0.16773741 
0.20744683 0.9613555 0.18100154 
-0.16765305 0.9788656 0.11710907 
0.7758375 0.24953613 0.57948947 
0.13400616 -0.142295 0.9807112 
-0.57044137 0.344184 0.745744 
-0.2259508 -0.5867265 0.7776234 
0.24935457 0.021304343 0.96817786 
0.9169611 -0.34915823 0.19305703 
-0.10898132 0.17201723 0.9790471 
0.21125202 0.22597522 0.950951 
-0.2712644 0.59921765 0.7532291 
-0.39969504 0.5502372 0.7331323 
0.10293522 0.28844202 0.9519483 
-0.14186324 0.18405586 0.9726244 
-0.5974715 0.72398484 0.3447809 
-0.17058326 0.9756674 0.13774812 
0.5511659 0.73138 0.40162107 
-0.11944852 0.7243269 0.6790308 
-0.4891821 0.5365454 0.68761903 
-0.09484972 0.8747909 0.4751257 
0.4388798 0.79108644 0.42610666 
-0.29157636 0.41098654 0.8637554 
0.02371442 0.1452183 0.9891154 
0.30381763 0.16117637 0.9389979 
0.22173074 0.24300155 0.94434416 
0.64434576 0.2839725 0.7100551 
-0.14295472 -0.89326257 0.4261997 
-0.32900143 -0.4919116 0.80609006 
-0.9527548 0.16498646 0.2550252 
-0.16837399 0.3234911 0.93113035 
-0.4646395 0.14494699 0.87355626 
-0.009441311 0.7612221 0.64842254 
-0.39162794 0.4807407 0.7845483 
-0.8255211 0.5642892 0.009629748 
-0.54259694 0.77201056 0.33104137 
-0.47523257 0.7870772 0.3932729 
0.38332596 0.7223976 0.5755024 
0.18240203 0.86403406 0.46922794 
0.378675 0.91779244 -0.11942485 
0.24575552 0.96925366 0.012317752 
0.98072046 0.1910827 0.04092575 
0.23465464 0.63281465 0.73789084 
0.3487317 0.025076274 0.9368871 
-0.5389676 0.020116428 0.8420864 
-0.2302042 0.26551577 0.9362198 
0.1049688 0.5777317 0.80944896 
-0.24424124 0.6042523 -0.75843614 
0.74125695 0.6433261 0.1914932 
0.6819646 0.1000489 0.72450995 
0.78941214 0.051004518 0.61174107 
0.7840407 -0.3184159 0.5328148 
-0.30843562 -0.29564768 0.904135 
-0.037674055 0.017911876 0.9991296 
-0.43386763 -0.6892394 0.5802655 
-0.64276373 -0.5905024 0.48801816 
0.3214583 -0.5265248 0.78704274 
-0.38703537 -0.21528773 0.8965795 
-0.69641304 0.2138502 0.685038 
-0.07785153 0.2663209 0.9607353 
-0.24954224 0.71048784 0.6579786 
-0.52283424 0.7229596 0.4516347 
0.20495607 0.7582867 0.6188654 
-0.054539762 0.7583101 0.6496085 
-0.17818889 0.95108354 0.25236657 
-0.11066622 0.4466214 0.8878526 
0.425436 0.45259288 0.78368616 
0.17084719 -0.16349249 0.97163856 
-0.21926436 -0.053813525 0.9741803 
0.035655875 -0.29274037 0.955527 
-0.36923918 0.40951213 0.8342435 
-0.4977945 0.692276 0.52245057 
0.35346714 0.17963578 0.91803706 
-0.02667868 -0.18654549 0.9820841 
-0.0059251646 0.7184968 0.695505 
0.10989593 0.9267204 0.35932222 
0.9764455 -0.12593365 0.17519969 
0.87976956 0.20620653 0.42835104 
0.6173493 -0.5816076 0.52972865 
0.959974 0.2480126 -0.13015258 
0.11544338 -0.66805977 0.735098 
-0.03839166 -0.55988973 0.8276772 
0.37945437 -0.4155295 0.8266496 
0.14319275 0.09645649 0.98498327 
0.4638634 0.55669016 0.68914944 
0.4039668 0.58367133 0.7043711 
0.043479137 0.88412416 0.4652247 
0.059295014 0.8376443 0.5429881 
0.46042284 0.6827652 0.5673117 
-0.15063815 0.9662946 0.20876516 
0.09914186 0.9651906 0.24202934 
-0.28598508 0.952198 0.107385024 
-0.019282509 0.993843 0.109107256 
0.13691755 0.40510508 0.9039599 
0.42212903 -0.009769029 0.9064832 
-0.043582913 0.68958753 0.72288984 
-0.050390653 0.613238 0.78828937 
-0.2583613 0.95721126 0.13036907 
0.3235335 0.3987412 0.8580976 
-0.5514013 0.5594546 0.6188435 
-0.04703316 -0.06752292 0.9966086 
-0.10088226 0.110363185 0.9887582 
-0.64598525 0.56767464 0.5103417 
-0.5741037 0.7373456 0.3559865 
-0.48438615 0.5869463 0.6487405 
-0.66229206 0.6603168 0.35404947 
-0.6096043 0.5329017 0.58685476 
-0.5846822 0.64323395 0.49436504 
-0.420341 0.3658927 0.83032286 
-0.02625618 0.7655332 0.6428605 
0.6198713 0.399782 0.67522883 
-0.02401018 0.0017510946 0.9997102 
0.016157847 -0.574421 0.8184006 
-0.16177203 0.16672438 0.97264224 
0.10778186 0.16423362 0.98051536 
0.29865614 -0.19041066 0.935173 
-0.32439825 -0.25472203 0.9109789 
0.034643345 0.25432357 0.9664985 
0.35822108 0.04277063 0.9326567 
0.08026097 0.8241872 0.5606011 
-0.14462626 0.9068337 0.39589885 
-0.3177561 0.036010146 0.9474884 
-0.26434848 0.75096166 0.6051252 
0.22984889 0.61425096 0.7548942 
0.5839725 0.80759495 0.0822583 
0.32246488 0.5481799 0.7716963 
-0.089036606 0.9707094 0.22314993 
0.7121567 0.66804636 0.21574727 
0.9659248 0.06078414 0.25158447 
0.9381407 0.14004412 0.31666988 
0.30549803 0.06536099 0.9499468 
-0.048818097 0.042301286 0.9979116 
0.3139217 0.0010693752 0.94944835 
0.45296142 -0.20382464 0.8679179 
0.44918463 -0.7403489 0.50011665 
0.12608182 0.30310988 0.9445782 
0.49065778 -0.5591198 0.6683113 
0.48277447 -0.561747 0.6718401 
0.10218025 -0.06886986 0.9923791 
-0.003550343 -0.0032418098 0.9999885 
-0.27170312 -0.33560902 0.9019668 
-0.41592842 -0.12168849 0.90121883 
-0.5713093 0.42780396 0.700421 
-0.75618637 0.46674624 0.45861775 
0.2304603 0.031726487 0.9725644 
0.3726042 -0.3942553 0.8400767 
0.55710596 -0.090587966 0.82548577 
-0.16487756 0.33358794 0.9281889 
-0.36934918 0.45911956 0.80795455 
-0.6916651 0.26714212 0.6709951 
-0.91851 0.3336761 0.21213146 
0.27142182 0.5936284 0.75758535 
0.19723052 0.56189674 0.8033506 
-0.20296064 -0.09507317 0.9745605 
-0.34835583 -0.4388367 0.82829386 
-0.35243192 -0.019507857 0.9356341 
-0.5476649 0.047426056 0.83535254 
0.019773671 0.05188539 0.99845725 
0.46798795 0.35078716 0.81113243 
0.030078838 -0.1309793 0.99092877 
0.13372266 0.12745877 0.98278815 
0.6146706 0.27151328 0.7405813 
0.49693292 -0.4730933 0.7274892 
0.34943858 -0.050805394 0.9355809 
0.24171034 -0.3337411 0.9111493 
-0.26743984 0.14059336 0.95326257 
-0.24596977 0.21652369 0.9447838 
0.17511693 -0.31420273 0.9330653 
0.0052258307 -0.05491497 0.9984774 
0.1551173 0.2711345 0.9499604 
0.32838622 0.28130832 0.9016808 
0.091300145 -0.036944572 0.9951379 
-0.41454464 0.043059964 0.9090097 
-0.13284293 0.4729437 0.8710208 
0.55049664 0.7333869 0.39887 
0.46202776 0.3486739 0.8154488 
0.6051595 0.5290417 0.59489226 
0.029670682 0.63052034 0.7756054 
0.6557835 0.02589143 0.7545049 
0.15983707 0.85280454 0.49716875 
0.49558833 0.6746569 0.5470194 
0.37951443 0.6248201 0.68232596 
0.030969018 0.94149673 0.33559626 
0.1500787 0.92777 0.34164184 
-0.0926084 0.20835914 0.9736582 
-0.40918675 0.54647017 0.7307097 
-0.39953738 -0.39201146 0.8286718 
-0.29425403 -0.4068168 0.86482066 
-0.023589337 -0.036454502 0.9990569 
0.21118215 -0.03363436 0.97686785 
-0.19555761 0.11728557 0.9736537 
-0.10777885 -0.0018579568 0.9941732 
-0.022860372 -0.33735618 0.9410995 
0.20828675 0.57465476 0.7914472 
-0.79824257 -0.20102105 0.56780213 
-0.36767906 0.32047006 0.8729897 
0.011506754 0.15139043 0.98840714 
0.042616513 0.23348914 0.9714251 
0.1255757 0.38640434 0.91374093 
0.19621588 0.79897314 0.5684553 
0.8459858 -0.49693727 0.1932913 
-0.5085239 0.52863437 0.6796685 
0.024032896 0.14504974 0.9891325 
-0.07984783 0.33275002 0.93962854 
-0.6274312 0.015563423 0.7785165 
-0.96120447 -0.20883512 0.18020517 
-0.62157786 0.1770854 0.76307386 
-0.24378443 -0.22992064 0.94218135 
-0.81070703 0.44326916 0.38244823 
-0.22379518 0.29149023 0.93002653 
-0.3804 0.5486005 0.7445357 
-0.31420892 0.15263808 0.9370029 
-0.18832904 0.11231981 0.97566205 
-0.08005773 0.71912897 0.6902495 
-0.014058041 0.058292396 0.99820065 
-0.015285957 0.103270985 0.99453586 
0.34973252 0.25897995 0.9003426 
-0.58161294 0.2575159 0.7716295 
0.07862787 -0.73378503 0.6748165 
0.07115344 -0.43244055 0.8988506 
-0.8303919 0.087470815 0.55027115 
-0.95044565 0.06387114 0.3042592 
-0.5965136 0.4101272 0.6899038 
-0.83679277 0.5375555 0.103980936 
0.07486251 0.44651628 0.8916384 
0.045295224 0.74983233 0.6600757 
-0.3177656 0.12514725 0.9398741 
-0.05529954 0.2586756 0.96438015 
0.35569575 0.62968796 0.69063276 
0.33704603 0.25921696 0.9051003 
0.34419617 -0.6605409 0.66724414 
0.44823027 -0.43578655 0.78049964 
0.5847166 -0.032107793 0.81060207 
-0.59384054 0.57941675 0.558238 
0.39002648 0.6878048 0.61221236 
-0.4946729 0.77895886 0.3853856 
0.4515656 -0.18528147 0.8727883 
-0.111145414 0.77650213 0.6202347 
-0.32710302 0.07019965 0.9423776 
-0.41761398 -0.06822466 0.9060596 
-0.4355832 -0.04756382 0.89889103 
0.027508134 -0.29084152 0.9563757 
0.008096331 -0.08349643 0.9964753 
-0.80440855 0.36774904 0.46657014 
-0.7460072 0.628698 0.21957256 
-0.27012286 0.044133995 0.9618139 
-0.6460524 -0.00687306 0.76326215 
0.41851965 0.48127922 0.77020234 
-0.5137168 0.5196612 0.68267655 
-0.2580575 0.86607504 0.4281595 
-0.21504006 0.6061466 0.7657311 
-0.54516757 0.7219024 0.42620343 
-0.2916957 0.38945082 0.873637 
-0.07341964 0.7074727 0.70291674 
0.59361553 0.80087566 0.078860566 
0.5349646 0.795079 0.28576648 
-0.03813178 0.8149765 0.5782382 