# OOMMF: rectangular mesh v1.0
# Segment count: 1
# Begin: Segment
# Begin: Header
# Desc: Time (s) :  6.4e-08
# Title: m
# meshtype: rectangular
# meshunit: m
# xbase: 2e-09
# ybase: 2e-09
# zbase: 5e-10
# xstepsize: 4e-09
# ystepsize: 4e-09
# zstepsize: 1e-09
# xmin: 0
# ymin: 0
# zmin: 0
# xmax: 1.024e-06
# ymax: 1.024e-06
# zmax: 1e-09
# xnodes: 256
# ynodes: 256
# znodes: 1
# ValueRangeMinMag: 1e-08
# ValueRangeMaxMag: 1
# valueunit: 
# valuemultiplier: 1
# End: Header
# Begin: Data Text
0.5044363 0.48502672 0.71434814 
0.822436 0.4181024 0.3857325 
0.89429665 0.39191586 0.21595235 
0.44723326 0.53018045 0.72034097 
0.4554293 0.60632706 0.6518833 
-0.29368174 0.48898345 0.8213685 
-0.13069557 0.8625553 -0.48879144 
-0.29120237 0.44784394 -0.84536207 
-0.15274443 0.9566746 -0.24787693 
0.5593073 0.54201716 -0.62721044 
0.65696496 0.48173293 0.57994014 
0.59318304 0.58001566 0.5583151 
0.20155635 0.661139 0.7226828 
-0.2405185 0.7721084 0.5882172 
0.046599034 0.5126443 0.8573356 
0.16690263 0.30160376 0.93871117 
0.0142195765 0.41722187 0.90869343 
0.059401408 0.92748153 0.3691201 
0.30874905 0.58709496 0.74832714 
-0.02584379 0.6191999 0.78480816 
0.046428457 0.2639868 0.96340823 
0.26327753 -0.2756885 0.92448944 
0.4552065 0.8415194 0.29091617 
0.19080362 0.97229093 0.13507211 
0.120449886 0.9620216 0.24496217 
-0.17193398 0.4906013 0.85425353 
0.12951353 0.70883995 0.6933774 
-0.24850765 0.6810593 0.6887687 
-0.7647781 0.41891858 0.48951197 
-0.65645325 0.26266548 0.7071606 
0.010925914 -0.5151873 0.85700804 
-0.74855417 0.10439943 0.6548034 
-0.1665788 0.062927336 0.98401815 
0.06443658 -0.24668369 0.96695155 
0.013793094 0.30328655 0.95279956 
-0.6046787 0.5978852 0.52621007 
-0.53167695 0.8419896 0.09150499 
-0.27363142 0.4839964 0.83118796 
0.21572646 0.8897485 0.40225577 
0.78230244 -0.18394811 0.5951185 
0.4132195 0.47198927 0.7787656 
-0.05706256 0.6187467 0.7835154 
0.27580518 0.8892105 0.36501545 
-0.29716247 0.26313272 0.91785383 
-0.35944292 0.30313447 0.88255906 
-0.36412743 0.2067773 0.9081049 
-0.4979975 0.21268778 0.8406916 
-0.0800559 0.50921154 0.85691 
-0.32016614 0.548778 0.7722283 
-0.5978042 0.6572878 0.45891497 
0.5322757 0.61539894 -0.58134913 
-0.37195122 0.7990858 -0.47234964 
-0.50968575 0.85307324 -0.1117436 
-0.45657334 0.87961406 -0.13349108 
-0.81974316 0.57221437 -0.024329303 
-0.3884755 -0.19352143 0.9009086 
-0.14516722 0.76936954 0.62209094 
0.2634453 0.13742793 0.9548352 
0.02139251 0.64936763 0.7601738 
-0.13882087 0.091150746 0.9861137 
-0.65815926 0.35682943 0.66294736 
-0.66633755 0.50897044 0.54492515 
0.6326155 0.74569327 0.20913918 
0.67497754 0.37004197 0.6383372 
0.9035962 0.125529 0.40958068 
0.95156443 0.1484812 0.26921833 
0.17055137 0.4556457 0.8736699 
0.017346388 0.502209 0.86457235 
0.28053758 0.7255074 0.62844074 
0.016190784 0.9611195 0.27565786 
-0.19188912 0.771593 0.6064841 
-0.15344168 0.3361135 0.929238 
0.63261414 0.15479477 0.75883985 
0.7573118 0.2985571 0.58081186 
0.5449509 0.77787817 0.31294432 
-0.67724925 0.6612472 0.3226233 
-0.43440259 -0.03987859 0.89983565 
-0.8510994 0.06640339 0.5207884 
-0.8333106 -0.16759512 0.5267878 
-0.5658424 0.018725673 0.82430077 
-0.30803308 0.6911443 0.6537853 
-0.641847 0.4920105 0.5881821 
0.07595216 0.6126308 0.7867114 
0.50037396 0.1698829 0.8489793 
0.34231395 0.44072068 0.8298111 
0.5421821 0.7538506 0.3711442 
0.3782709 0.41913635 0.82537013 
0.41658175 0.6342191 0.65132624 
-0.072955295 0.8655041 0.4955605 
-0.027842443 0.5447935 0.838108 
-0.08550617 0.8191318 0.5671965 
0.11349067 0.9453292 0.30573317 
0.56774366 0.7570374 0.3233597 
0.2765789 0.9594955 -0.053597193 
0.60976994 0.7487451 -0.259926 
0.7595725 0.63747585 -0.12912892 
0.3527569 0.23151183 0.9066229 
0.34803855 0.7202595 0.60007954 
0.27388278 0.49027917 0.8274145 
-0.5806087 0.11945532 0.805372 
-0.556039 0.27732888 0.78352374 
-0.071606025 0.1762959 0.98172927 
-0.3821853 0.50660217 0.77284455 
-0.64898646 0.123315096 0.7507396 
-0.549221 0.74725336 0.37412408 
-0.2671142 0.42084146 0.8669156 
0.39906716 0.6821682 0.6126924 
0.12732065 0.5959894 0.7928343 
-0.06500673 0.20210895 0.9772033 
-0.42403558 0.5527143 0.71742654 
-0.1503689 0.68568224 0.7122002 
-0.21032342 0.16537338 0.9635433 
-0.44826823 0.05150398 0.8924141 
0.27307957 -0.06538569 0.9597668 
0.24366358 -0.28310728 0.9276197 
-0.052309737 0.05149518 0.99730235 
0.177036 0.24592096 0.95298535 
-0.4363172 0.7939711 0.42336413 
-0.5391192 0.74353456 0.39560968 
-0.49799252 0.0538797 0.86550593 
0.15047862 0.69505334 0.70303416 
-0.42319834 0.83863825 -0.34291297 
0.28152633 0.75850475 -0.58771884 
0.36654878 0.85579437 0.36504516 
-0.031314775 0.9593975 0.28031406 
0.41769698 0.7825943 0.4616009 
-0.18579844 0.9396793 0.28719625 
-0.7429624 0.6600765 0.11093169 
0.035512168 0.96869695 0.24569336 
0.7353685 0.28775227 0.6135405 
0.49873495 0.31708196 -0.8066737 
0.2538077 0.9342272 0.25060162 
-0.10285374 0.34444806 0.9331542 
-0.34029752 0.8579572 0.38484678 
0.020125013 0.99439466 0.103799015 
-0.3133162 0.92526656 0.21381028 
-0.37963954 0.87230325 0.30815747 
-0.09574919 0.6209494 0.7779807 
-0.45588824 0.6832589 0.5703712 
-0.07455338 0.89913976 0.4312652 
0.7326781 0.21314752 0.6463366 
0.1375306 0.6613532 0.73735833 
0.24942894 0.2663116 0.931055 
-0.08911166 0.336689 0.9373898 
-0.46580312 0.1620878 0.8699167 
-0.0081597455 0.6265072 0.77937305 
0.9724101 -0.1565185 0.17297575 
0.64635605 0.21148182 0.7331435 
0.038267642 0.5003644 0.86496884 
0.19171982 0.293337 0.9365879 
0.45659268 0.6272658 0.6309206 
0.39740786 0.25956318 0.88016707 
-0.21717912 0.61430615 0.75859153 
-0.4836483 -0.045511104 0.8740785 
0.38343233 0.3000266 0.8734779 
-0.24935521 0.07131126 0.96578294 
-0.3988101 0.22746934 0.888374 
-0.06129825 0.61772853 0.7839987 
-0.5667459 0.21507096 0.79532623 
-0.15000676 0.9623505 -0.22667067 
0.0049599563 0.9869012 -0.1612497 
0.21451409 0.9506821 -0.22402555 
0.39275864 0.83398885 0.38756078 
0.2695058 0.81853265 0.5073174 
-0.5488447 0.8245911 0.13718237 
-0.054260217 0.9663065 -0.25161013 
-0.34740487 0.75757575 -0.55262 
-0.19441187 -0.23044614 0.95346665 
-0.3934469 0.88600516 0.24534574 
0.1493775 0.87822235 0.45432597 
-0.0189284 0.528885 0.8484825 
-0.21413898 0.5167372 0.8289313 
-0.06928056 -0.99537903 0.06648961 
-0.27855912 0.66094536 0.6968186 
-0.18323046 0.6057587 0.7742628 
-0.2779154 0.8248298 0.49236065 
-0.26549172 0.8282787 0.4934253 
-0.3443184 0.82539994 0.44739237 
0.4628831 0.8760734 0.13503598 
0.33362788 0.5086885 0.7936804 
0.5753614 0.574493 0.5821659 
0.61309403 0.11139884 0.78211635 
0.20181428 0.85083765 0.48512518 
-0.45016462 0.6456922 0.61679286 
-0.10428793 0.45770282 0.88296777 
0.081026845 -0.08582535 0.99301 
-0.38612437 0.6748159 0.628913 
-0.6566019 0.6394401 0.39998788 
-0.025034549 0.9812407 0.19115461 
0.5189568 0.524387 0.67505723 
0.29294166 0.6621338 0.6897566 
0.7283199 0.17069787 0.6636358 
-0.114704944 0.97156096 0.2071527 
-0.23208557 0.56280655 0.79333794 
0.38761383 0.64657605 0.65703505 
-0.17390466 0.6118888 0.7715888 
0.16437334 0.4970647 0.85200244 
-0.24723487 0.7410577 0.6242663 
-0.029470142 0.5079739 0.8608682 
0.03797586 0.7270304 0.6855543 
-0.23535435 0.831563 0.5031017 
0.42800385 0.90364635 0.015361645 
-0.13990636 0.7638415 0.6300575 
0.54260296 0.8003333 0.2550464 
0.10752035 0.98489225 0.135745 
0.12807451 0.6850444 0.7171549 
-0.016233785 0.7917436 0.6106379 
-0.10252209 0.5387097 0.8362303 
-0.16403928 -0.3530795 0.92110044 
-0.30013204 0.34433866 0.8895796 
-0.9775768 0.18766324 0.095531054 
-0.83155155 -0.15542121 0.5332601 
-0.9043622 0.38887778 0.17579316 
0.19518338 0.8904416 0.41111726 
-0.16299224 0.79817563 0.57995623 
-0.14351308 0.98778266 0.060741246 
0.482276 0.8515438 0.20562862 
0.50576174 0.806099 -0.30726132 
-0.56756264 0.79798895 0.20269768 
0.33222172 0.7623574 0.5553736 
0.036353752 0.20024125 0.97907203 
0.1049162 0.50725025 0.85538864 
-0.65257263 0.63825494 0.4083867 
-0.42105353 0.90030754 0.11027356 
-0.48151222 0.8763443 -0.012913473 
-0.42823553 0.9034192 -0.021170348 
0.4492282 0.7343295 -0.5088754 
0.92976874 -0.16785207 0.3276518 
0.7007635 0.2085466 0.68223083 
0.16890389 0.1673948 0.9713138 
-0.78942275 -0.13957088 0.5977724 
-0.545307 0.78002596 0.30691984 
-0.42993125 0.9008548 -0.060164932 
-0.15600295 0.65996313 0.734923 
0.06861161 0.213373 0.9745586 
0.36003444 -0.0032088177 0.93293357 
0.32454693 0.6329394 0.7028919 
-0.023617435 0.75328183 0.65727377 
-0.7705379 0.4718049 0.42856917 
-0.38195 0.29886186 0.874526 
-0.79348105 0.36559027 0.4865506 
-0.7301302 0.6109246 0.30607358 
0.028928608 0.9853141 0.16828375 
0.33168167 0.6805686 0.6533098 
-0.60911703 0.29571617 0.7358862 
0.063806586 0.5779224 0.8135935 
0.40846753 0.8973456 -0.16710895 
0.25364482 0.8522085 0.45760798 
-0.06788171 0.99723786 0.03014501 
0.44333163 0.17077166 0.87993985 
0.06783916 0.927577 0.36742175 
-0.64286554 0.7065676 -0.2957806 
0.115945466 0.9850927 -0.12707876 
0.14630699 0.7301332 0.6674578 
0.42555326 0.40831155 0.80758053 
0.7179576 0.007298229 0.6960487 
-0.11319681 0.9812093 0.15625267 
-0.056352492 0.9827792 0.17598172 
0.055551708 0.74140704 0.6687523 
0.26622126 0.6194547 0.73851347 
-0.27982157 0.80467623 0.5236374 
-0.35747832 0.931104 0.072488956 
-0.4341915 0.8823307 -0.18157753 
0.5901633 0.62870604 -0.5063952 
0.40923706 0.8682756 -0.2803971 
0.8088794 0.29100317 -0.51091236 
0.8148341 0.43953443 0.3779617 
0.40516496 0.13524294 0.9041852 
0.42259657 0.53898257 0.72863567 
0.005926466 0.3319494 0.9432787 
0.052268516 0.36895373 0.927977 
-0.06862829 0.43127507 0.89960665 
0.033710793 -0.08663933 0.99566925 
0.44432676 0.27228722 0.85348314 
0.46173826 0.181053 0.86834186 
0.27508226 0.312618 0.90917534 
-0.16651458 0.4423925 0.8812274 
-0.685082 -0.6626278 0.30263367 
0.09890734 0.9362859 0.3370254 
-0.020198673 0.8241714 0.56598026 
0.48310176 0.66405916 0.5706472 
0.3062476 0.9283374 0.21071821 
0.034195352 -0.12621532 0.9914133 
0.40779844 -0.30965877 0.8589598 
-0.39554492 0.17533946 0.90155447 
-0.38315222 0.1802817 0.9059211 
-0.07059396 0.5216474 0.8502355 
-0.6844747 0.4177336 0.597489 
-0.48795137 -0.19451272 0.8509221 
-0.21180712 -0.4480736 0.86854345 
0.05997655 0.2855903 0.9564733 
-0.33644766 0.46474823 0.8190311 
-0.027102113 0.6701255 0.74175286 
-0.32100496 0.69941664 0.6385704 
-0.46722487 0.19986649 0.86125165 
0.034400463 0.069111295 0.9970157 
0.19418015 0.46636745 0.8630153 
-0.315197 0.80817455 0.49749854 
-0.24273297 0.90011334 0.36176884 
0.26610574 0.94795007 0.17486703 
-0.18392687 0.093834005 0.9784509 
-0.026853472 -0.27380058 0.9614116 
-0.50541985 0.67734694 0.5345577 
0.36862943 -0.19393091 0.9091222 
-0.9628233 -0.019243598 0.26944578 
-0.6604508 0.13080037 0.739389 
0.04025189 0.80726594 0.5888137 
-0.8307121 0.05581152 0.55389774 
-0.5378074 0.03268287 0.8424341 
-0.8368925 0.08107769 0.5413292 
-0.34322318 0.6972987 0.62926346 
-0.62792456 -0.13325751 0.76678115 
0.0020436263 0.04835108 0.9988284 
0.1402429 -0.1810121 0.97343034 
-0.059683822 0.13344471 0.98925745 
0.060342748 -0.47280535 0.8790984 
-0.12018792 0.08366453 0.98921955 
0.31948084 -0.2820449 0.90464514 
-0.17268081 0.29650643 0.9392898 
0.8578786 -0.20235392 0.47233188 
0.16575152 0.120460756 0.9787828 
-0.109329715 0.58820564 0.8012873 
0.025331696 0.39389122 0.918808 
-0.56132054 0.2196243 0.79792506 
-0.048343357 0.93451965 0.3526131 
-0.32569438 0.41925314 0.8474374 
-0.21204132 0.49491206 0.8426746 
-0.4938932 0.28537452 0.8213593 
0.18743268 0.17842779 0.9659362 
0.31007457 0.26606175 0.91272396 
0.089364305 0.3867794 0.9178321 
-0.013670195 0.63864243 0.76938236 
-0.41283306 -0.2098151 0.8863107 
-0.73572963 0.02984674 0.67661744 
-0.82974964 -0.21863411 0.5135317 
-0.51150346 0.10406184 0.85295683 
-0.5330704 0.28531164 0.7965132 
0.64553523 -0.58213085 0.49437633 
0.06273237 0.21237956 0.9751716 
0.55264395 0.6851338 0.47452748 
0.9716888 0.17423467 0.15957192 
0.836374 0.018268175 0.54785484 
0.5696095 0.0751146 0.81847584 
-0.44295433 -0.14707272 0.88439876 
-0.24604891 0.23931393 0.9392491 
-0.22945796 -0.09733879 0.9684391 
-0.13005778 0.7078286 0.69430816 
0.3194338 0.90946573 0.26614717 
0.4543838 0.8668769 0.20508544 
0.1477743 0.96290296 0.22578886 
0.82973915 0.39829874 0.39101273 
0.52872604 0.6316523 0.5669781 
0.6763251 0.1262651 0.7257008 
0.41975105 0.27049622 0.86639535 
0.4437806 0.50757265 0.7385316 
0.056261193 0.3313476 0.94182986 
0.20211062 0.18080111 0.96252906 
-0.08804451 0.63389504 0.7683914 
-0.011181543 0.40081787 0.9160896 
0.6604742 0.24529834 0.7096496 
0.0075347503 -0.053976096 0.9985138 
0.47209176 -0.086747564 0.87727094 
0.11501226 0.10978497 0.9872789 
-0.77278095 0.01993407 0.6343597 
-0.46238443 0.46208182 0.75675696 
-0.5169174 0.46986717 0.7155567 
0.12727556 0.08819236 0.9879389 
0.12241041 -0.38818872 0.91341406 
0.61656874 -0.3878716 0.68512684 
0.88107073 0.013683639 0.4727866 
-0.5591464 0.15764946 0.81394225 
0.49373198 -0.66886294 0.5557438 
0.112239935 -0.0048466097 0.9936694 
-0.32305717 0.04473464 0.9453216 
-0.21270368 0.3829397 0.8989519 
-0.038819492 0.44558042 0.89439994 
0.43412274 0.892834 0.119937636 
0.39351177 0.5529977 0.73439914 
-0.33489847 0.4782749 0.8118474 
-0.1609883 0.354735 0.9210027 
-0.2669216 0.26081505 0.9277546 
0.18864383 0.78664976 0.587874 
-0.07285849 0.8681724 0.49088544 
-0.19345073 0.7639528 0.61559165 
-0.0607897 0.6420991 0.7642077 
0.78834766 0.5811712 -0.2018617 
0.48128614 0.78022677 -0.39951208 
0.5932482 0.51570815 0.61814386 
0.3241313 -0.23607008 0.916084 
-0.24377817 0.6945903 0.6768431 
0.096196905 0.93969667 0.32820162 
-0.4839419 0.33813852 0.80713236 
-0.3798695 0.65592825 0.6522709 
-0.15436184 0.2996193 0.94148856 
-0.37578565 0.12818328 0.91779864 
-0.4189901 0.094179876 0.9030933 
-0.15195422 0.5864034 0.79563874 
-0.42072454 0.3477018 0.83791065 
0.2315211 0.73192793 0.64084285 
0.20824815 0.9618805 0.17725341 
-0.1468975 0.37570485 0.91502297 
0.087233394 0.18176146 0.9794657 
0.83904606 0.3204428 0.43967956 
0.5467468 0.26707077 0.7935624 
0.5815765 0.672408 0.45786053 
0.08780833 0.9140967 0.39587504 
0.22705954 0.3395521 0.9127696 
0.1889155 0.38897723 0.9016695 
-0.25928822 0.4780444 0.839192 
-0.2069496 0.40647602 0.8899153 
-0.061207883 0.41127434 0.9094543 
0.27028504 0.34728968 0.8979621 
0.07959251 0.106971405 0.9910713 
0.62977123 0.2937988 0.7190762 
-0.20784874 0.29595953 0.93231267 
-0.2714547 0.8460538 -0.45880866 
0.053016067 0.99407774 -0.094862044 
-0.67333657 0.5741803 -0.4657628 
0.24302112 0.96357626 0.11163142 
-0.40740246 0.6528765 0.63857317 
-0.35589424 0.86024565 0.36512583 
-0.61894774 0.55497915 0.5557894 
-0.6762148 0.73665833 0.008259547 
-0.57593393 0.5126156 0.6368088 
-0.47728676 0.5819131 0.6584638 
-0.20910078 0.66840243 0.71380323 
0.22809348 0.3542197 0.90691894 
-0.33553112 0.3903014 0.8573703 
-0.15635045 -0.035024535 0.98708045 
-0.4278044 0.12932746 0.89457136 
-0.2753003 0.041072678 0.9604806 
-0.6421663 0.6495102 0.40713507 
-0.57246876 0.7996108 0.18138936 
-0.22394632 0.34583303 0.9111793 
-0.056060173 -0.3325043 0.9414341 
-0.17929845 0.5321206 0.82746583 
0.033439964 0.2302647 0.9725534 
0.58709055 0.5809211 0.5637867 
0.20533219 0.41793635 0.88496774 
-0.3467408 0.5751284 0.7409442 
-0.29849085 -0.21355209 0.9302144 
0.57927036 0.5244786 0.6239937 
0.14240904 0.5712712 0.8083124 
0.048965506 0.8916003 0.45016807 
0.42271507 0.73074394 0.5360274 
0.66703945 0.3344244 0.6657468 
0.08410251 0.48786741 0.8688569 
-0.054701194 0.6017917 0.79677767 
-0.2270226 -0.09413913 0.969329 
0.48572755 -0.17696325 0.8560099 
0.35685897 0.10052044 0.92873424 
0.22925304 0.79804474 0.55728596 
-0.077179775 0.7524995 0.654055 
-0.10310726 0.6949012 0.7116749 
-0.9405144 0.17343381 0.29215327 
0.13390672 0.9866437 -0.092753835 
-0.051889595 0.5175664 0.8540683 
0.04623871 0.6015717 0.79747957 
-0.60002446 0.5995232 0.5296628 
-0.39757815 0.65410143 0.64349276 
-0.4701599 0.6832342 0.5586957 
-0.5593887 0.7591802 0.3327606 
-0.11975603 0.59032404 0.79823315 
0.52989495 -0.19658902 0.8249631 
-0.2812292 0.38755584 0.8779013 
-0.023209171 0.5517722 0.8336719 
0.22753058 0.17536967 0.9578494 
-0.9431499 0.15483415 0.29410002 
-0.32535663 0.7470684 0.57968265 
-0.2259734 0.59057266 0.7746999 
0.009582317 0.6927719 0.7210932 
0.2412943 0.48340937 0.8414823 
0.45761997 0.2774074 0.8447657 
0.18006292 0.10642086 0.9778814 
-0.2930399 0.5930907 0.7499141 
-0.3171676 0.40878573 0.85574466 
-0.40197486 0.5335513 0.74413663 
-0.015420013 0.33816612 0.9409601 
-0.7367093 0.48390087 0.47233397 
-0.6608996 0.7462243 0.079756185 
-0.21934047 0.94440836 0.24491356 
-0.5000887 0.63559896 0.58815414 
0.46107653 0.8598556 0.21921833 
0.93999565 0.330035 0.08651653 
0.6849352 0.47967067 0.548434 
0.49958843 0.03903217 0.86538315 
0.2338582 -0.27403143 0.9328543 
-0.06830795 0.6441336 0.76185685 
-0.5453468 0.48154548 0.6860838 
0.14445196 0.81859195 0.55591446 
0.33185494 0.5245811 0.7840198 
0.09549562 -0.061104964 0.9935527 
-0.48911977 0.6690052 0.55963737 
-0.7273712 0.18316023 0.6613497 
-0.77089834 0.21493925 0.5995973 
-0.9058181 0.016491191 0.4233459 
-0.47354326 -0.19089638 0.8598346 
-0.70237505 0.2778 0.6553598 
-0.34498888 0.6443751 0.68246865 
0.376936 0.7702054 0.51449305 
0.10458241 0.6517878 0.75115585 
-0.5084838 0.7337255 0.45065635 
0.049100794 0.97021013 0.23723716 
-0.0948607 0.84262484 0.53007996 
-0.06284675 0.7112928 0.7000807 
-0.20145613 0.4363076 0.87695557 
-0.23025657 0.4665507 0.8539979 
0.08468524 0.80360585 0.58910626 
-0.3925256 0.32819167 0.85919374 
-0.012345845 0.15901262 0.98719937 
-0.5896361 0.51593935 0.6213984 
-0.50979954 0.6798868 0.5271227 
0.35120103 0.67751735 0.6462416 
0.5338805 0.71205086 0.45602125 
0.0878889 0.7891702 0.6078536 
0.39461473 0.43302786 0.8104111 
0.12846349 0.38296738 0.9147859 
-0.261051 0.70406246 0.6604154 
-0.5259806 0.83072037 0.18234071 
-0.028608467 0.9470365 -0.31984907 
0.106717825 0.77532405 -0.6224822 
0.49835297 0.37113205 -0.7835211 
0.09724742 0.9649656 0.24368925 
0.92348236 0.22037096 0.3140332 
0.53076166 0.84682095 0.034446627 
0.5406731 0.7741375 0.32921693 
0.3780084 0.54736185 0.7466624 
0.42454726 0.5900935 0.68669444 
0.28238532 0.454217 0.84495306 
0.27727866 0.48889452 0.82710266 
0.32802856 0.34663936 0.878771 
0.5893124 0.41161957 0.69518363 
-0.39078808 0.31854102 0.8636066 
-0.048597433 -0.09813122 0.99398625 
0.27805626 -0.3026315 0.91164625 
0.017797729 -0.085776985 0.9961554 
-0.24167883 0.36949205 0.8972553 
0.39823174 0.55766577 0.7282997 
0.80002546 -0.02014256 0.5996279 
-0.030294375 0.26398602 0.96405065 
0.15642516 0.4070466 0.8999135 
0.65345633 0.30580372 0.6924442 
-0.09752837 -0.35788107 0.92866 
0.1725222 0.30113888 0.9378441 
0.18974602 -0.4200453 0.88744485 
-0.033450566 0.09427821 0.99498385 
-0.15965405 0.28654578 0.9446704 
0.1813499 -0.044860795 0.982395 
0.21967794 -0.37106445 0.9022488 
0.0383414 -0.12627116 0.99125457 
0.34869215 -0.24313927 0.90515035 
0.06249267 0.2601242 0.9635508 
-0.18945524 0.33662805 0.92238194 
-0.3407659 0.3638367 0.86689186 
-0.41062963 0.59703225 0.68915594 
0.07091282 0.7872833 0.61250025 
-0.33957538 0.08347799 0.9368672 
-0.56090003 0.29968917 0.7717368 
-0.95173615 0.26609284 0.15294749 
0.21800074 -0.49956393 0.83839834 
-0.16266768 -0.29599652 0.941236 
-0.49538994 -0.39553383 0.7733964 
-0.5219304 0.07785288 0.8494278 
-0.46212876 0.4142105 0.7841345 
0.0696138 -0.06603685 0.9953859 
-0.3313688 0.31512985 0.8893188 
-0.19005112 0.22969063 0.9545276 
-0.6241915 -0.15985309 0.7647431 
-0.37613958 0.16221255 0.9122533 
-0.2897829 -0.37854847 0.87904894 
0.101130664 -0.690949 0.7157947 
-0.40953714 0.143768 0.90089405 
-0.1168619 -0.017789349 0.9929888 
-0.7313987 0.00458142 0.6819347 
-0.40186596 0.00093810936 0.9156981 
-0.1719135 0.63271326 0.7550627 
0.29175183 0.38724008 0.8746006 
-0.06743981 -0.013312191 0.9976346 
0.4868178 0.05803957 0.87157315 
0.6053811 0.40053746 0.6878107 
0.38454401 0.40455037 0.82973784 
0.28367758 0.8293869 0.48129445 
-0.39245284 0.8652873 0.31186318 
-0.09893568 0.8205185 0.5629931 
-0.32633272 0.8729574 0.36256346 
0.5819947 -0.035817105 0.8124034 
0.33077574 -0.028882243 0.9432674 
0.15315501 0.31202248 0.93764895 
-0.9677533 -0.005743154 0.25183445 
-0.57033896 0.16557388 0.80454886 
-0.46219754 -0.036168125 0.8860391 
0.2866111 -0.6994102 0.6547363 
0.27649304 -0.31437927 0.90813947 
0.8033317 -0.30325145 0.51253957 
0.22275943 0.33120465 0.916887 
0.6117004 0.14899102 0.7769327 
0.22540137 0.016901633 0.9741194 
-0.4825298 0.007038519 0.8758513 
-0.2200074 -0.51676023 0.8273788 
-0.20673795 -0.25842956 0.9436491 
-0.36876604 0.2724334 0.8887022 
-0.48549047 0.29218376 0.8239707 
-0.48041207 0.8045105 0.34923813 
0.43524525 0.588981 0.6809281 
-0.45119658 0.3353538 0.8270185 
-0.19903505 0.69103324 0.69488 
0.41183218 0.4719673 0.7795135 
0.24718334 0.7107293 0.6586079 
0.45688513 0.3176426 0.8308787 
0.32447225 -0.046999287 0.9447268 
0.6722698 0.26336446 0.69187605 
0.19436455 0.64199716 0.7416617 
0.012288555 0.2628718 0.9647526 
-0.40468788 0.13803773 0.9039764 
-0.4881544 -0.031935226 0.8721729 
-0.48741168 -0.24516869 0.8380467 
0.23866725 -0.13658465 0.9614482 
-0.24856243 0.13944174 0.9585263 
0.08745041 0.7063796 0.7024104 
-0.06652742 0.5812134 0.8110271 
-0.6880418 0.33201647 0.6452625 
-0.19968732 0.07211992 0.97720206 
-0.053867288 0.5302024 0.84615827 
-0.5209642 -0.18593831 0.83308065 
0.28473875 -0.5141227 0.8090746 
0.31086534 -0.3613897 0.87906784 
0.21820979 -0.09808465 0.9709604 
0.15712671 -0.13257796 0.978639 
0.51254827 0.116113976 0.8507713 
-0.14378914 0.7612566 0.63230777 
-0.83666813 0.22221008 0.5006087 
-0.06829639 0.9516304 0.2995583 
0.009317925 0.7044346 0.70970786 
0.34358603 0.71472293 0.6091961 
-0.13781536 0.91561854 0.3776898 
0.3653695 0.72234076 0.5871363 
0.39978662 0.42853314 0.81026536 
0.11117051 0.22279856 0.968505 
0.004657087 0.8136994 0.58126736 
0.32115248 0.6741115 0.66515774 
0.33400157 0.9092706 0.24833469 
0.5352726 0.80306685 0.2618529 
0.6817967 0.66572285 0.30325967 
-0.24632323 0.55103004 0.7973022 
0.35701853 0.2053934 0.9112362 
0.04452697 0.58856905 0.8072198 
0.3330368 0.8960015 0.29371387 
0.391632 0.6753277 0.6249456 
0.33371323 0.3437207 0.8777765 
-0.34234825 0.06486847 0.93733126 
-0.6321329 0.27497193 0.7244297 
0.086288 -0.17695417 0.98042935 
-0.4189628 -0.02757571 0.90758455 
0.28001574 -0.11142101 0.9535075 
0.44545487 -0.29929575 0.84379625 
0.22191009 0.6202275 0.7523787 
0.020933943 0.64489424 0.76398504 
0.6706279 0.30094 0.67800695 
-0.193259 0.7060447 0.68128693 
0.43433937 0.35558045 0.827594 
0.577716 0.2984146 0.75973225 
-0.0037246533 0.778363 0.62780344 
0.092488 0.26110327 0.9608699 
0.12855297 0.5096527 0.8507223 
0.38369387 0.58540815 0.71419626 
0.28578222 0.025071716 0.95796657 
0.064325154 0.43142012 0.899855 
0.21345143 -0.08624967 0.97313905 
0.016293528 -0.024061728 0.99957776 
-0.038948797 0.083775386 0.99572325 
-0.65955156 0.16577612 0.7331508 
-0.2652116 0.86136955 0.43324977 
-0.4777644 0.40816316 0.7779102 
-0.15348971 0.91936755 0.3622212 
0.13005684 0.39233154 0.9105829 
0.92141366 0.29342946 0.2547473 
0.5520017 -0.036341585 0.8330507 
-0.7017674 0.20052044 0.68360376 
-0.36433464 0.5986433 0.7133628 
-0.3712181 0.48188818 0.7937134 
-0.27150744 0.41932598 0.8662849 
0.060254928 0.3164325 0.94669944 
-0.29973385 0.23742926 0.924006 
-0.70504194 0.078912675 0.70476145 
-0.74965125 0.112037376 0.65228117 
-0.37784398 0.14348644 0.91468334 
-0.35225195 0.24889271 0.9022034 
0.118568465 0.22872026 0.96624464 
-0.07688928 0.16223639 0.9837517 
0.00339014 0.2622349 0.9649982 
-0.18168919 0.050445594 0.98206127 
-0.23607863 0.3671703 0.89969605 
0.02501818 0.38358593 0.9231663 
0.071450815 -0.25079724 0.9653992 
0.4834354 -0.20083176 0.85203105 
0.0830933 0.66953355 0.7381195 
0.025327664 0.9973591 0.06806973 
0.34717736 0.8892052 0.29796338 
0.5309625 0.8473287 0.010622341 
0.35624474 0.59883916 0.71727353 
0.33870795 0.025307756 0.9405512 
0.36394864 -0.32350782 0.87343234 
-0.36146227 0.40224558 0.8411562 
-0.2944585 0.3946179 0.8703856 
-0.22852825 0.6129427 0.7563571 
0.70403206 0.38044736 0.59966546 
0.27109626 0.17498478 0.9465131 
-0.058401827 0.15696375 0.98587614 
-0.30984214 0.59559524 0.7411237 
-0.39944708 0.88026106 0.256091 
-0.472665 0.6025707 0.6430369 
-0.2945085 0.61607313 0.73056054 
0.33453307 0.44328958 0.83161414 
-0.48905578 0.51123947 0.7067239 
0.17117085 0.56896436 0.8043507 
-0.32683203 0.33895606 0.8822073 
-0.16306396 0.3720114 0.913793 
0.08611273 0.7960599 0.59906036 
0.05136851 0.24184836 0.9689534 
0.6296506 0.45801604 0.6275042 
-0.45226473 -0.07655224 0.8885924 
0.17453836 -0.15101518 0.973001 
0.006941964 -0.037587266 0.9992693 
-0.22653222 -0.08149077 0.9705887 
-0.47844708 0.50143254 0.72087026 
0.035297442 0.5343791 0.8445076 
-0.62491816 0.37833276 0.6828921 
-0.7507854 0.61502284 -0.24097335 
-0.33015344 0.573937 0.74939644 
-0.2486631 0.3023769 0.92018205 
0.1225411 0.20098303 0.9719 
-0.13055348 -0.23342077 0.9635718 
-0.24713786 0.13944794 0.9588937 
-0.7762811 0.5318556 0.3384042 
-0.55791634 0.36626217 0.7447023 
-0.13797201 0.97111344 0.19468533 
0.17033057 0.9593619 0.2249717 
0.16530241 0.9139722 0.37058082 
0.8627113 0.4031207 0.30532414 
0.65909374 0.28594735 0.69557863 
0.34173936 0.65044653 0.67833155 
0.22965868 0.35541335 0.90605646 
0.13178585 0.20070675 0.9707469 
0.5320726 0.8463525 -0.024213763 
-0.089135826 0.83317846 0.5457732 
-0.45428896 0.6441109 0.6154209 
-0.88045514 0.16786891 0.44341737 
-0.053261347 -0.47895464 0.8762225 
0.032352645 0.08364786 0.9959701 
-0.5526274 0.18516853 0.81259805 
0.17891552 -0.053927407 0.98238546 
0.39067844 -0.5727942 0.7206089 
0.31257612 -0.5628662 0.7651653 
-0.43602625 0.14678901 0.8878819 
0.08619022 -0.14070156 0.9862933 
-0.1276791 0.77662826 0.61688465 
-0.3111607 0.3523666 0.8826193 
0.16969392 0.375035 0.91134673 
0.13677502 0.15150057 0.97894853 
-0.14514023 0.3755728 0.9153576 
0.45888618 -0.15199684 0.8753973 
0.39796847 0.3529952 0.84676766 
-0.62998635 0.32755604 0.70414793 
-0.39396644 0.83613867 0.38165754 
-0.6638219 0.054254875 0.7459203 
-0.31640407 -0.33061895 0.88914543 
-0.62268686 0.6357663 0.45613837 
-0.6018977 0.04682614 0.79719913 
0.19958268 0.823506 0.5310412 
0.30582228 0.69446176 0.6513031 
-0.026089652 0.74063355 0.6714025 
0.07404671 0.76357466 0.64145994 
-0.08247678 0.8446996 0.528848 
-0.09433242 0.30929926 0.94627446 
-0.02109878 0.9493628 0.31347272 
-0.26798362 0.95976603 0.08386887 
-0.46890795 0.7644863 0.4423642 
-0.0058516627 0.86165345 0.5074636 
0.47201473 0.5823302 0.6618864 
0.3059156 0.35054234 0.8851756 
-0.3463982 0.7232059 0.5974793 
0.09945579 0.6856235 0.7211303 
0.31330454 0.36894795 0.8750529 
0.10783845 0.79635596 0.59513706 
0.4544945 0.8038129 0.38382238 
0.497868 0.12778096 0.8577875 
0.38908517 0.48589063 0.7826385 
0.30968118 0.9415554 0.13255632 
0.2909153 0.25155196 0.9230871 
0.290201 -0.95209664 0.096413486 
-0.045544427 0.37049848 0.92771584 
-0.47130054 0.039332766 0.8810952 
0.07024057 0.87011224 0.4878227 
0.8188644 0.35316822 0.45247465 
0.58196026 -0.115492 0.8049745 
0.22605354 -0.05012787 0.9728243 
0.20591085 0.44166186 0.8732329 
0.24911879 0.18399228 0.95083475 
0.10487466 0.56243265 0.8201651 
0.48995358 -0.080612026 0.8680134 
0.5640015 0.07939368 0.82194823 
0.26101473 -0.34603104 0.90118474 
0.18601315 0.18862095 0.96427244 
0.09213224 -0.078263715 0.9926664 
-0.2593233 0.036228463 0.9651109 
-0.12552463 -0.054475788 0.99059373 
0.09096359 0.37966576 0.9206409 
0.50288767 0.251316 0.8270092 
0.29295772 0.4435808 0.84700173 
-0.4834008 0.3212936 0.814306 
0.21400149 0.23293489 0.9486541 
0.006871078 0.111367136 0.9937556 
-0.0069566313 0.6041305 0.796855 
-0.1136261 0.61940426 0.77680606 
-0.8029266 0.024367237 0.5955797 
-0.5078286 -0.5790586 0.63780975 
-0.31020105 -0.81935424 0.48211414 
-0.5924133 0.10903094 0.79822224 
-0.2098916 -0.26973644 0.9397807 
-0.52393126 -0.060217094 0.8496294 
-0.4282502 0.24608894 0.86950684 
0.25186867 0.4795106 0.8406139 
0.10015934 0.50038147 0.85999215 
0.0465563 -0.048550155 0.99773514 
-0.6313416 -0.20260301 0.74857193 
-0.4213591 -0.6503628 0.6320481 
-0.18218637 -0.03419289 0.9826693 
0.5596458 0.025593366 0.82833666 
-0.059954546 -0.10662514 0.99249005 
-0.34687576 0.3536354 0.8686882 
0.3035044 0.14998029 0.9409522 
-0.120928794 -0.073000394 0.98997337 
-0.049241114 0.2447787 0.9683278 
-0.33012643 0.07114425 0.9412519 
-0.15936202 0.44564697 0.8809101 
0.6175294 0.33174086 0.7131659 
0.7186087 0.6843055 0.12380521 
-0.008056037 0.9123034 0.40943572 
0.22386633 0.7924682 0.5673431 
0.26802072 0.4095168 0.8720441 
0.15404215 0.91316396 0.37736297 
0.9522987 -0.21355166 0.21799754 
0.93367755 -0.16068341 0.32004258 
0.40909535 -0.13564683 0.90235305 
-0.27564058 -0.39144084 0.8779501 
-0.55627304 0.7657364 0.32281306 
-0.17137486 -0.3128471 0.93421483 
-0.04122782 -0.59432065 0.80317074 
0.33357483 -0.56557435 0.7542239 
0.2597525 -0.4783446 0.83887726 
0.36919427 0.43095577 0.823391 
-0.10684395 -0.024422335 0.9939759 
0.10147038 -0.39596215 0.9126434 
-0.54190403 -0.36666462 0.7562387 
0.20329346 -0.792554 0.57491744 
-0.01066897 -0.90225744 0.43106583 
0.38242483 -0.8302349 0.4055384 
-0.08673583 -0.11892338 0.9891078 
-0.40888336 0.2251377 0.88437974 
-0.5884383 -0.5927917 0.5498532 
-0.7097152 -0.18354933 0.68015736 
-0.8262944 0.21586663 0.5202299 
-0.38497326 0.6873201 0.61594373 
0.19691728 0.83453083 0.5145697 
0.12945992 0.26645645 0.9551132 
-0.33790207 0.3708153 0.8650539 
0.2158444 0.651176 0.72758585 
0.006626429 0.21554069 0.9764724 
0.4350862 0.5019435 0.7474976 
-0.162132 -0.013360906 0.9866786 
-0.58875084 0.18542027 0.7867604 
-0.4295746 0.03823159 0.9022218 
0.6037001 0.47667113 0.6390077 
0.14403993 0.6780721 0.7207432 
0.32074133 0.41306984 0.85234874 
0.28302902 0.21708266 0.9342215 
-0.08944186 0.99592376 0.011665695 