# OOMMF: rectangular mesh v1.0
# Segment count: 1
# Begin: Segment
# Begin: Header
# Desc: Time (s) :  9.700000000000001e-08
# Title: m
# meshtype: rectangular
# meshunit: m
# xbase: 2e-09
# ybase: 2e-09
# zbase: 5e-10
# xstepsize: 4e-09
# ystepsize: 4e-09
# zstepsize: 1e-09
# xmin: 0
# ymin: 0
# zmin: 0
# xmax: 1.024e-06
# ymax: 1.024e-06
# zmax: 1e-09
# xnodes: 256
# ynodes: 256
# znodes: 1
# ValueRangeMinMag: 1e-08
# ValueRangeMaxMag: 1
# valueunit: 
# valuemultiplier: 1
# End: Header
# Begin: Data Text
-0.5202669 0.847132 -0.10811943 
0.08196631 0.9964331 -0.02007018 
-0.23684804 0.9496451 -0.20512736 
0.15041876 0.2757441 -0.9493889 
-0.5018096 0.17568716 -0.84694815 
-0.031459052 0.7106251 -0.7028672 
0.08132456 0.8765717 0.47435045 
-0.007666889 0.90409493 0.42726293 
-0.24740374 0.78945005 -0.5617475 
-0.5005975 0.860402 0.09544965 
0.12866195 0.9647512 0.22956784 
0.15797967 0.9596147 0.23277062 
0.63394254 0.5607801 0.53258103 
0.36481437 0.36020437 0.85858214 
-0.024693448 -0.22246492 0.974628 
-0.5846291 -0.2869677 0.7588533 
-0.029571714 0.9808319 0.19259912 
0.3856804 0.8873108 0.25284442 
0.8307046 0.55577135 0.032373227 
0.32825115 0.92222965 -0.20431302 
-0.17430541 0.9435847 0.28154162 
-0.82360834 0.55996394 0.0900541 
-0.45574823 0.5108835 0.7288976 
-0.4073793 0.22973877 0.8838904 
-0.3371241 0.41324198 0.8459188 
-0.5290763 0.1376978 0.8373277 
-0.34630638 0.1905441 0.91856676 
-0.2629932 0.48604295 0.83342475 
0.3106021 0.26677895 0.91233516 
0.025310652 0.13679199 0.9902764 
-0.2041489 0.38043165 0.90199506 
-0.28068346 0.45959264 0.84260994 
-0.385858 0.9020111 0.19362228 
-0.36166805 0.89627427 -0.2566881 
0.26605046 0.7887048 0.554222 
0.9600999 0.10364799 -0.25974104 
0.99589133 0.058365915 0.069238275 
0.7454711 0.38923037 -0.5410846 
0.82696295 0.27976882 0.48771083 
0.9407432 -0.09444814 0.32570225 
0.3507296 0.27641758 0.8947525 
0.60508937 0.1905969 0.77300686 
0.055930022 -0.15785356 0.98587734 
-0.09295992 0.69452316 0.71343964 
-0.73123777 0.18492424 0.65657777 
-0.7570484 0.4765558 0.4469588 
-0.80960155 0.54238063 -0.22442925 
0.3064164 0.4928932 -0.8143497 
0.5868096 0.31144723 -0.7474325 
0.8874015 0.444792 0.12115582 
0.34142676 0.9240071 0.17215858 
0.64274585 0.7430701 0.18634537 
0.939878 0.05966321 -0.33625856 
0.73201275 0.20864476 -0.64855593 
0.9751851 -0.083646506 -0.20498103 
0.6255853 0.7800606 -0.01219184 
0.5288284 0.67108625 0.51959974 
0.7967652 0.40881136 0.44501513 
0.7462491 0.60406166 -0.27968165 
0.27708077 0.84698415 0.4537006 
-0.0683107 0.97379273 0.21693683 
0.5881086 0.7331096 0.3415825 
0.5735505 0.81118155 0.11412474 
-0.31644386 0.6620227 0.67940366 
-0.47478673 0.64335066 0.6005644 
0.34306666 0.6947425 0.6321694 
-0.11444963 0.24590482 0.9625135 
0.12053654 0.35040328 0.9288103 
0.0074955705 0.6905205 0.723274 
0.26889205 0.73673695 0.62041587 
0.81280965 0.55452216 0.17845365 
-0.119920135 0.42983672 0.89490765 
0.33176702 0.3574524 0.87301683 
0.37288463 0.89479834 0.24554636 
0.14523225 0.7233934 0.6749886 
0.007309353 0.9280866 0.37229276 
-0.6503099 0.6365111 0.41466948 
-0.7124355 0.662642 0.23095743 
-0.5923057 0.075735696 -0.8021459 
-0.24899839 0.96525705 -0.07923822 
-0.42169622 0.77149934 -0.47640446 
0.79991364 0.60003376 0.009883278 
0.058713824 0.6811507 0.72978526 
-0.087547965 0.69762605 0.71109307 
0.48115563 0.36582538 0.7966562 
0.383354 0.4328807 0.8158762 
0.060869057 0.554657 0.82984984 
0.21256332 0.85432947 0.4742765 
0.25255218 0.48342028 0.83816606 
0.19986576 0.55570877 0.80699533 
0.9259382 0.24483019 0.28757048 
0.8476096 -0.3410332 0.40651512 
0.8268557 -0.25795615 0.49976835 
0.7959796 -0.51587844 0.31667963 
0.9074413 -0.25182942 -0.33635122 
0.79971486 0.14817458 0.5818081 
0.112716846 0.45086163 0.88544834 
0.45420012 0.5988946 0.65956616 
0.39080968 0.91923785 0.047641497 
0.49639326 0.50803524 0.70391333 
0.120169125 0.72519994 0.67797095 
0.2870133 0.8768964 0.38558543 
0.5311843 0.50814426 0.6779622 
0.014596306 0.82535005 0.56443286 
-0.20361295 0.13285375 0.9699958 
-0.048974007 0.53879374 0.84101295 
0.49938846 0.45652053 0.73634255 
0.3591352 0.015209305 0.9331617 
-0.042492762 0.31744108 0.9473255 
-0.0641712 -0.42780277 0.90159136 
-0.6882166 0.12946452 0.7138606 
-0.49806607 0.52215695 0.6923023 
-0.3891996 0.40883985 0.8254536 
-0.30577457 0.6450184 0.70032364 
0.06693143 0.9972248 -0.03260201 
0.2405329 0.9424176 0.23236379 
0.35781223 0.9322916 -0.052942734 
0.28369024 0.9215413 0.26510677 
0.03953009 0.70405954 0.7090399 
0.18859103 0.9532697 -0.23603055 
0.6336389 0.43035674 0.64288014 
0.20295916 0.12950435 0.9705856 
0.010446067 -0.28301707 0.95905805 
0.69510734 -0.06593307 0.71587616 
-0.2593485 0.6592083 0.7058207 
-0.29906124 0.84734493 0.43882677 
0.5841867 0.7439824 -0.32437038 
0.6756417 0.7143968 0.18205921 
0.3484989 0.7482596 -0.56449634 
0.34968954 0.93270993 0.088144265 
-0.14175202 0.69869894 0.7012319 
-0.081570774 0.71302503 0.69637746 
-0.35838354 0.7339315 0.57697994 
-0.56721216 0.822372 0.04443643 
-0.59237665 0.7518139 -0.28959623 
0.6085548 0.7445751 -0.27435228 
0.7836291 0.62111205 0.012048786 
0.5123596 0.7536616 -0.41168204 
0.6998673 0.67225736 0.24136251 
0.45568466 0.87498844 -0.16354425 
0.87627786 0.44164833 0.19257192 
0.9516667 0.11333714 0.28545606 
0.69574314 0.622748 0.35794756 
0.7751442 0.6138811 0.14933658 
0.8746574 0.1219093 -0.4691616 
0.16340268 0.8585685 0.4859626 
0.19643228 0.79083663 0.5796479 
-0.29143706 0.47877005 0.82815677 
-0.26779455 0.25520414 0.9290625 
-0.63442063 0.07104671 0.7697162 
-0.38578606 -0.63137925 0.672703 
-0.13580213 -0.16859181 0.9762861 
-0.82854337 0.3081483 0.46750462 
-0.6279992 -0.46386108 0.6248599 
-0.360946 0.04412139 0.9315425 
0.16985801 0.93264776 -0.31830233 
-0.259608 0.9593865 0.11036845 
-0.1659006 0.7633494 0.6243194 
-0.16117634 0.5460423 0.822107 
0.05277677 0.3631594 0.93023115 
0.11980107 0.5835015 0.8032272 
0.103108175 0.99287844 -0.059674777 
0.46742162 0.87797123 0.1033617 
0.10346041 0.9465813 -0.30541748 
-0.47891164 0.68872523 0.5443356 
-0.5589382 0.7937589 0.23986417 
-0.2836846 0.9584081 0.03125819 
-0.58329415 0.8103503 0.055681016 
-0.5056059 0.7582049 -0.41168934 
-0.66477174 0.121387124 -0.7371186 
0.37785366 0.51328504 -0.7705615 
-0.031986527 0.55532014 -0.83102137 
0.32435697 -0.36504096 -0.8726613 
0.21168447 0.65444654 -0.72587156 
0.61647356 0.7540959 -0.22649494 
-0.107893825 0.83255464 0.5433339 
-0.19550765 0.8706829 0.45131814 
-0.15436168 0.7914644 0.59140223 
0.5063793 0.86208934 -0.019543914 
0.019554758 0.8349797 0.5499332 
-0.5545338 0.7203125 0.41670415 
0.5907969 0.35420948 0.72491014 
0.9090521 0.15797405 0.38557577 
0.4748427 0.619692 -0.624905 
-0.39458197 0.91848606 0.026236983 
-0.23788479 0.91936797 0.31332627 
-0.101227604 0.7763618 0.62210554 
0.30847016 0.21374518 0.9269085 
0.6647151 0.3942673 0.6345921 
0.063360244 0.1891874 0.97989476 
0.50726074 0.48470673 0.71256304 
-0.70454186 -0.37766057 0.60082716 
0.8166307 -0.15814419 0.5550717 
0.59169024 0.35466126 0.72396004 
0.57883227 0.5279435 0.6214733 
0.048987716 -0.22485633 0.9731598 
0.8737647 -0.1453611 0.46411806 
0.48709637 -0.3247129 0.8107397 
0.4537055 -0.50607663 0.7335107 
0.7834801 -0.20075603 0.5880953 
0.6361739 0.448087 0.62809306 
0.41832426 0.28588894 0.86213255 
-0.020587586 0.2799362 0.95979786 
-0.35696593 0.17542902 0.9174966 
-0.18923806 0.756615 0.6258776 
-0.262246 0.94809353 -0.1798491 
0.40567535 0.9024338 0.14505479 
0.096716896 0.748787 0.6557164 
0.6121929 0.5512766 -0.5668457 
0.24883509 0.8387847 -0.48427403 
0.6999066 0.63179773 0.33311027 
0.1198411 -0.17562912 0.9771348 
0.6469487 0.33381268 0.68558484 
0.5347292 0.7032498 0.46851298 
0.39131653 0.8600384 0.32742226 
-0.19686253 0.27054092 0.9423655 
-0.26909536 -0.05246542 0.9616835 
-0.9031994 0.03571371 0.42773306 
-0.7676165 0.042397726 -0.6395055 
-0.1075054 0.36968246 -0.9229179 
0.6987023 0.6790753 -0.22510433 
-0.6204757 0.6832624 -0.38491866 
-0.019217433 0.6048577 -0.7961017 
0.25645366 0.2955568 -0.92025965 
0.40251544 0.06937596 0.9127805 
-0.0446809 -0.23284566 0.97148675 
0.275738 -0.2195464 0.9358248 
-0.6571052 -0.15369874 0.737963 
9.093019e-05 -0.26239043 0.9649619 
-0.11109939 0.95515984 0.27445707 
0.30372804 0.9501563 0.07037264 
0.27455524 0.77180964 0.57352364 
-0.3961307 -0.017858475 0.9180204 
-0.0061699618 0.86229825 0.50636333 
0.25332028 0.37165767 0.89314026 
0.21661142 0.16677515 0.9619073 
0.56306225 0.4028483 0.7215775 
0.6924266 0.32237726 0.64545983 
0.5423293 -0.26108456 0.79856986 
0.3840659 0.17697634 0.9061858 
-0.8586592 -0.05126175 0.50997716 
-0.6406132 0.044712946 0.7665608 
-0.7834829 0.60552686 0.13961314 
0.570184 0.44547403 0.6902486 
-0.12926874 0.5112256 0.8496694 
0.20219526 0.9649098 0.16753031 
-0.6080165 0.7113446 -0.35256904 
0.54810417 0.6889878 0.47421268 
0.7710093 0.5383778 0.34013838 
0.19340713 0.34534246 0.91833127 
-0.72852445 0.36153707 0.58184457 
-0.71425205 0.46962497 0.5189378 
-0.9876529 0.009808631 0.15635101 
-0.6347294 0.7186925 -0.2839009 
-0.5062487 0.7660039 -0.39616966 
0.7479866 -0.041825175 0.6623947 
0.14949726 0.96641046 0.20904894 
-0.017609028 0.91231585 0.40910855 
-0.55162203 0.75353426 -0.35762998 
-0.18051386 0.69625545 -0.69472533 
-0.022368925 0.27594978 -0.96091175 
0.37096706 0.9126319 0.17171632 
0.6966195 0.6793906 0.23054226 
0.69951105 0.09604212 0.7081386 
0.19813459 0.8374364 0.5093556 
-0.34703755 0.9012328 0.2595082 
-0.40086743 0.9135775 -0.06842207 
0.0984353 0.99100953 0.090612695 
0.42139187 0.9068708 0.0037705344 
0.8494615 0.47767925 -0.22413777 
0.47161585 0.7121238 0.520056 
-0.256906 0.5857384 0.7687067 
0.15195695 0.5371859 0.8296629 
0.3829142 0.8313888 0.40270272 
0.9874427 0.1484567 -0.054015186 
0.51905704 0.40516785 0.752608 
0.1863413 0.79708487 0.5743976 
-0.6510389 0.42687503 0.6276353 
-0.5357708 0.33147198 0.7765797 
0.19830464 0.9587422 0.20368761 
-0.3484206 0.10236297 0.9317323 
-0.49714562 0.3252706 0.8043912 
-0.63190633 -0.22659023 0.74118245 
-0.8130613 0.24297142 0.5290522 
-0.27319825 0.5773231 0.7694549 
-0.50740117 0.34675393 0.78886354 
-0.79274637 0.27388218 0.5445565 
-0.78829974 0.60752344 0.09746254 
-0.24329926 0.71255213 0.65808433 
-0.36325043 0.80079716 0.4762071 
0.20976757 0.8579604 0.46893674 
0.28508073 -0.0015333985 0.9585023 
0.34708863 -0.018158786 0.9376565 
0.3036224 -0.6070709 0.73435575 
0.4546351 0.7162485 0.529429 
0.773169 -0.16430789 0.6125461 
0.5341184 -0.13569188 0.8344491 
0.5301313 0.05434925 0.84617203 
0.64563286 -0.069142304 0.7605115 
0.052166197 -0.044147104 0.9976622 
-0.46251652 0.42153394 0.77999216 
-0.2485029 0.39476714 0.8845368 
-0.16221595 0.6599914 0.7335512 
-0.2276772 0.8495856 -0.47578084 
0.594442 0.79755765 -0.10266735 
0.54206127 0.77972925 0.3133557 
0.69940114 0.7034929 -0.12623766 
0.7811763 0.5182041 0.34817836 
0.93675864 0.17997502 -0.30015385 
0.9402213 0.28474143 -0.18683213 
0.6438467 0.5083279 0.57189536 
0.81884974 0.50807 -0.2671143 
0.28460503 0.88766855 0.36200076 
0.122400664 0.4125793 0.9026607 
0.21363452 0.954936 0.20605257 
-0.12657467 0.9594339 0.25192347 
-0.50701505 0.75972784 0.40712324 
0.07030103 0.9851685 0.15652713 
0.67572576 0.56386983 -0.47481108 
0.9583329 0.21757597 0.18509167 
0.2731327 0.22596467 0.9350608 
0.5128211 0.3158479 0.7982823 
0.15121035 0.6373092 0.7556272 
-0.595294 0.19383444 0.7797777 
-0.16283639 0.37316322 0.9133638 
0.10302942 0.7259958 0.6799376 
-0.65086013 0.4528389 0.6093588 
0.2234528 0.20903535 0.9520363 
0.17182134 -0.041708697 0.9842448 
0.5277498 0.4346648 0.7297581 
0.085115306 0.3431259 0.93542504 
-0.58259505 0.40147516 0.70668286 
-0.12157037 0.91070586 0.3947601 
0.37522727 0.8944875 0.24309789 
-0.2745117 0.5853836 0.7628691 
-0.5047105 0.80045986 0.32331312 
-0.6400835 0.7120186 0.28865674 
0.5887968 0.37529325 0.71587247 
0.06379179 0.92927384 0.36384156 
0.32093292 0.9216564 -0.21806346 
0.3103575 0.7082925 0.6340347 
-0.24945801 0.568117 0.7842282 
-0.11369337 0.9363793 0.33206585 
-0.16096544 0.9163758 -0.3665319 
0.40708375 0.7199915 0.5620456 
0.30814862 0.84046537 0.4457157 
0.32572302 0.82578677 0.4604137 
0.6957951 0.57449466 0.43107447 
0.7510964 0.6460276 0.13602352 
0.58005583 0.28876516 0.7616757 
0.17656972 0.6354858 0.7516522 
0.5704513 0.32419556 0.75464076 
-0.20945998 0.32684052 0.9215758 
0.5123903 0.5126027 0.688981 
0.82721347 0.10905024 0.55120426 
0.6590745 0.06864512 0.74893844 
-0.27350402 0.490021 0.8276926 
-0.5384702 0.5560794 0.63310784 
-0.28163752 0.14286888 0.94882494 
-0.95304674 -0.0077872574 0.30272302 
-0.3864734 0.5028426 0.77316725 
-0.19965817 0.92431647 0.32523182 
-0.019088628 0.82532394 0.5643369 
0.39259067 0.11152178 0.91292685 
-0.03576755 0.22196531 0.9743984 
0.6579946 0.15832551 0.73619026 
0.28116453 0.5752125 0.7681648 
-0.28642163 0.6550234 0.6992189 
-0.7578981 0.0343831 0.65146625 
-0.6140829 -0.1659924 0.77158844 
-0.124550804 0.7835823 0.60867554 
0.22324364 0.83634245 0.5006932 
0.34524196 0.5523394 0.75876826 
0.20504367 0.6472367 0.73419464 
0.083488226 0.98179585 0.17060708 
0.21353057 0.95140433 0.22188845 
0.05999657 -0.2902529 0.9550674 
0.23871845 0.1586907 0.95803493 
0.060811047 0.09966469 0.9931611 
-0.19955195 0.23836522 0.95045316 
0.040505648 0.66884667 0.7422961 
0.28403783 0.76254416 0.5812477 
-0.3619921 0.85147506 0.3794101 
0.12051919 0.978366 -0.16815227 
0.13175724 0.9912593 0.006713551 
0.19739191 0.74847853 0.6331006 
0.14429359 0.8912755 0.4298922 
-0.4314105 0.5787151 0.6920794 
0.18977973 0.7273838 0.65946686 
-0.1770472 0.5951297 0.7838846 
0.22526175 0.79310024 0.5659056 
0.10149421 0.49807715 0.8611725 
0.019288374 0.98425394 0.1757049 
0.34226847 0.92501974 0.16489673 
0.7150424 0.5915372 0.37255624 
0.92888063 0.36772594 0.044256005 
0.4875768 0.8014459 0.34634274 
0.8398446 0.5230178 0.14530471 
0.6708762 0.6742914 0.30863622 
0.7056441 0.31768316 -0.6333593 
0.8657352 0.47778496 0.14907762 
0.3077257 0.7201836 0.6218042 
0.11318256 0.37750685 0.9190639 
-0.48793527 0.00027504194 0.87287986 
-0.12799849 -0.08779479 0.9878808 
-0.72447646 0.25448364 0.6406028 
-0.809303 -0.46599716 0.35759676 
-0.72786134 -0.26394373 0.63289154 
-0.89651436 0.3556035 0.2642124 
-0.9384214 0.024452591 0.34462634 
-0.6158494 0.6879032 0.38408175 
-0.6000803 0.79737484 0.06400697 
-0.31122577 0.596687 0.7396642 
0.29382178 0.54343253 0.7863524 
0.5257674 0.7819211 0.33491528 
0.67071646 0.3333157 0.66260105 
0.17284481 -0.0391435 0.98417103 
-0.038867366 0.91126984 -0.40997145 
-0.09982508 0.9924305 -0.07153168 
-0.19121574 0.9454846 0.26362017 
0.2749915 0.79159135 0.5456765 
-0.499456 0.80483824 0.32059222 
-0.089218445 0.9956859 0.025492381 
-0.1405712 0.655144 -0.7423114 
-0.38723975 0.9163724 0.101523355 
-0.8130529 0.56257045 -0.14986524 
-0.58313394 0.80305254 -0.1227253 
-0.51946986 0.717419 -0.46417785 
-0.017472256 0.94531673 -0.32568577 
0.27900234 0.88114387 0.38176334 
0.27474433 0.77525264 0.5687698 
0.42014086 0.7231532 0.5482073 
0.3359356 0.83439034 0.43696705 
-0.1440192 0.46093228 0.87567115 
0.106605515 0.5978127 0.79451585 
0.22011979 -0.0116108 0.9754038 
-0.027648017 0.18340535 0.9826485 
0.53696775 0.4576318 0.7086881 
0.3477598 0.2951496 0.88991565 
0.81300545 -0.36730182 0.45178705 
0.84278065 -0.51679695 0.15047184 
0.065816775 0.7999863 0.59639764 
0.18577383 0.7407981 0.64552796 
-0.04047492 0.1054446 0.9936012 
0.18614791 0.32020873 0.9288786 
0.18629752 0.36419597 0.9124991 
-0.010016275 0.43828544 0.8987801 
-0.57785165 0.4393908 0.6877668 
0.6825469 -0.18254803 0.7076764 
0.5639426 -0.2510579 0.78672665 
0.31231943 -0.0662483 0.9476644 
0.2885925 -0.7533874 0.5908653 
0.7930396 -0.30424795 0.5277514 
0.4086969 0.24276562 0.8797907 
-0.32084024 -0.034679 0.9464983 
-0.46476516 0.24817687 0.84994215 
0.504839 0.6792507 0.53268766 
-0.24738452 0.31788862 0.9152856 
0.23877798 -0.13830142 0.96117526 
0.32939693 0.78433615 0.52565616 
0.0057293745 0.3043838 0.9525323 
-0.28151378 0.80159473 0.52744275 
0.29084867 0.334417 0.896422 
0.17085953 0.3124345 0.93444735 
0.3915461 0.8924186 0.22423393 
0.78244656 0.46936846 -0.40923184 
0.58237463 -0.14041409 0.800702 
0.8297755 0.40295133 0.38613865 
0.56501675 0.3540669 0.7452468 
0.40960208 0.3009068 0.8612092 
-0.34921113 0.35333872 0.8678729 
-0.19027062 0.71665937 0.6709668 
-0.2894633 0.5339351 0.79443336 
-0.083230644 0.82422 0.56011987 
-0.32282984 0.92982745 -0.1766401 
0.10675936 0.86200523 -0.49552944 
0.53512096 0.84193116 0.06926466 
-0.55819076 0.5428372 -0.6274957 
-0.3169011 0.85591584 -0.40863422 
-0.2870657 0.91616505 -0.27970514 
0.86772406 0.089150764 0.48898575 
0.23061801 0.56728727 0.7905697 
0.58439106 0.4495421 0.67557317 
0.8525475 -0.12958135 0.5063313 
0.33383083 -0.120137826 0.934946 
-0.12458731 0.76716053 0.62923974 
-0.19494386 0.6967467 0.69031954 
-0.09859929 0.23262957 0.9675545 
-0.4380439 0.6688812 0.60059613 
-0.10016015 0.7477409 0.6563928 
-0.032537546 0.6090439 0.7924689 
0.3202769 -0.077697486 0.9441323 
0.11220316 0.4124962 0.9040228 
0.6273992 0.35586286 0.6926268 
0.70005995 0.13853435 0.7005172 
0.012270365 0.124150686 0.99218756 
-0.30154657 -0.041862026 0.9525321 
-0.8274495 0.48474208 0.28346512 
0.025473107 0.55895036 0.8288098 
0.53978676 0.4544772 0.7085766 
0.2818883 0.34449238 0.8954686 
0.142507 0.98742837 0.06838799 
-0.47150332 0.7856502 0.40054783 
0.25220338 0.6867057 0.6817835 
0.31443217 0.35127532 0.8818946 
0.14613508 0.64676094 0.7485619 
-0.48881662 0.76553476 0.4183479 
-0.7610545 0.16160844 0.6282346 
-0.1831183 0.7535193 0.6314082 
-0.12391646 0.50210196 0.8558845 
-0.13047226 0.92775583 -0.3496374 
-0.3828963 0.62603784 0.6793137 
0.9330907 0.35779035 0.036441356 
0.0037479172 0.93472356 -0.35535616 
-0.37984562 0.90762955 0.17867868 
-0.14133589 0.7656707 -0.627513 
0.30024216 0.95377946 -0.012630368 
0.5321035 0.7573366 0.3785596 
0.1678832 0.3835175 0.9081462 
-0.23392819 0.56195325 0.7934017 
-0.6903444 0.5657195 0.4509835 
-0.70761365 0.436595 0.5555788 
-0.28109032 0.87919754 0.3847076 
0.21075997 0.82071674 0.53104097 
0.04074508 0.9775212 0.20686306 
0.57236814 -0.17258881 0.80162823 
0.2753838 -0.073757716 0.95850074 
0.03665634 0.15072232 0.9878964 
0.1647737 0.5806863 0.79727864 
-0.58454406 0.76078343 0.28198737 
0.13248847 0.9083783 0.39660516 
-0.38852125 0.5746801 0.7202736 
-0.6102616 0.5343838 0.5848204 
-0.73400915 0.42991993 0.525737 
-0.23710123 -0.13555235 0.96198165 
0.06396193 0.45894262 0.8861607 
0.13929151 -0.1534676 0.97828716 
-0.28574926 -0.056815762 0.9566187 
-0.1963158 0.4169538 0.8874738 
-0.3132762 0.8779605 0.3619994 
0.56727344 0.36043733 0.74046326 
0.47244084 0.79220337 0.38628182 
-0.5357584 0.66747475 0.5171465 
-0.40297222 0.7998292 0.4448444 
-0.34477407 0.3688033 0.86320055 
0.073442884 0.9109783 0.40586305 
-0.11237975 0.83050567 0.54555595 
0.11289884 0.2871359 0.9512134 
0.30739146 0.09894452 0.94642514 
0.35097253 -0.12724544 0.9276998 
-0.53024304 0.32407707 0.7834643 
0.34430405 0.52909464 0.775573 
0.13343231 -0.10303724 0.9856872 
0.5793459 0.59661275 0.55534816 
0.76283693 0.18831687 0.61856025 
0.08192681 0.45350176 0.887482 
-0.2952287 0.14206775 0.9448052 
-0.56520486 0.38058448 0.73191464 
-0.4701334 0.4849058 0.7374557 
0.0014301289 0.9995761 -0.029081093 
0.35401523 0.91182905 -0.20794472 
-0.12269368 0.98839664 -0.08954578 
0.22372453 0.9620472 -0.1562453 
0.0068698805 0.8208464 0.57110775 
0.9864819 0.13823332 0.08800571 
0.30754474 0.88422364 0.35151803 
0.8275619 0.28605604 0.48302516 
0.75919205 0.50912726 0.40548354 
0.49684328 0.31150323 0.8100077 
0.6846115 0.36671364 0.629943 
-0.03323571 0.9932983 0.110697664 
0.17443836 0.8540254 0.49011415 
-0.5973817 0.39021862 0.70061725 
0.5345082 0.845145 -0.005567327 
0.4954792 0.84511065 0.20071939 
0.5189903 0.6376065 0.56930405 
0.16379465 0.13368672 0.9773941 
0.17534377 0.5431336 0.8211336 
-0.092059895 0.5643978 0.8203536 
-0.73774266 0.097345896 0.66802675 
-0.43429738 0.12945376 0.8914188 
-0.4170717 0.6959359 0.58457214 
-0.78916335 -0.21348435 0.57588696 
0.12758921 0.14215583 0.9815868 
0.3951428 0.112203166 0.9117415 
0.17635892 0.23168977 0.95667 
0.26836506 0.67675924 0.6855488 
-0.057224438 -0.2688264 0.96148723 
0.64631003 0.7072716 0.28644425 
0.2967779 0.39157903 0.87097013 
-0.2484693 0.44078925 0.8625357 
0.36920404 0.7941816 0.48266333 
-0.36772314 0.8779362 0.30660677 
0.31079325 0.85594887 0.41323018 
0.21150117 0.8404671 0.49888128 
-0.21029526 0.9376064 -0.276894 
0.3702209 0.76478624 0.52729356 
-0.079538114 0.7833885 0.6164222 
-0.14627999 0.91086495 0.38591105 
-0.33158723 0.91165453 0.24276754 
-0.12624177 0.9513626 0.28102005 
0.38919693 0.65783006 0.6448143 
0.5837091 0.3042479 0.75280595 
-0.21832761 0.40703517 0.886936 
0.4980654 0.84354866 0.20088902 
-0.33020353 0.4987404 0.80138856 
0.521084 0.6049093 0.60212636 
0.6349539 -0.29538524 0.7138496 
0.3384004 -0.18849654 0.92192966 
-0.095744096 0.029506432 0.9949686 
0.94785005 -0.14501263 0.28381646 
0.62487316 0.41377914 0.66205776 
0.21769373 0.66910964 0.7105644 
-0.16962256 0.3287183 0.92907083 
-0.4149479 0.36865446 0.8318125 
-0.54959553 -0.15575577 0.8207832 
-0.13193859 -0.11970192 0.9840039 
-0.00092300883 0.19027929 0.9817296 
0.503934 0.37681517 0.77721363 
0.42243612 -0.49355686 0.76022995 
0.6106023 -0.174752 0.7724161 
0.41967085 -0.11068693 0.9009022 
-0.031534098 -0.04672902 0.99840975 
-0.387719 -0.28270295 0.87735575 
-0.41927177 -0.1009707 0.90222853 
-0.1476281 -0.13946398 0.9791607 
-0.009539829 0.49823937 0.8669871 
-0.43810087 0.26090544 0.8602303 
0.011377369 -0.3081968 0.9512546 
-0.2565976 0.36740333 0.8939646 
-0.44696304 0.7898558 0.41994292 
-0.4828816 0.8633369 0.14654297 
-0.02374803 -0.054395944 0.9982371 
-0.36084265 0.11621884 0.92535716 
-0.3299893 -0.22532238 0.9166989 
-0.09375359 0.0905761 0.99146676 
0.06940545 0.40054128 0.9136464 
-0.45542628 0.7544445 0.47265276 
-0.043427538 0.6519934 0.75698 
-0.45963058 0.85469025 0.24133883 
0.15247719 0.5695375 0.807699 
0.09553642 0.16717708 0.98128724 
0.18372183 0.4886109 0.8529394 
-0.06532122 0.38229647 0.9217281 
-0.24883637 0.29795367 0.921577 
0.44309172 0.4402949 0.78090334 
0.08364855 0.5845414 0.8070406 
0.45336854 0.8110595 0.36964768 
-0.053186826 0.868391 0.49301955 
0.32816923 0.93553865 -0.13066113 
0.55897725 0.8006868 -0.2155117 
0.7082045 0.6827486 0.17972401 
0.6717812 0.11312979 0.7320599 
0.7509687 0.51710856 0.41066384 
0.15269041 0.68077993 0.7163968 
0.57220316 0.69745857 0.43143398 
0.16885978 0.7687253 0.6168856 
0.09687115 0.1783639 0.97918457 
0.30249608 -0.018732209 0.9529665 
0.3262478 -0.10768092 0.9391311 
-0.22673883 0.22547925 0.94749594 
-0.059510022 -0.1282452 0.9899555 
-0.4881251 -0.15452123 0.85898614 
-0.85821545 -0.33955836 0.38492396 
-0.7429465 0.63575894 0.20938286 
-0.66587204 0.7444355 0.04929894 
-0.5165723 0.83598864 -0.18513829 
0.40025386 0.7525078 0.52299994 
0.36720356 0.7250164 0.58267725 
0.3347489 0.5644456 0.7545491 
0.7756193 0.5180135 0.36066172 
0.78752124 0.06737938 0.6125932 
0.69566286 0.057568997 0.716058 
0.30441758 0.13108917 0.9434753 
-0.36826253 0.34369284 0.8638622 
-0.12633133 0.53688663 0.83414227 
0.32037 0.5471335 0.7733099 
-0.36495057 0.39385238 0.84361804 
-0.049776547 0.45463675 0.889285 
-0.6312906 0.7722216 -0.07173466 
-0.26362956 0.5115154 0.8178335 
-0.15962693 0.8372463 0.52300847 
-0.012397984 0.89986026 0.43600208 
0.33020538 0.8975985 0.2920298 
0.14422113 0.8581872 0.49266103 
0.25465322 -0.081563964 0.96358657 
-0.28473297 0.95112634 0.11952343 
0.10553589 0.7861056 0.6090159 
0.03027883 0.63789386 0.7695289 
-0.13113753 0.35558885 0.9253969 
0.43141106 -0.040377326 0.9012515 
0.63591486 0.007522029 0.7717226 
0.49472353 0.3721642 0.7853296 
0.74447834 -0.189401 0.64021814 
0.21685666 -0.58594245 0.7807975 
0.3582967 -0.75751466 0.545706 
0.91576594 -0.0043516783 0.40168867 
0.85943484 0.014677455 0.51103467 
0.49499193 0.7752666 0.392358 
0.6290409 0.33051348 0.70361096 
0.18201676 0.8996537 0.39685404 
-0.20644772 -0.2709663 0.94018966 
0.18641233 0.503438 0.8436828 
-0.117982455 0.023356065 0.992741 
0.16208988 -0.5972374 0.78551537 
0.22520979 -0.23829079 0.94472116 
0.21246351 -0.22857967 0.9500582 
0.35826942 -0.11376517 0.92666095 
0.24945213 -0.13141114 0.9594294 
0.40301657 -0.27884713 0.87167776 
0.56838584 0.039786506 0.8217996 
0.53485686 0.31764033 0.78296417 
-0.098015666 0.29897553 0.94921374 
-0.14759727 -0.1348079 0.9798173 
0.1836504 -0.29522982 0.93760973 
-0.616498 0.27134597 0.7391223 
-0.3778686 0.40360028 0.83326 
-0.45155093 0.78330016 0.42725024 
-0.07435601 0.18654506 0.9796286 
0.0782437 0.94455105 0.31890634 
0.21296282 0.8183487 0.53380924 
0.44195807 0.37377316 0.815455 
0.066455424 0.094471075 0.99330705 
-0.41963264 0.05879642 0.9057877 
-0.3341383 0.31021434 0.8900105 
0.06265075 0.39825705 0.9151318 
0.2386557 0.20045963 0.9501892 
0.80100316 0.29360005 0.52172124 
0.026771458 0.87073797 0.491018 
-0.335292 0.41494152 0.84581494 
-0.119953476 0.98546785 0.12026758 
0.35396174 0.8802407 0.31604975 
0.05521324 0.6403305 0.7661125 
-0.14249502 0.38851434 0.91035813 
-0.5331574 0.5396051 0.65159005 
-0.18099733 0.983281 -0.01995842 
0.27741542 0.11379244 0.9539874 
0.3634886 -0.08877362 0.9273594 
0.4650975 -0.093466654 0.8803115 
0.1293077 0.4764502 0.8696407 
0.13660386 0.23841137 0.961509 
-0.28996032 0.0641743 0.9548847 
-0.45937964 0.45958987 0.7600971 
0.19694963 0.42380255 0.88408273 
-0.7927241 0.28615227 0.5382429 
-0.48566496 0.37275746 0.79068416 
-0.30957666 0.53821856 0.7838897 
-0.24318416 0.03362569 0.9693972 
-0.11527784 0.4671336 0.87663984 
0.3161152 -0.2522823 0.9145627 
-0.17959625 -0.14195313 0.9734447 
0.029586017 0.2676971 0.9630488 
-0.48677826 0.3425455 0.8035606 
0.56923175 0.08364525 0.8179112 
-0.09534304 0.07787307 0.9923938 
0.18470356 -0.13142319 0.9739675 
-0.16607644 0.1895655 0.9677208 
-0.20983121 0.74587977 0.63216645 
-0.6095328 0.6327995 0.4775297 
0.13215527 0.69650495 0.7052772 
-0.13829145 -0.23584557 0.96190035 
-0.40786272 0.26642933 0.873306 
-0.2770964 0.76478404 0.5816554 
-0.43292835 0.47683892 0.7649822 
-0.04739552 0.31210044 0.94886625 
-0.385353 0.5564832 0.7360908 
-0.27080247 0.7427676 0.6123417 
-0.7154807 0.63820326 0.28422526 
0.8755197 0.43422005 -0.21193914 
0.67080307 0.73991656 0.050465174 
0.08668008 0.96063584 0.26394215 
-0.40591136 0.86349577 0.29935142 
-0.14801675 0.8102353 0.56710666 
0.19097042 0.88746554 0.41944632 
0.36536738 0.36644524 0.85570127 
-0.40589 -0.03602043 0.91321194 
0.010841097 0.37960035 0.9250871 
0.34956607 0.5711078 0.7427244 
0.37354696 0.19251902 0.9074134 
0.27392298 0.34498495 0.8977481 
-0.44591203 0.5961474 0.6676607 
0.30309808 0.5816338 0.75487334 
0.3137883 0.3292888 0.89056486 
0.44630095 0.37705514 0.81156933 
0.11336386 0.94408816 -0.30959043 
0.07426078 0.9972245 0.0053450516 
-0.44062555 0.8670108 0.23268308 
-0.54497373 0.68251747 0.4870048 
-0.74450165 0.65579253 -0.12511425 
-0.23919697 0.7446017 0.6231799 
0.07980761 0.3091506 0.94765854 
-0.28261736 0.311253 0.90733075 
0.60810894 0.14066863 0.7812912 
0.08880841 0.6359871 0.7665726 
0.47638163 0.41961846 0.77264553 
-0.030144842 0.8485204 0.52830344 
-0.18795803 0.53109914 0.82619935 
0.32357702 -0.20136632 0.92452663 
-0.674082 0.735812 0.06476277 
-0.46991345 0.7189952 0.5120814 
-0.17507458 0.5428641 0.8213693 
0.0080316 0.58017004 0.8144558 
-0.48233843 0.859001 0.1716593 
-0.09912118 0.8315189 0.54658157 
0.456865 0.2821484 0.8436034 
0.3247331 -0.17835686 0.9288365 
-0.37090486 -0.1740324 0.91221833 
-0.42011842 0.377921 0.8250311 
0.01708882 -0.42192838 0.90646815 
0.41317278 0.07254013 0.9077589 
0.14916858 -0.3614339 0.92038816 
0.018663896 0.15576681 0.9876175 
0.11991764 0.3357388 0.9342908 
-0.0039480706 0.6387527 0.769402 
-0.21621415 0.7756531 0.59297013 
0.31738237 0.7118542 0.62652385 
0.58710027 0.6847096 0.43184027 
0.8564505 0.21045582 0.47138202 
0.5022618 0.7542044 0.4229761 
0.31804207 0.728816 0.6063634 
0.80633384 -0.18092525 0.5631092 
0.952134 0.15424551 0.26391122 
0.5654064 0.17169085 0.80674523 
-0.16605559 0.78792524 0.59295815 
0.08810037 0.9957929 0.02519596 
-0.044036355 0.99516416 -0.08780196 
0.45967552 0.88629377 0.056407936 
0.057339977 0.5078943 0.8595089 
-0.7636352 0.5808833 0.2818435 
0.6419957 0.73588127 -0.21522178 
0.40201 0.73932576 0.54017174 
0.12610331 0.30137548 0.94513005 
0.27865884 -0.80078214 0.5301861 
-0.50832474 -0.14067332 0.84959817 
-0.73059714 0.3414156 0.5913233 
-0.7023651 0.6812618 0.20631464 
-0.9063876 0.42179358 -0.023486195 
-0.7103764 0.634933 -0.30368665 
-0.5664619 0.28503445 0.7732246 
-0.10636116 0.12716354 0.98616266 
0.13117597 -0.4564283 0.88003755 
-0.14272724 -0.5837624 0.79928124 
-0.039764896 -0.5230174 0.85139394 
0.0474658 -0.46268773 0.8852498 
0.62987196 0.2907876 0.720211 
0.6232939 0.07836097 0.77805173 
-0.274467 0.25010687 0.9285012 
-0.23517932 0.2940812 0.9263946 
-0.6837658 0.45279777 0.5722225 
-0.52913755 0.5197159 0.67075247 
0.28911924 0.83357525 0.47070423 
0.078401364 0.9968268 0.0137700755 
0.5851091 0.5484258 0.5973914 
0.33879843 0.6354533 0.6938406 
0.45790663 0.44425678 0.7700373 
0.24508518 0.6808587 0.6901918 
-0.10818168 0.9212485 0.37362814 
0.5101356 0.68750304 0.5168184 
0.22375989 0.14243531 0.9641804 
-0.09885464 -0.11947407 0.9879038 
-0.577819 0.51493967 0.6332159 
0.40310863 0.64625865 0.64796084 
0.3252717 0.032733902 0.94505394 
-0.5623562 0.13254811 0.81620264 
-0.361516 -0.03815252 0.931585 
-0.63338065 0.011757668 0.7737511 
-0.7735869 -0.0012649484 0.6336891 
-0.4201202 0.673833 0.60782254 
-0.23931047 0.8214783 0.5175944 
0.62191373 -0.27466688 0.7333359 
0.47180423 -0.19529669 0.8598024 
-0.09479797 0.13302009 0.98656934 
0.11819095 0.5977594 0.7929152 
0.69017726 0.24916089 0.6793926 
0.40778053 0.85914314 0.3091735 
0.79372966 0.53635764 0.28690392 
0.2839415 0.039973214 0.95800805 
0.47149694 -0.0032829926 0.88186157 