# OOMMF: rectangular mesh v1.0
# Segment count: 1
# Begin: Segment
# Begin: Header
# Desc: Time (s) :  1.0000000000000001e-07
# Title: m
# meshtype: rectangular
# meshunit: m
# xbase: 2e-09
# ybase: 2e-09
# zbase: 5e-10
# xstepsize: 4e-09
# ystepsize: 4e-09
# zstepsize: 1e-09
# xmin: 0
# ymin: 0
# zmin: 0
# xmax: 1.024e-06
# ymax: 1.024e-06
# zmax: 1e-09
# xnodes: 256
# ynodes: 256
# znodes: 1
# ValueRangeMinMag: 1e-08
# ValueRangeMaxMag: 1
# valueunit: 
# valuemultiplier: 1
# End: Header
# Begin: Data Text
0.06757263 -0.42465216 0.9028314 
0.16907445 -0.15071519 0.9740117 
-0.26255327 -0.22069938 0.93933886 
-0.24125387 0.83917236 0.48742852 
0.22126381 0.93622917 0.2729784 
-0.1636889 0.71319705 0.6815834 
-0.062294215 0.69144326 0.71974003 
0.34044394 0.37199184 0.86355084 
0.2763857 0.57788074 0.76789635 
0.053551108 0.84213877 0.5365955 
0.39059532 0.6474311 0.6544222 
0.36836016 -0.24216752 0.89758885 
0.07548779 -0.59290886 0.8017236 
-0.28475383 -0.892221 0.35050982 
-0.10400653 0.17610402 0.97886163 
-0.31824353 0.1895474 0.9288665 
-0.51516217 0.3032096 0.8016683 
-0.43926293 0.3690568 0.8190515 
0.42257994 0.73848933 0.52541393 
0.048232257 0.16434573 0.9852229 
-0.79531217 0.44561413 0.4109826 
-0.70956695 0.28370857 0.6449994 
-0.22045445 0.5409055 0.81167793 
-0.047817532 0.9957201 0.07908971 
0.4994236 0.85265756 -0.15346393 
-0.009622651 0.8490069 0.5282941 
0.39820293 0.7633486 0.5086585 
-0.71138525 0.6384292 0.29383537 
0.5362563 0.8166558 -0.213313 
0.0059896186 0.84001786 0.5425257 
0.060288575 0.09564891 0.99358773 
-0.23457465 0.48031348 0.8451472 
-0.19983463 0.21020582 0.95701605 
-0.19683318 0.15929914 0.96740925 
-0.4210555 0.6847127 0.59487885 
-0.2136245 0.69393 0.68762326 
-0.14619437 0.17171219 0.9742393 
-0.8232151 0.44807675 0.34863204 
-0.7580252 0.6498992 -0.055035144 
-0.841902 0.49033034 0.22533816 
-0.4945822 0.8421855 -0.21473731 
-0.7818011 0.43469533 -0.4470204 
0.63778657 0.74748677 -0.18571992 
0.09488587 0.9936921 -0.05977154 
-0.0014306899 0.9905456 -0.13717735 
0.37480026 0.81301606 0.44556686 
0.03472004 0.9829615 0.18050303 
0.80293804 0.10743353 0.5863008 
0.4114771 -0.16283819 0.89675546 
-0.30689567 -0.8666969 0.39325747 
0.23185955 -0.5020302 0.83319074 
-0.16839996 0.13595285 0.97629833 
0.038919143 0.18391103 0.98217213 
0.35701588 0.4275158 0.8305239 
-0.24344982 0.5846346 0.7739086 
-0.5406061 0.3218734 0.77726614 
-0.8203392 0.4589058 0.34124652 
-0.6304559 0.767456 0.11634748 
-0.88084763 0.45367575 0.13522488 
-0.43246794 0.8211569 0.37238783 
-0.34262994 0.9366062 0.073304184 
0.10930115 0.98013985 -0.1654667 
-0.018869903 0.6749959 -0.73758024 
-0.3732396 0.5183031 -0.76945066 
0.01757457 0.9998084 -0.008624663 
0.49958795 0.834393 -0.23280962 
0.8341868 0.54637945 0.074845724 
0.6329583 0.07776498 0.77027047 
0.034544066 0.19133048 0.9809177 
-0.21874145 0.079395056 0.97254753 
-0.6493506 0.7588296 0.05021513 
-0.09445452 0.9000804 0.42536306 
0.34049243 0.9262575 0.16159223 
0.43891838 0.62708247 0.6435203 
0.23277603 0.5198243 0.8219478 
0.59583724 0.63622457 0.49009842 
0.44004536 0.8845907 0.15446526 
0.527277 0.82914907 0.185717 
0.35370702 0.88317156 -0.30805755 
0.13803351 0.85668397 -0.49703065 
0.62249595 0.7081421 -0.33321705 
0.7103088 0.48792854 0.5073335 
0.8644782 -0.26028162 0.43003595 
0.5050373 0.53840125 0.6745824 
0.9720098 0.16606447 0.16619188 
0.75291675 0.30285347 0.58429116 
0.0587226 0.6085121 0.79136896 
0.1552006 0.6736673 0.7225547 
-0.14915583 0.36887106 0.91743493 
-0.4279811 0.8157146 0.3891554 
0.09288173 0.93569905 -0.34035337 
0.2770259 0.9306668 0.23898962 
0.13614094 0.9218914 0.3627424 
-0.477683 0.80286175 -0.35669595 
0.04504412 0.9436009 0.3280068 
0.60611314 0.7788545 0.16128434 
0.35481498 0.89492613 0.27058032 
0.33520937 0.8967712 0.2888531 
0.18071258 0.44163755 0.87880564 
0.41587096 0.8499378 0.32350785 
0.2322729 0.40009207 0.88655263 
-0.1690113 0.6328143 0.755633 
-0.41264278 0.34635925 0.8424734 
0.69949454 0.52879196 0.48071462 
0.45911834 0.8813459 0.111533955 
-0.37787536 0.72951347 0.57010555 
-0.76221824 0.54418737 0.3505473 
0.10154343 0.95438397 -0.28078493 
0.015018092 0.9966929 -0.07986138 
0.21501991 0.9141933 0.3435362 
0.37125054 0.605216 0.70419216 
-0.097330086 0.9924968 0.07400733 
0.45806822 0.8472459 -0.2689759 
0.44255155 0.038220774 -0.89592826 
0.5902081 0.7792573 0.21074288 
0.085404746 0.23561941 0.9680855 
-0.9052825 -0.33889508 0.25615194 
-0.7657853 0.606099 -0.21498096 
0.047932025 0.4407741 -0.89633745 
0.1387838 0.22645286 0.9640841 
-0.22998975 0.87437654 0.4272826 
-0.13137674 0.47474232 0.8702643 
-0.24784595 0.58995795 0.7684543 
0.060211875 0.54488087 0.8363489 
-0.28973216 0.9247684 0.24669549 
-0.40351534 0.5104074 0.75938106 
0.35009652 0.86531144 0.35870406 
-0.009933245 0.83202416 0.55465066 
-0.10952241 0.7697189 0.62891793 
-0.67479664 0.5739236 0.46396267 
0.19005525 0.7605473 0.62084377 
-0.13553911 0.16551898 0.9768483 
0.035431787 0.2698272 0.9622567 
-0.30486032 0.038213395 0.95163023 
-0.43051505 0.75534457 0.49407634 
0.24830662 0.7262309 0.6410402 
0.949556 0.1604378 -0.26944965 
0.939624 -0.116432495 -0.3217923 
0.7429898 -0.41369978 0.5261356 
0.44049066 0.3491277 0.8270901 
0.8534982 -0.061111398 0.5175 
0.34178168 -0.4517116 0.8241008 
0.23301564 0.23534973 0.9435647 
0.2097653 0.6874193 0.6953081 
-0.29520926 0.85725284 0.4218638 
-0.12327214 0.46403155 0.87719935 
-0.32796302 0.9305728 -0.16271038 
0.33188996 0.90608317 -0.2624162 
-0.06810316 0.9156313 0.39620858 
-0.40551823 -0.3369489 0.84971786 
-0.5067085 0.14224488 0.8503017 
0.2689499 0.26068094 0.9272062 
0.7997882 0.16952989 0.57584596 
-0.3926185 0.21597876 0.893982 
-0.7359163 0.21446836 0.64220756 
0.00653837 0.35454112 0.93501765 
0.10709229 -0.3282661 0.93849486 
0.10759076 -0.8682065 0.48439825 
0.09825812 -0.008356084 0.99512595 
0.591912 0.09464853 0.8004261 
-0.12866735 0.5750429 0.8079421 
-0.18954931 0.9326239 -0.3070565 
0.4508334 0.8757529 -0.17264433 
0.8662498 0.4953934 -0.06478339 
0.5006601 0.6489162 0.5729286 
-0.37558034 0.6026899 0.7040628 
-0.12748419 0.40056804 0.90735495 
-0.04930344 0.052216217 0.99741805 
-0.8020636 0.47896904 0.3567672 
-0.90201074 0.33251855 0.27533278 
-0.43787605 0.8543469 0.27992183 
-0.63136816 0.75163907 -0.19082208 
0.5935573 0.7935258 0.13418914 
0.15545751 0.96974343 0.18823041 
-0.18428059 0.9792825 0.08394404 
-0.36294255 0.9312388 -0.032668304 
-0.4287836 0.8083518 -0.4033756 
0.1198538 0.5582983 -0.82093745 
0.78334886 0.5545932 -0.28069746 
0.66774344 0.72930294 0.14911708 
-0.2615181 0.68005127 0.684937 
0.09843383 0.433054 0.89597726 
0.12756129 0.880684 0.45620584 
-0.12716389 0.9674928 -0.21860266 
0.71555877 0.5926805 0.36973715 
0.109871194 -0.49914747 0.8595232 
0.54056567 0.6101945 0.5791818 
0.54579276 0.8002081 0.24855018 
0.09279619 0.4832522 0.87054944 
-0.17122152 0.4326455 0.88515604 
0.47796547 0.8251726 0.3010637 
0.5140618 0.7761518 0.36514235 
0.8731383 0.23673788 0.42612764 
-0.12606065 0.98628336 0.106555074 
0.5686836 0.79338294 -0.21712364 
0.804251 0.57965916 0.13105544 
0.5308662 0.6255473 0.57172704 
-0.20853277 0.97369915 0.09178318 
-0.26265228 0.8105386 0.5234895 
-0.4267174 0.74301744 0.51559436 
-0.1035268 0.9138774 0.39256892 
-0.47487 0.81750953 -0.32584748 
-0.6580041 0.6553052 -0.37095243 
-0.2487127 0.9057029 -0.3432845 
0.24553537 0.94803953 -0.20232049 
0.5453069 -0.11106435 0.830846 
-0.052291494 -0.08211487 0.99525017 
-0.059474513 0.9599349 0.27383915 
0.5549093 0.81385815 0.17236802 
0.5723995 0.72633815 0.38051507 
0.5037724 0.5073305 0.6991632 
-0.20039491 0.7028625 0.6825146 
0.5089841 0.66807145 0.54278517 
-0.19922313 0.810848 0.5503052 
-0.11558208 0.98378694 -0.137128 
0.24028008 0.9640141 0.11376465 
0.3226116 -0.42268428 0.84691185 
-0.29169995 -0.18648012 0.9381559 
0.089929506 0.6502727 0.7543595 
-0.45273435 0.41252556 0.7904772 
0.009815383 0.9879025 0.15476568 
0.51097196 0.85443485 0.09406787 
0.4840287 0.7612592 0.4315098 
0.7176284 0.65425354 0.23866688 
0.67517006 0.7375525 0.01271634 
0.17136455 0.60153556 0.7802495 
-0.2292083 0.71202546 0.6636892 
0.47645438 0.8763724 0.070446685 
0.32089067 0.94382983 -0.078831576 
-0.39506605 0.9159771 0.07006308 
-0.052751284 0.9744831 -0.21817441 
0.009253557 0.9997471 -0.02049525 
0.05916605 0.88007736 0.47112983 
-0.34198076 0.8718692 -0.35056144 
0.3961511 0.90212154 -0.17100023 
-0.37378535 0.8566472 0.3555841 
0.24740662 0.61208034 -0.7510977 
0.3265561 0.9435875 -0.054808546 
0.05576175 0.99837863 -0.011435334 
0.28646877 0.80822676 0.51449513 
0.4013829 0.86205846 0.3094301 
-0.23525676 0.81333226 0.53211373 
-0.14435357 0.9054147 -0.39923215 
-0.8278248 0.55876863 -0.049836457 
-0.26600763 0.9415976 0.20647992 
0.4187902 0.8475896 0.32589364 
-0.48700795 0.7797767 0.3934102 
0.56172264 0.82483584 -0.064136714 
0.16189124 0.7116554 0.6836211 
0.5139409 0.5293749 0.6750015 
0.60953385 0.7551819 0.24118255 
-0.034685556 0.9001381 0.4342217 
-0.29906622 0.9364098 -0.18356515 
0.1466769 0.91065013 -0.38626704 
0.009899372 0.98515093 0.1714051 
-0.44998395 0.8911875 0.05744075 
0.12500879 -0.69274557 0.71026504 
0.0039236727 0.22446032 0.9744754 
-0.18505035 0.20318551 0.9614947 
-0.577859 0.4507213 0.6803891 
-0.57752115 0.6688344 0.46811312 
-0.8330179 -0.31612074 0.45403618 
-0.29770768 -0.4607226 0.83612496 
0.8914241 0.4528647 -0.016629543 
0.26189286 0.001474544 0.9650959 
0.3040706 0.4708328 0.8281652 
0.9159871 0.1502367 0.372017 
0.6202558 -0.49126983 0.6115037 
0.9326929 -0.072883114 0.3532309 
-0.40352815 -0.55125415 0.730263 
-0.72344154 -0.08041391 0.6856865 
-0.7572465 -0.045517895 0.6515412 
-0.6507375 0.037684184 0.75836706 
0.06450798 0.57304084 0.816984 
0.2144777 0.7221694 0.657625 
0.11629505 0.34686625 0.9306769 
-0.60252565 0.25345877 0.7567837 
-0.8952553 0.124104775 0.42792037 
-0.038399857 0.7514912 0.6586247 
0.061646592 0.56463766 0.82303345 
-0.13481112 0.8928473 0.4297087 
-0.49716264 0.74379945 0.44675684 
0.63280165 0.7484586 0.19842306 
-0.39438456 0.57081383 0.7201614 
0.17517811 0.9449667 0.2763163 
0.021361502 0.5160177 0.8563115 
-0.6216532 0.31225225 0.7183634 
-0.4971105 0.63518155 0.5911224 
-0.102079555 0.21761459 0.9706821 
-0.14520791 0.05691457 0.98776287 
-0.3772373 0.80554193 0.4569403 
0.030559497 0.36100703 0.9320623 
-0.8156539 0.54743105 0.18715806 
-0.22439837 0.77648675 0.5888239 
-0.6004812 0.77155644 0.2100546 
-0.41101468 0.29424408 0.86283684 
-0.86302555 0.47264072 0.1783194 
-0.8094251 0.5868766 -0.02017025 
0.38616812 0.798168 0.46238738 
0.38307947 0.9206741 -0.07489532 
-0.058639076 0.97550535 -0.21201622 
-0.5924883 0.5142516 0.6200831 
0.29120696 0.27013835 0.91772753 
0.94557995 -0.003112576 0.32537502 
0.35921484 -0.24553517 0.90037614 
0.24550682 -0.07417283 0.96655315 
0.40048397 0.6079282 0.6855917 
-0.43523413 0.85235107 0.2899466 
-0.24155244 0.7225215 0.64777714 
0.1401772 0.91721594 0.3729148 
-0.0053258706 0.87685764 0.48072082 
-0.19370443 0.08867887 0.97704387 
-0.11319814 0.34319425 0.93241835 
-0.2631543 0.5780247 0.772423 
-0.5666299 0.8239725 -0.00022925659 
-0.52609617 0.7722442 0.3561767 
-0.5069013 0.8200642 0.26560473 
-0.61540204 0.740505 -0.27006072 
-0.7406864 0.6315743 -0.22912344 
-0.119623095 0.9927951 0.0069501013 
0.2125999 0.5341072 -0.8182487 
0.76395 0.5293772 -0.36897197 
0.9685517 0.20680982 -0.13833761 
0.7582341 -0.41127497 0.50589925 
0.65120804 0.05500399 0.75690335 
-0.44994512 0.32567722 0.831555 
0.53597903 0.5730044 0.61999404 
0.83548945 0.4129484 0.3625344 
0.64986444 0.6484492 0.39647186 
0.8010963 0.039822593 0.59720916 
0.5305021 0.09336062 0.8425268 
0.7058777 -0.061751977 0.70563686 
0.27395812 -0.11904464 0.9543455 
0.124996625 0.8143678 0.56672823 
0.7306603 0.63450485 0.25206968 
0.55510706 0.77002 -0.31452402 
0.47835237 0.66776145 0.5703277 
0.7933438 0.45757714 0.40153342 
0.527994 0.65356535 0.5422867 
0.46527833 0.48357245 0.74139994 
0.71075886 0.36964697 0.5984839 
0.7684071 0.28487492 0.57305914 
-0.07135585 0.795106 0.6022582 
0.2782661 0.72311723 0.63219416 
-0.1989149 0.458578 0.8661057 
-0.34288383 0.7366768 0.5828705 
0.4600719 0.8747135 0.15234865 
0.32243818 0.9445983 0.06138276 
0.28133655 0.92894775 -0.24063642 
0.519938 0.77590823 0.35725486 
0.39791435 0.7008423 0.59201705 
0.5758272 0.4966919 0.64939994 
0.7532275 0.45849138 0.4716292 
0.06909433 0.8833824 0.4635317 
0.17002414 0.56290966 0.8088414 
-0.12161642 0.80271167 0.5838353 
-0.30140066 0.54428047 0.78288984 
-0.5394652 0.7771324 0.3241026 
-0.12066499 0.9398685 0.3195109 
0.55145556 0.6905777 0.46797365 
-0.33106306 0.014336875 0.94349974 
-0.9805411 0.15047285 0.1260841 
-0.89128417 0.2920606 0.3468619 
-0.39341766 0.7814599 0.4842965 
-0.33149788 0.8710251 0.36252522 
-0.12677838 0.9233108 0.36252525 
0.30718046 0.9497509 0.060112875 
0.39616728 0.8978641 0.1920718 
0.8079311 0.57951987 0.10678994 
0.5654534 0.820008 0.088597395 
0.45958665 0.664163 0.5896335 
-0.43591663 0.86950946 0.23222852 
-0.745276 0.65954554 0.09779268 
-0.294736 0.95322526 0.06702606 
0.66521126 0.629322 0.40180573 
0.4427388 0.63259906 0.6354532 
0.032994084 0.24553211 0.96882683 
-0.8208658 0.03505854 0.5700442 
-0.19575194 0.9805183 0.016285896 
-0.766697 0.6129472 0.19097489 
-0.5787893 0.808705 0.104877114 
-0.18328862 0.9814884 -0.055550642 
-0.22700484 0.679687 0.69749147 
0.15957174 0.7347935 0.6592538 
0.030555477 -0.0019523154 0.9995312 
-0.7869936 0.084202275 0.6111883 
-0.114139475 0.47087535 0.87478495 
0.2596831 0.38580403 0.8852797 
0.08409779 0.7176272 0.69133115 
0.5979569 -0.25639528 0.7594137 
0.10558409 0.33616742 0.93586516 
0.009666762 0.6542077 0.75625324 
0.1098175 0.8591502 0.49980107 
0.6351568 0.71310955 -0.2967334 
0.7968642 0.108494505 0.594337 
0.7141191 0.4357136 0.54789394 
0.47106975 -0.054500747 0.88041073 
0.22694504 -0.36459047 0.903089 
-0.097209156 -0.44303587 0.89121807 
0.5520184 0.11216403 0.8262536 
-0.54585004 0.44083843 0.71253717 
0.18019076 0.7652625 0.6179843 
-0.16671792 0.95259017 0.2545137 
0.12987989 0.8893758 0.43834016 
0.78561956 0.3142669 0.53295255 
-0.26797614 0.50410855 0.82101375 
-0.10747545 -0.31226242 0.94389683 
-0.13335113 0.23792602 0.9620856 
0.33296835 -0.3069409 0.8915825 
0.23618816 0.07858144 0.9685248 
-0.2850633 -0.19955261 0.9375061 
-0.84713876 0.29853323 0.43958363 
-0.64485306 -0.5002497 0.5778536 
-0.92614007 -0.35721022 0.1211016 
0.842041 -0.025426455 0.538814 
0.6460372 -0.55030257 0.5289641 
0.13538362 0.22024752 0.9660033 
0.46300668 0.77490556 0.43028632 
0.44813704 0.5621929 0.69506294 
0.42446408 0.88374776 0.19702837 
0.6319465 0.6779209 0.37558874 
-0.45622683 0.1669029 0.87407124 
-0.738736 0.2672137 0.6187618 
-0.07163338 0.6018114 0.7954193 
-0.0072817057 0.25088167 0.96799046 
-0.38269594 -0.10804849 0.9175345 
0.021034854 0.38484222 0.9227427 
-0.065061375 0.97605634 -0.20755999 
0.27823025 0.9375273 0.20887926 
0.19597824 0.9410165 0.2758271 
-0.103261285 0.7506391 0.65259343 
0.047560122 0.8541597 0.5178313 
0.36741406 0.89092255 0.26695296 
0.167767 0.8400049 0.51599026 
0.31687364 0.7866229 0.5299204 
-0.20696042 0.8458851 0.49157497 
-0.16733254 0.5080045 0.8449446 
0.3213466 0.5081666 0.79906386 
-0.064652085 0.40476462 0.91213256 
-0.084157325 0.9665051 0.24245733 
0.041103594 0.7221321 0.69053304 
0.41360745 -0.15420288 0.8973017 
0.11964255 0.866537 0.48456112 
0.2603916 0.96410364 -0.051965762 
0.40155128 -0.04537099 0.91471213 
0.15104327 -0.11118167 0.9822549 
0.6969327 0.6585675 0.28385514 
0.536988 0.38815784 0.7489843 
0.23709705 0.7916574 0.56308407 
-0.24621819 0.9691608 -0.01019758 
0.35675147 0.9265897 -0.11899538 
0.71158344 0.5166555 0.47614732 
0.9781889 0.16332126 0.1283463 
0.50307286 0.6253616 0.5965238 
0.6972262 0.6760757 0.23832181 
-0.48614064 0.64500433 0.58960736 
-0.4068871 0.8699408 0.27865005 
-0.02733264 0.99962324 -0.002526203 
-0.13277997 0.98965293 0.054375317 
0.13120927 0.77590936 -0.6170485 
0.43771076 0.6892601 0.5773473 
0.18655676 0.1980206 0.9622809 
0.30699793 0.23487978 0.922271 
-0.23078105 0.40559402 0.88443977 
0.38609326 0.8275285 0.40758908 
0.4951775 0.5808828 0.6460453 
0.17468275 0.6578759 0.73258805 
-0.625749 0.7062508 0.33113158 
0.4663126 0.8779614 0.10833481 
0.400791 0.6295723 0.66558653 
-0.33440635 0.92070156 0.20119905 
-0.6568528 0.6250811 0.42168492 
0.586533 0.090540364 0.80484885 
-0.16027544 0.31980848 0.9338278 
-0.2025756 0.4574856 0.8658349 
0.014177487 0.33760124 0.9411825 
-0.33579916 0.7887418 0.5149033 
-0.3389581 0.8712038 0.35512176 
-0.42578962 0.7675019 0.47921193 
-0.20776609 0.97602177 -0.06492276 
-0.114987366 0.77129364 0.62600636 
0.19351628 -0.15303276 0.96908844 
-0.357585 0.21137501 0.9096448 
-0.5261285 0.80818623 0.26462033 
-0.19959013 0.9798503 0.007558355 
-0.44368252 0.6098556 0.656675 
-0.28590605 0.8596331 0.423425 
0.028728606 0.999308 -0.02363006 
-0.6805085 0.73241436 0.021851193 
-0.09906884 0.98810065 -0.117653795 
-0.26743895 0.9098817 0.31716228 
-0.3111389 0.9467605 -0.082688175 
0.51184213 0.858498 0.031604093 
0.4561178 0.841377 -0.28989863 
0.0357066 0.7462256 0.66473484 
-0.33166197 0.58174807 0.7426773 
0.09645458 0.667812 0.738054 
-0.02178898 0.91857153 0.39465398 
0.23489474 0.87663424 0.41992506 
-0.7239683 0.12275514 0.67882335 
-0.07933486 0.26129007 0.9619946 
-0.24193317 0.53960407 0.8064092 
-0.09379437 0.94480413 -0.31392333 
0.4970756 0.85046405 0.17212485 
0.47652492 0.389695 0.78807473 
-0.3215368 0.38036263 0.86714387 
-0.54567456 0.6667242 0.5076595 
-0.31345895 0.60132414 0.7349509 
0.36737546 0.90696377 -0.20603897 
0.50455314 0.8598846 0.07761861 
0.54603183 0.5720859 0.61201876 
0.088350095 0.7221267 0.68609565 
-0.658706 0.0063944487 0.7523733 
-0.23403938 -0.04436984 0.9712142 
-0.3401013 -0.22343801 0.9134586 
0.35682422 0.7891527 0.49991453 
-0.2338546 0.39066377 0.8903336 
0.3060156 -0.2969695 0.90452397 
0.47880843 -0.13550818 0.86739844 
0.27553394 -0.116038755 0.95426214 
0.384884 0.0030658767 0.9229599 
0.33504516 0.4759436 0.81315583 
0.67895424 0.13513672 0.72163653 
0.54382086 0.014618042 0.83907413 
0.46841705 -0.17098801 0.8668037 
0.44972527 0.019678589 0.8929502 
-0.039289694 0.032528624 0.99869835 
-0.58839154 0.3048305 0.7489151 
0.040776666 0.74784195 0.6626234 
-0.7315365 0.54490614 0.40979475 
-0.09571535 0.5179607 0.85003257 
-0.08757809 0.83286077 0.54651 
-0.6768566 0.19298683 0.710367 
-0.23812109 0.80008215 0.5506061 
-0.40353575 0.24107628 0.8826331 
0.18286806 0.46106973 0.86831677 
0.19777219 0.826594 0.5269048 
0.12544803 0.16891073 0.97761554 
0.11298576 -0.4379964 0.8918483 
-0.2158403 0.4846445 0.8476631 
-0.14935818 0.73311704 0.6634995 
0.30356622 0.47510287 0.82590854 
-0.33333403 -0.04205805 0.94187033 
-0.023691269 0.51058304 0.859502 
-0.069443665 -0.037429035 0.99688345 
-0.09429864 0.24925981 0.96383476 
0.21847525 0.52707404 0.82125616 
-0.2658327 0.65413916 0.7081208 
-0.87997144 0.089149475 0.46658608 
-0.33091417 0.20392007 0.92136455 
0.27294922 -0.17682852 0.9456376 
-0.5456921 -0.1462683 0.82512164 
-0.51030165 0.5505423 0.6606781 
0.012381744 0.9779415 0.20851192 
0.40932393 0.6107394 0.6778285 
0.2561548 0.1207246 0.95906746 
0.019434042 0.88515407 0.4648921 
-0.22243889 0.58029324 0.78344154 
0.23233868 0.43546125 0.8697082 
0.06081643 0.48490515 0.87244964 
0.16632304 -0.35281262 0.9207931 
0.25893083 -0.029204112 0.9654543 
0.06703887 0.36518815 0.9285168 
0.20450345 -0.2504133 0.9462936 
-0.69300896 0.4105184 0.59263253 
-0.2132397 0.80818963 0.5489613 
0.22598809 0.5769051 0.7849267 
0.044629063 -0.63184905 0.77380556 
-0.66081923 -0.051471226 0.74877816 
-0.5190371 0.4758929 0.7100186 
0.14465417 0.8909636 0.43041736 
-0.055441774 0.9557223 0.28900042 
-0.10805737 0.911426 0.39702162 
-0.031625386 0.999462 -0.008699394 
-0.02701631 0.66056806 0.7502799 
-0.4701481 0.8742573 0.1209751 
-0.035897337 0.19596145 -0.97995436 
0.4059172 0.59606814 -0.69277275 
0.058659464 0.7042166 -0.7075579 
0.63583386 0.26583496 -0.7246013 
0.8258527 0.3655 0.4293914 
-0.002634789 0.79596305 0.6053396 
0.46302903 0.36041212 0.80975753 
0.6903461 0.52929884 0.49321914 
0.68640053 0.583888 0.4335081 
0.3586775 0.5389311 0.76217043 
0.0589107 0.4759115 0.87751794 
0.77618134 0.3521531 0.5230018 
0.54574275 0.19966015 0.81381863 
0.7693879 0.61359686 0.1775984 
0.47771382 0.85290873 0.21056202 
-0.17049506 0.9772793 0.12592272 
0.32086748 0.65023106 0.6886536 
-0.46031594 0.8852568 0.06655494 
-0.09555836 0.69992507 0.70779485 
-0.36813584 0.9199519 0.13477594 
0.45185533 0.7868696 0.4203131 
0.36354393 0.83123046 0.42058513 
0.3372241 0.30278122 0.89140534 
0.505894 0.28962237 0.812521 
0.06071608 0.59667486 0.8001829 
0.04852394 0.40062356 0.9149569 
0.009261172 0.46407562 0.88574725 
0.4563078 0.81397617 0.35948032 
0.14170502 0.37582368 0.91579276 
-0.21308951 0.9308922 0.29670283 
-0.04195658 0.9711305 -0.23483035 
0.9422155 0.1529746 0.2980415 
0.9255426 0.2902011 -0.24321665 
0.82236516 0.39153057 0.4128188 
0.13747954 0.84141225 0.5226136 
0.30905515 0.18271735 0.9333271 
0.024920056 0.41029283 0.9116134 
0.14287402 0.6646327 0.73338294 
-0.20704518 0.8803131 0.42682683 
0.32372037 0.87892926 0.3502692 
-0.30265144 0.6255132 0.71912134 
-0.9215149 -0.089018516 0.37800255 
-0.2312452 0.85578 0.46278116 
0.004070735 0.86058795 0.5092856 
-0.6073779 0.65661657 0.4471541 
-0.43091023 0.9018473 0.031433124 
0.049532164 0.6815663 0.73007804 
-0.06779561 0.8307792 0.55245805 
-0.21835162 0.88244903 0.4166608 
-0.005965098 0.7310064 0.68234456 
-0.25953877 0.31148157 0.914122 
-0.33243632 0.6777657 0.6558352 
-0.61309403 0.5735765 0.5432548 
-0.023093317 0.9723419 -0.23241806 
0.8654682 0.35055348 0.3578786 
0.19041592 0.0211949 0.98147476 
0.20308815 -0.46584716 0.86124426 
-0.85044926 0.30171627 -0.43093303 
-0.30516133 0.9522521 0.009616592 
-0.60175264 0.6380164 0.4804466 
-0.25709754 0.82247496 0.5073814 
0.05727196 0.95805544 0.28080213 
-0.5382876 0.25457418 0.8033919 
-0.1713161 0.37753507 0.91001 
-0.6267203 0.072177164 0.77589446 
-0.7213464 0.24368021 0.6482897 
0.099312924 0.600387 0.793519 
-0.18227856 0.43088824 0.88380426 
-0.7169995 0.67449814 0.17596626 
0.7950745 0.15415426 0.5865945 
0.11807063 0.2986747 0.9470231 
0.39686006 0.57280016 0.7172184 
0.1181331 0.94802177 0.29546478 
0.1985629 0.85016644 0.48763686 
0.4636134 0.54756385 0.6965892 
0.5481748 0.669182 0.5016971 
0.56645393 0.7917666 0.22855131 
0.78168535 -0.2773535 0.5586083 
0.6852053 -0.18531246 0.7043814 
0.78980905 -0.06198001 0.61021334 
0.089467354 0.3764304 0.92211485 
0.53710765 0.5242754 0.6607955 
0.11099383 0.4612957 0.88027656 
0.11432237 0.59836566 0.79302526 
0.5754383 -0.07361376 0.8145255 
0.46830085 -0.5604891 0.68304205 
0.13777767 -0.6542086 0.74365884 
0.6679211 -0.34933114 0.6571523 
0.5476469 0.23813045 0.8021078 
0.8276557 0.24258608 0.50610095 
-0.57232785 0.3576489 0.73792154 
-0.9549118 0.116086215 0.2732533 
-0.89277446 0.4170871 0.17027071 
-0.10138144 0.60567826 -0.7892248 
0.71682805 0.69688517 0.022556059 
0.7483158 0.31350544 0.5845835 
0.04693064 0.8453213 0.532193 
0.7187693 0.5131138 0.46913207 
0.12025329 0.91644716 0.38165918 
0.8081747 0.049167752 0.586887 
0.4836964 0.74747026 0.45533082 
-0.06571969 0.3170374 0.9461334 
-0.3289703 0.25470454 0.9093427 
-0.7574592 -0.064609274 0.64967775 
-0.5162897 -0.009652036 0.85635966 
-0.10697087 0.5809544 0.8068763 
0.63723904 -0.30809006 0.7064042 
0.11696436 0.8279577 0.5484574 
0.29563648 0.66201884 0.68871635 
0.16049309 0.9844233 0.071782656 
-0.068883546 0.9299383 0.3612062 
0.68423826 0.5795858 0.44260412 
0.21198258 0.8753359 0.43456924 
0.38641575 0.15722351 0.9088254 
0.031935494 0.26086426 0.9648472 
0.57226294 0.18593158 0.7987144 
-0.46045327 -0.089889385 0.88312095 
-0.77608114 0.28739962 0.5613373 
-0.43773526 0.3514459 0.827571 
0.41658446 0.8810933 0.22390153 
0.044645827 0.7954128 0.6044215 
-0.16702968 0.03837246 0.9852049 
-0.052350756 0.601697 0.7970071 
-0.028662032 0.7103823 0.7032322 
-0.2333298 0.63453746 0.7368307 
-0.045739435 0.75494695 0.6541888 
-0.38589418 0.88508844 -0.2602001 
0.15958573 0.9494916 0.27018172 
0.41669562 0.72178763 0.55261874 
-0.21664669 0.82118624 -0.52793694 
0.619227 0.78518784 -0.0061761704 
0.7169748 0.69677573 -0.02123302 
0.65614563 0.73925424 0.15157866 
0.48991436 0.7485506 0.44682884 
0.3933711 0.8527423 0.34364188 
0.15216868 0.53751236 0.82941264 
0.5344731 0.33993974 0.7738085 
-0.11770105 0.4755679 0.87176925 
-0.1372357 0.8747411 0.46475205 
0.23004258 0.8521104 0.47009382 
0.23274304 0.74649 0.6233646 
0.5975761 0.43585366 0.67300403 
-0.42894474 0.31943578 0.8449659 
-0.76184785 0.35476744 0.54196674 
0.081651606 0.2675885 0.9600675 
-0.72731584 0.46837452 0.50163436 
-0.106486864 0.5702978 0.8145066 
-0.4515529 0.73571104 0.50480616 
-0.05214291 0.9576263 0.28325447 
0.6925215 0.49342868 0.5262529 
0.28975675 0.75371385 0.58987844 
-0.6376309 0.69031453 0.34189594 
0.22502859 0.621251 0.750606 
0.23487335 0.66009647 0.71351755 
0.089178905 0.22971056 0.96916467 
-0.33449888 0.4571916 0.82406706 
-0.35241905 0.46978295 0.8093855 
-0.5423995 0.5831692 0.604745 
-0.3272157 0.85372704 0.40506804 
-0.5318937 0.76556045 0.36194798 
0.015334991 0.5382557 0.8426421 
0.328037 0.46799916 0.8205905 
0.11401208 -0.30991137 0.94390476 
-0.67677927 0.66215825 0.32173958 
-0.53537786 0.68645394 0.4920891 
-0.03786752 -0.27429414 0.96090007 
-0.48891714 0.5042518 0.7118218 
0.42553738 0.8974401 0.116272315 
0.17128581 0.8465927 0.5039266 
-0.4921242 0.795996 0.3524262 
0.36949125 0.74144757 0.56011766 
-0.26496282 0.88842434 0.3748292 
-0.27656287 0.95474446 0.10943443 
-0.5541253 0.83187693 -0.030430436 
-0.05552033 0.80358267 0.5925981 
-0.23880158 -0.16752088 0.9565096 
-0.12208629 0.45362675 0.8827898 
-0.11621493 0.44180536 0.88955164 
-0.4229642 0.57065374 0.7038861 
0.13870148 0.31348932 0.9394074 
0.54070044 0.24587664 0.8044798 
0.28388306 0.51000696 0.81197494 
-0.35168868 0.73053765 0.5853459 
0.48210388 0.68876 0.54146624 
-0.12007192 0.7960589 0.59318894 
-0.10210507 0.35962912 0.9274921 
-0.6193804 0.4352434 0.65339965 
-0.64342946 0.76535 -0.015426529 
-0.7450779 0.2771658 0.60666144 
-0.6517848 0.35699975 0.6691247 
-0.33946797 0.4385544 0.8321248 
0.19780248 0.5598563 0.80463356 
0.16423307 0.1950023 0.9669548 
0.44957423 0.21775745 0.8662938 
-0.5371161 -0.46642345 0.70281965 
-0.042267174 0.38237953 0.9230382 
0.30691776 0.76888865 0.56090283 
0.65035033 0.46901876 0.59754986 
0.75836253 -0.021147218 0.65149 
0.13901561 0.22692323 0.9639401 
0.009723864 0.09756317 0.9951819 
0.5477419 0.10023815 0.83062106 
0.61783034 0.19999741 0.7604516 
0.3205216 0.60020924 0.732813 
0.74234825 0.13117313 0.6570485 
0.4131919 0.3834627 0.8259714 
0.31374317 0.1735792 0.9335072 
-0.6316656 0.32430547 0.7041481 
-0.4617967 0.79436296 0.3946282 
-0.7513091 0.5261752 0.39833972 
0.011142899 0.40747318 0.9131492 
-0.4679247 0.53374106 0.7043913 
0.02504584 0.93960196 -0.34135154 
0.2871521 0.88929844 0.35593826 
0.39419782 0.10859358 0.91258734 
0.39955512 0.7173518 0.5707558 
0.29370022 0.40787613 0.8645099 
0.6979966 -0.21219128 0.68394125 
-0.16864745 -0.27892458 0.94538844 
-0.37220943 0.47259688 0.79881936 
-0.6568238 0.080256544 0.74976087 
-0.40495658 0.16467059 0.8993853 
-0.17351313 -0.5242397 0.83370614 
-0.5587853 -0.3837945 0.73516035 
-0.25868264 0.6033247 0.75437576 
0.13920559 0.8243269 0.54873216 
0.068691015 0.3282669 0.9420841 
-0.40351465 0.6266878 0.66666204 
-0.7562024 0.25598657 0.60218686 
-0.6121277 0.46746805 0.6377879 
-0.12537368 0.3386594 0.93251884 
0.4073337 0.456218 0.79116654 
0.20285061 0.5094556 0.8362456 
0.22251236 0.3521001 0.909128 
0.2334397 0.05288116 0.9709323 
-0.21693848 0.36916548 0.9036894 
-0.48667878 0.4124671 0.7700744 
-0.40571982 0.48094788 0.7772262 
-0.45595893 0.71180475 0.5342616 
-0.59319854 0.21467508 0.7759061 
-0.4427338 -0.4910426 0.75024265 
-0.36844313 -0.15645123 0.91639113 
-0.57063544 0.5401104 0.618592 
-0.14460522 0.6420535 0.75289893 
-0.63760066 0.4873549 0.596616 
-0.16072468 0.42860526 0.8890811 
-0.02550146 0.4391466 0.8980535 
0.15956253 0.6662928 0.72841865 
-0.14109886 0.59108573 0.7941718 
-0.14285307 0.62814486 0.76487064 
0.23361354 0.78541833 0.5731866 
0.20961943 0.6720776 0.71019113 
0.035973422 0.58320767 0.81152624 
0.3425613 0.4278599 0.8364136 
-0.6090058 0.19601353 0.768564 
-0.4524781 0.8245748 0.33961737 
-0.026921509 0.98832613 -0.1499557 
0.46865377 0.8816561 -0.05519182 
0.60353816 0.6025521 -0.52218074 
0.5308509 0.8472606 0.018626276 
0.7959156 0.4058297 0.44924462 
0.42300394 0.40796417 0.8090939 
0.48915938 0.067396306 0.8695867 
0.93129987 -0.16177297 0.326359 
0.665942 0.19899665 0.7189726 
0.7114614 0.45438072 0.5360605 
-0.15355684 0.37194663 0.91546494 
-0.21576028 0.85134906 0.47817606 
0.34698153 0.5862225 0.73208404 
-0.028649315 0.6092039 0.7924961 
0.2583657 0.61647666 0.7437767 
0.3425285 0.64329696 0.68472135 
-0.054865994 0.7625067 0.6446497 
0.1091104 -0.00035479918 0.99402964 
0.26199162 0.4390769 0.8594021 
0.23777898 0.81288886 0.53167003 
-0.12530804 0.7124277 0.690467 
0.5674458 0.7237542 0.39266416 
0.4820954 0.048779152 0.87475985 
-0.09876797 -0.014819446 0.9950001 
0.061160907 0.27531323 0.9594071 
-0.37871635 0.29010537 0.8788702 
-0.44837534 0.88403165 0.13209 
0.725964 0.48066226 0.49187422 
0.3938558 0.5842559 0.7095934 
-0.11710594 0.9503637 0.2882622 
0.32466123 0.86113185 0.39121237 
0.6549741 0.5928956 0.46849093 
-0.38599727 0.9115936 -0.14143267 
0.8318544 0.5479349 0.08823705 
0.68061316 0.08991859 0.7271041 
-0.1116097 -0.23045065 0.9666622 
0.111429006 0.01994957 0.9935722 
0.23003417 0.5116577 0.8278229 
0.71336335 0.039850313 0.6996604 
0.42014268 0.6334929 0.6497438 
-0.021651596 0.8566753 0.5154015 
0.35954195 0.6948161 0.6228645 
-0.27756837 0.9389695 0.20320499 
0.2675508 0.9447636 0.1893099 
-0.5819274 0.8128692 0.024577433 
-0.36935398 0.83418536 0.40952715 