# OOMMF: rectangular mesh v1.0
# Segment count: 1
# Begin: Segment
# Begin: Header
# Desc: Time (s) :  1.1200000000000001e-07
# Title: m
# meshtype: rectangular
# meshunit: m
# xbase: 2e-09
# ybase: 2e-09
# zbase: 5e-10
# xstepsize: 4e-09
# ystepsize: 4e-09
# zstepsize: 1e-09
# xmin: 0
# ymin: 0
# zmin: 0
# xmax: 1.024e-06
# ymax: 1.024e-06
# zmax: 1e-09
# xnodes: 256
# ynodes: 256
# znodes: 1
# ValueRangeMinMag: 1e-08
# ValueRangeMaxMag: 1
# valueunit: 
# valuemultiplier: 1
# End: Header
# Begin: Data Text
-0.3813476 -0.6912673 0.6137781 
0.27995756 0.086015515 0.9561512 
-0.19996472 0.0900406 0.9756571 
-0.019996595 0.2153812 0.9763254 
-0.073424116 -0.39350832 0.9163843 
0.039500557 0.28284848 0.95835096 
-0.16135354 0.22404191 0.96112967 
-0.36229357 0.71120214 0.6024408 
0.050287697 0.8595795 0.50852156 
0.6625195 0.45877552 0.59210896 
0.38686243 0.32256135 0.86388177 
0.55874723 0.51211363 0.65233517 
-0.046884224 0.75524586 0.6537628 
0.3379019 0.3363408 0.879032 
-0.5009395 0.60455877 -0.619329 
0.46951962 0.85059184 -0.23673804 
0.34188375 0.8656152 -0.36582217 
-0.61837924 0.4955099 0.60998136 
-0.104009114 -0.035579745 0.9939398 
-0.20509206 0.78527296 0.5841949 
-0.11306131 0.79758656 0.59251404 
-0.18907952 0.87451565 0.44662237 
-0.1306788 0.3164192 0.9395754 
0.40773758 0.57174355 0.7119406 
0.20200765 0.7327431 0.6498312 
-0.1243668 0.052433837 0.99085003 
-0.035729688 0.84253466 0.537456 
-0.14607422 0.9892332 0.0089465035 
-0.52541614 0.8452252 -0.09763341 
-0.3522635 0.70310944 -0.61769533 
0.7823144 0.61822706 0.07602285 
0.2426913 0.7481115 0.6176003 
0.24372548 0.7029899 0.6681341 
-0.2334251 0.8047518 0.54579043 
0.08551566 0.35709435 0.93014556 
-0.466369 0.29840213 0.8327402 
-0.38067058 0.8041515 0.4565418 
-0.36033264 0.7246034 0.5874609 
-0.21498865 0.7475907 0.62840116 
-0.66708744 0.57909274 0.46866414 
-0.1179495 0.5234075 -0.84387946 
0.024588685 -0.3371618 -0.9411256 
0.5596677 0.02858221 -0.8282241 
0.984761 0.10932242 -0.13525686 
0.7078468 0.19429731 0.67911816 
0.43665 0.30534405 0.84622794 
0.58979446 0.50567657 0.62962985 
0.3425824 0.64615107 0.6820016 
0.37175205 0.55263 0.7459227 
0.8887218 -0.007717739 0.458382 
0.9342779 -0.17306507 -0.3117265 
0.092519514 0.9894052 -0.11188162 
-0.056602143 0.9783856 0.1988914 
-0.88221335 0.46421486 -0.078767166 
-0.85136133 0.020820629 -0.52416646 
-0.56315595 0.59943914 0.56879544 
0.37316734 0.6018262 0.7060817 
0.14408538 0.9615897 0.23363405 
-0.12597 0.90910697 0.3970594 
0.485733 0.8739061 -0.018757295 
0.752523 0.58919466 -0.29420874 
0.46718833 0.8420044 -0.26974756 
0.10257414 0.99460804 0.015275854 
-0.34667173 0.86364144 0.36598104 
0.50272125 0.4595439 0.73218226 
0.73672146 0.65048504 0.18469116 
0.52015024 0.38551837 0.76211506 
-0.026977459 0.4701529 0.8821726 
-0.6001878 0.39854673 0.693495 
0.16435124 0.8614542 0.48050556 
-0.5118006 0.48973233 0.70584875 
0.39205533 -0.2726233 0.87861776 
-0.52571267 -0.20132715 0.8264947 
-0.1485943 0.9605303 0.23516262 
-0.2615097 0.9651643 -0.008408524 
-0.29315397 0.492226 0.81961846 
-0.39178923 0.8776082 0.27623364 
-0.1812407 0.67175895 0.7182561 
0.58431876 0.07386797 0.80815536 
0.80403197 -0.09539597 0.5868835 
0.02806956 -0.0027331866 0.9996023 
-0.383531 0.5375987 0.7509271 
-0.58129716 0.26004907 0.7710176 
-0.40701935 -0.5142798 0.75488514 
-0.1376111 0.18860462 0.9723638 
0.35243642 0.35911524 0.86419034 
-0.28803968 0.42469928 0.8582911 
-0.2747624 -0.23935378 0.931244 
0.30468082 0.9521647 -0.023497196 
0.32043087 0.93012655 0.17941181 
0.23095085 0.6702241 0.7053095 
-0.2839236 0.71061313 0.6437518 
-0.56797963 0.8179018 -0.09184775 
-0.58134234 0.804216 -0.123603694 
-0.8299022 0.46666926 -0.30574876 
-0.1923077 0.89581287 0.4006708 
-0.21886621 0.6612596 0.717519 
0.66501313 0.31493375 0.6771812 
0.3328746 0.8769001 0.34675777 
0.14830211 0.568066 0.8095107 
0.12648422 -0.070798405 0.9894389 
-0.1678622 0.44449893 0.87991077 
0.021379557 0.4922311 0.87020206 
-0.2310407 0.9691762 -0.08554363 
-0.08822939 0.99602693 0.012084036 
0.31564018 0.5795619 0.75131845 
-0.24377587 0.5914401 0.76861686 
-0.05523016 0.9184583 0.39164263 
0.35940582 0.58815086 0.724504 
-0.21975183 0.7183136 0.6601021 
-0.08590819 0.26823643 0.959515 
0.2391643 -0.080434926 0.9676419 
-0.29007867 0.589305 0.7540384 
-0.3921852 -0.10690957 0.91365266 
0.029416608 -0.16808975 0.9853327 
0.20239353 0.57971644 0.78928185 
-0.34075034 0.480019 0.80837566 
0.00956083 -0.32121927 0.9469566 
-0.103711925 0.47680974 0.8728668 
-0.8788041 -0.08211795 0.47006404 
-0.7624919 0.6369313 0.11368694 
-0.4143635 0.8969796 -0.1540477 
0.13210526 0.36244655 0.92259467 
0.15260872 0.44449842 0.88268435 
0.26411244 0.5502676 0.7921176 
0.18303633 0.9656159 0.1846175 
-0.6806448 0.7155202 0.15733245 
-0.5993575 0.5058267 -0.62041116 
-0.965018 0.068174735 -0.25316542 
-0.1909699 0.866153 -0.46185437 
0.76155066 0.62331593 0.17753269 
-0.21561284 0.56704867 0.7949634 
-0.6591544 0.5528626 0.5097632 
-0.63171846 0.63956964 0.43804398 
-0.08373644 0.99643636 -0.0101461075 
-0.46116322 0.7918254 -0.40042585 
-0.154221 0.81106323 -0.56426275 
-0.43429336 0.6744523 -0.59707916 
0.19516146 0.7242756 -0.6613146 
0.7164385 0.41580805 -0.5601961 
-0.07639631 0.64589155 0.75959706 
0.21396595 0.36635584 0.90553963 
-0.17186293 0.40817404 0.8965808 
-0.0630075 0.16300125 0.9846119 
-0.36257684 0.9307125 0.048086144 
0.13238518 0.7150684 0.68640465 
-0.2612861 0.8528995 0.4519868 
-0.46773675 0.80836815 0.35744017 
-0.46070454 0.8863767 0.04569335 
-0.06656346 0.9474373 -0.3129409 
-0.009561453 0.91845685 -0.3954058 
0.8642086 0.49199462 -0.10528412 
0.85673606 0.45940194 0.23442101 
0.48364398 0.66215986 -0.5723922 
0.12647739 0.71401334 0.6886134 
0.19704147 0.9468606 0.25422397 
0.5046266 0.5085883 0.6976317 
-0.49470705 0.766818 0.40896845 
-0.50411206 0.25449923 0.8252885 
-0.5177284 0.44687742 0.7295601 
-0.84459835 0.51058996 0.16109459 
-0.7012236 0.7040224 -0.11241919 
-0.8780404 0.1803342 0.44331092 
-0.864073 0.2867482 0.41370705 
-0.5320115 0.84353983 -0.073514596 
-0.94848555 0.11150737 0.2965492 
-0.7432342 0.65598506 -0.13147843 
0.057788298 0.9096471 0.4113426 
0.3114378 0.8916295 -0.3286388 
0.5754733 0.7447574 -0.337886 
0.62178737 0.7614308 -0.18331344 
0.80026317 0.43926483 -0.40819773 
0.9616821 0.05575188 0.26843882 
0.9353029 -0.08885075 0.34251148 
0.108881354 0.68492204 0.7204351 
0.3171575 0.29509118 0.90129477 
0.90692097 -0.10225862 0.4087023 
0.7831574 0.4178835 0.46047583 
0.6182612 -0.010777615 0.7858988 
0.24045058 0.75872344 0.60541075 
0.7023985 -0.29964373 0.6456393 
-0.061630037 -0.24099371 0.96856797 
-0.623371 0.16167572 0.7650292 
-0.7526777 0.43955323 0.49017274 
-0.7057817 0.53748137 0.4615041 
-0.7294616 0.68319243 0.03367334 
-0.4418057 0.81970906 0.36453354 
-0.68995804 0.32421947 0.6471783 
-0.054277156 0.99843323 0.0136066675 
0.4797942 0.44122237 0.758367 
0.09111985 0.7224085 0.68543655 
-0.49885738 0.11764345 0.8586626 
-0.18364099 0.06023454 0.98114616 
-0.44711563 0.18511869 0.8751107 
0.42112356 0.46905607 0.7762998 
0.46310762 0.32700503 0.8237713 
0.5517476 -0.12846565 0.82405776 
0.6634277 0.11370222 0.73955095 
0.061386947 0.41283444 0.90873504 
-0.3146901 0.46992907 0.8247041 
0.1641477 0.09836615 0.9815191 
0.23784724 -0.40076292 0.88477 
0.17124422 -0.36881307 0.9135931 
0.54843503 -0.25883052 0.79512626 
-0.20071697 0.3647661 0.9092076 
-0.032990064 0.49569204 0.8678716 
-0.5593193 -0.43512285 0.7055708 
0.5789391 0.58508766 0.56789255 
0.18960178 -0.2567965 0.94768494 
-0.08024564 -0.54132557 0.83697516 
-0.075657085 -0.69080746 0.71906966 
-0.33602542 0.146515 0.93038726 
0.51063603 0.4027986 0.7596079 
0.33150297 0.87137395 0.36168107 
0.30448854 0.95234 0.018308517 
0.8190105 0.5737273 0.007681927 
0.80145967 0.5780704 0.15328744 
0.53720045 -0.010102181 0.8433942 
0.54451185 -0.259089 0.79773414 
0.6427311 0.37501264 0.66802865 
-0.47325888 0.27202243 0.8378722 
0.19025178 -0.042453013 0.9808171 
0.23926874 0.1149365 0.9641266 
0.1273099 0.5729397 0.8096495 
-0.25370228 0.5408079 0.8019738 
0.33733964 0.760238 0.5551937 
-0.43001726 0.1889623 0.8828241 
0.019818557 0.14305893 0.9895158 
0.25135708 0.8428172 0.4758979 
0.027673427 0.71755177 0.6959553 
0.81096625 0.584188 -0.03252922 
0.69440675 -0.10618026 0.71170574 
-0.028826738 0.70191425 0.71167797 
-0.46880323 0.6016154 0.6467476 
-0.8466973 0.12229092 -0.51783085 
-0.8052407 -0.01953636 0.59262615 
-0.39451572 0.674434 0.6240963 
-0.5016089 0.8145476 0.2913773 
-0.13885047 0.882632 0.44908947 
-0.52929795 0.3071201 0.7908988 
-0.5614758 0.10055312 0.8213611 
-0.12551522 0.95465827 -0.26995113 
0.38885203 0.87668675 0.28322172 
-0.852271 0.50785065 0.12538654 
-0.062080607 0.99710095 0.0439987 
-0.39973843 0.8983071 -0.18235597 
-0.40967607 0.89092845 0.19598992 
-0.3424646 0.6056982 0.71822536 
-0.29018155 0.7492127 0.5953781 
-0.23973772 0.7162335 0.6553896 
-0.0115494495 0.93029916 0.3666197 
-0.18082243 0.1314958 0.9746857 
0.41557103 -0.2174323 0.88318974 
-0.2890399 -0.1434708 0.9465052 
-0.8639396 -0.3328439 0.3779199 
-0.9954821 -0.03697963 0.08745249 
0.3577832 -0.06466417 0.9315631 
0.4708229 -0.031588428 0.8816621 
0.4247288 0.019392794 0.905113 
0.29988348 0.36128706 0.8829165 
0.23338138 -0.23097351 0.94455516 
0.35968474 0.39200878 0.84673256 
-0.2948884 -0.21686447 0.93059695 
-0.69907385 -0.35829905 0.6188034 
0.12954547 0.36706713 0.9211296 
0.22475155 0.5155472 0.8268603 
0.18389559 0.4919692 0.85096925 
0.039035205 0.8611574 0.5068375 
0.22036974 0.55684614 0.80084926 
-0.052854482 0.04237701 0.99770266 
0.20404314 0.6210819 0.7567191 
0.4466049 0.6925816 0.5664583 
0.0046948427 0.9304188 0.36646813 
-0.44588417 0.31456694 0.8379947 
-0.89296263 -0.4352526 0.114774086 
-0.45025945 0.480685 0.7524683 
0.2878999 0.71642643 0.6354895 
0.18094857 0.9255599 0.3325609 
0.5464534 0.21834883 0.80852485 
-0.32688907 0.90356034 0.2769879 
0.2502076 0.5321285 0.80884826 
-0.4648331 -0.18387468 0.8660949 
-0.09089827 0.38736287 0.91743535 
-0.5956765 0.783765 -0.17573261 
-0.47171175 0.8726635 0.12627956 
-0.70054895 0.6988505 -0.1443579 
0.35416496 0.8700384 -0.3429292 
-0.1098264 0.9448732 0.3084687 
0.2930077 0.48559293 0.8236176 
-0.22697979 0.8999894 0.3721551 
0.119230084 0.4675565 0.8758854 
0.3382292 0.07298081 0.9382296 
0.5141753 0.48611185 0.7066251 
-0.21863416 0.35693035 0.90818495 
-0.84412897 0.48565888 0.22711614 
-0.28099844 0.85399705 -0.43786862 
-0.51146644 0.12886 -0.84958655 
-0.045475323 -0.10732016 -0.99318403 
0.06763256 0.54222673 -0.8375059 
0.73381215 0.22120558 -0.64233005 
0.33215073 0.40211055 0.85321915 
0.5449989 0.61311686 0.5718951 
0.59641343 0.7874468 0.15562278 
0.8386823 0.5265828 0.13900624 
0.1675659 0.5213539 0.8367269 
-0.0077170627 0.14130214 0.9899365 
0.4626085 0.31215122 0.8297922 
-0.18318659 0.60779715 0.7726742 
-0.7454023 0.6551833 0.122924276 
-0.5284354 0.5304521 0.66285497 
-0.69914 0.4467142 0.55825603 
0.3927457 0.23716769 0.8885395 
0.49188882 0.32549664 0.8075256 
0.48756287 0.6911359 0.53349197 
0.5772835 0.29395625 0.7617963 
0.40813774 0.648987 0.64205885 
0.4194168 0.8071018 0.4155434 
0.001713476 0.6546269 0.7559503 
0.002170092 0.3406702 0.9401804 
-0.3507055 0.67736614 0.64666903 
0.2903087 0.37280884 0.8813254 
0.44025114 0.46517172 0.76798075 
-0.09644838 0.5543134 0.8267009 
-0.36241215 0.2813709 0.8885314 
-0.62386936 0.20597027 0.75389874 
-0.6510164 0.29740322 0.69837594 
0.3597915 0.5255859 0.77091485 
-0.06741335 -0.4360955 0.8973719 
-0.10648677 0.10786076 0.98844665 
-0.1374972 0.20030868 0.9700366 
-0.2179222 0.42600223 0.8780843 
-0.4020014 0.78737664 0.46736804 
-0.56634974 0.67991585 0.4657923 
-0.5206687 0.7270412 0.44756588 
-0.41543707 0.70582765 0.5737764 
-0.052721985 0.115733735 0.99188006 
-0.42789295 -0.06832758 0.9012431 
-0.33877796 0.07290854 0.9380372 
-0.37778115 -0.65636414 0.6530448 
-0.90252054 0.26536915 0.33916968 
-0.3000194 0.34151003 0.89070725 
0.35135138 -0.18601842 0.91757804 
-0.119200446 0.25311086 0.9600658 
-0.10158851 -0.008053942 0.9947939 
0.17335464 0.24448037 0.9540323 
0.45367894 -0.54325616 0.7064334 
-0.55556464 0.09574802 0.82594204 
-0.018429125 0.89813054 0.4393426 
-0.24610464 0.9417669 0.2291457 
-0.59234416 0.71542794 -0.37052846 
-0.36223975 0.92720604 0.09524366 
-0.30626413 0.9239151 0.22931048 
-0.3537765 0.5716891 0.74027956 
-0.42864683 0.57178867 0.6995139 
-0.51271 -0.021827647 0.8582845 
0.366943 0.5310321 0.7637786 
0.65692306 -0.0091490885 0.7539021 
0.70667386 0.6698173 0.22794056 
0.5306406 0.4025048 0.74592924 
-0.19811167 0.057817776 0.9784728 
-0.31058148 0.67819333 0.66602784 
-0.42222 0.32192728 0.8474038 
-0.4860877 0.6579038 0.575223 
-0.04705644 0.69540966 0.71707124 
-0.64721555 0.70724624 0.28445554 
-0.24496588 0.18639687 0.9514453 
-0.37134227 0.05665116 0.9267663 
-0.3043643 0.02590232 0.9522036 
0.07526359 -0.37948442 0.92213184 
-0.08406295 0.18216716 0.97966766 
-0.33042026 0.041113634 0.9429381 
-0.43309647 -0.2997277 0.8500535 
-0.44419026 0.08653481 0.8917437 
-0.26128322 -0.5230277 0.81127876 
-0.05404974 -0.07355716 0.9958253 
-0.7519137 0.5818917 0.30988348 
-0.99683267 0.07418355 -0.028660394 
-0.35506773 0.10039165 0.92943454 
0.048545044 -0.49646676 0.86669725 
-0.020560924 -0.67222005 0.7400659 
0.8112192 0.43649995 0.38909015 
-0.15949313 0.9089205 0.38526022 
0.51879793 0.8229385 0.23156202 
-0.5258638 0.6753521 -0.5170752 
-0.6259424 0.7065245 -0.33018076 
-0.4421044 0.88384455 -0.15284829 
0.21407396 0.91273206 0.34798372 
0.37855756 0.87399846 0.30466533 
-0.5863161 0.6141076 0.5283042 
-0.4166653 0.5380789 0.73270816 
-0.054889087 0.7797402 0.62369263 
-0.29026034 0.9366061 0.19626024 
-0.20887665 0.97793216 0.004390992 
0.04043683 0.7888491 -0.6132553 
0.45727047 0.45736784 -0.7627047 
-0.04897376 0.9459686 0.32053864 
-0.46593115 0.7954787 0.38745537 
-0.27674103 0.24131341 0.9301518 
0.61657655 -0.36396855 0.69811195 
-0.06991889 -0.4678703 0.88102716 
0.14570916 0.7287803 0.6690652 
0.3651426 0.9302548 0.03601297 
0.03541933 0.9932839 0.11014743 
0.058475375 0.80901545 0.58487153 
-0.5760708 0.7696363 0.27532277 
-0.56414694 0.6291348 -0.5347221 
0.20651641 0.9686431 -0.13813613 
0.41078115 0.7842024 -0.465065 
0.67709666 0.7354671 0.025065972 
0.9538105 0.27927798 -0.11067667 
0.77820754 0.40917715 0.47641072 
0.8026832 0.5963284 0.009613198 
0.71089274 0.4472159 0.5427978 
0.12815695 0.38058653 0.91582185 
0.09802015 0.32670677 0.9400292 
-0.4019744 -0.10853415 0.90919584 
-0.62862885 -0.4994561 0.5961287 
-0.9318664 0.34600458 -0.10911418 
-0.878176 0.39335796 0.27217025 
-0.67361736 0.70048535 0.23571189 
-0.67913705 0.72777957 0.095445335 
-0.8778394 0.38136458 -0.28975725 
-0.8179459 0.5717218 -0.06402161 
0.6627556 0.47956246 0.57513034 
0.12588295 0.9270285 0.3532302 
-0.3257133 0.7206579 0.61201566 
0.6100518 0.7480797 0.2611774 
0.43471265 0.8985693 -0.05998558 
0.54739815 -0.22981572 0.8046988 
0.8145773 -0.25081915 0.5230235 
0.5177762 0.07612922 0.85212225 
0.46498808 0.15902641 0.8709172 
0.77282196 -0.13241297 0.6206554 
0.58252305 0.10078343 0.80654174 
0.37613556 0.20342578 0.9039581 
0.10233627 -0.04337702 0.9938037 
0.8375321 -0.24595357 0.4879005 
0.19217657 -0.0762181 0.9783961 
-0.06119754 -0.048852306 0.99692947 
-0.8149042 0.56811315 0.114798695 
-0.27257696 0.9616869 0.029329957 
-0.11080806 0.97874856 -0.1725484 
0.5319671 0.8236937 0.19631512 
-0.17803884 0.6701094 0.720594 
-0.056449052 0.8090677 0.5849982 
0.09176267 0.6259701 0.77442956 
0.6757289 0.22869839 0.70077634 
0.16143332 0.13053317 0.97821283 
0.43678734 -0.3923723 0.80948186 
0.21026193 -0.14101031 0.9674224 
0.71854967 -0.029931968 0.6948313 
0.35306135 0.5207007 0.77731496 
0.814987 -0.3705332 0.44553497 
0.9894703 -0.02640243 0.14230773 
0.57845366 0.1626927 0.79932636 
0.22078992 0.26651943 0.93820006 
-0.1041844 0.7395839 0.66495216 
0.11336337 0.024942858 0.99324054 
0.7840626 -0.17331474 0.59599316 
0.5244925 -0.5572543 0.64372 
0.21299283 0.22330704 0.9511929 
0.33848122 0.021610802 0.940725 
0.23272033 0.29979962 0.9251819 
-0.033888467 0.6050589 0.7954592 
-0.30461746 0.17824419 0.9356481 
-0.12502512 -0.16759308 0.9778964 
-0.6161173 -0.29012927 0.7322736 
-0.5540249 0.3220745 0.7676747 
0.020335866 0.5407875 0.8409134 
-0.09357151 0.38557956 0.9179176 
-0.04647688 0.9630218 0.26538464 
0.26492986 0.89847785 0.35007125 
0.6624749 0.7008364 0.2644907 
0.5975512 -0.2725595 0.75408494 
0.14580436 0.1701241 0.97457623 
0.22183317 0.41195312 0.88379 
0.26638877 0.42242455 0.8663686 
0.41945645 0.39055791 0.8194638 
0.5820993 0.7504043 -0.31313524 
0.59184194 0.79661113 0.12302015 
0.925011 -0.054498516 0.37601152 
-0.063791774 0.025374757 0.9976406 
-0.38224992 0.08024269 0.9205684 
0.14442839 0.47990027 0.8653532 
0.060171433 0.9744237 0.21651278 
0.39910746 0.8940383 -0.20349172 
0.87065214 0.46463117 0.16150169 
0.6563459 0.72353107 0.21380584 
0.46549273 0.5125942 0.7215011 
-0.37695944 0.9007985 0.21555422 
-0.62849426 0.50584334 0.5908616 
-0.31106234 0.27422035 0.9099689 
-0.5030946 0.3608586 0.7852878 
-0.6260358 0.74092144 0.24313505 
-0.5237249 0.5459986 0.6539096 
-0.4574461 0.7381022 0.49593168 
-0.2790924 0.90803105 0.31238925 
-0.12571326 0.9543611 -0.27090803 
0.01714679 0.8628261 0.5052101 
-0.47727987 0.87613326 0.06778185 
0.3623193 0.8736764 0.32467565 
0.54814065 0.8311612 0.09334334 
0.06705127 0.83017063 0.5534628 
-0.21151066 -0.20434546 0.95577526 
-0.20814325 0.18465257 0.96051025 
-0.10610742 0.46884578 0.8768837 
-0.48149702 0.8319996 0.2755672 
0.074431695 0.6082313 0.7902624 
-0.44487354 0.14183855 0.8842904 
-0.36125714 0.15117663 0.92012984 
-0.263939 -0.25487503 0.93025535 
-0.7297558 -0.23038605 0.64372253 
0.5927141 -0.15104789 0.7911224 
0.39392492 0.152339 0.90643036 
0.5601783 -0.36921725 0.7415382 
0.14151314 -0.11028524 0.98377395 
-0.41659737 -0.62843126 0.6569025 
-0.25855356 -0.46621782 0.84604436 
-0.020920075 -0.351122 0.936096 
-0.28401002 -0.39838347 0.87214047 
0.6151083 0.025063528 0.7880443 
0.39438623 0.58619255 0.707699 
0.29496562 0.23762374 0.92548925 
-0.062127948 0.80326796 0.5923688 
-0.19233179 0.93775517 0.289178 
0.22493231 0.10812978 0.968356 
-0.058522422 0.16718487 0.9841872 
0.65511703 -0.0887977 0.75029105 
-0.22638263 0.31998268 0.91997933 
-0.41730043 0.44001392 0.7951403 
-0.15945782 -0.36297062 0.91805536 
0.16770844 0.53709257 0.8266834 
-0.2884632 0.2043246 0.93543595 
-0.4287044 0.56449556 0.70537746 
0.5775973 0.15844072 0.80079836 
0.17792696 0.44597298 0.87718314 
-0.15225515 0.10296153 0.9829635 
-0.16965601 -0.009814874 0.9854545 
-0.49446926 0.30852178 0.81259733 
-0.3731652 0.8197859 -0.434395 
0.5109808 0.85507584 -0.08800074 
0.58275175 0.7922889 -0.18077293 
0.5575399 0.78954303 0.2564586 
-0.1964794 0.93260396 0.30273074 
-0.3132892 0.79995275 0.5117866 
-0.19144852 0.96463174 0.18119927 
0.23638482 0.10327796 0.96615523 
0.56621665 -0.2027398 0.79893386 
0.33715066 0.31011072 0.88890994 
-0.29616517 0.49767652 0.8152327 
-0.7758735 0.60262847 0.1867066 
-0.32246745 0.63858736 0.6987282 
-0.475004 0.7730369 -0.42045832 
0.08560159 0.353558 -0.9314876 
0.45229542 0.8918202 -0.009265815 
0.93422616 0.35510755 0.03346903 
0.34078556 0.07863065 0.93684715 
0.38957545 0.36064702 0.847446 
0.17902087 0.101983726 0.9785453 
-0.25939023 0.8996304 0.35125765 
-0.27052075 0.31541556 0.9095778 
-0.6373053 0.51629084 0.572089 
-0.5524534 0.7439643 0.37591535 
-0.31507492 0.833189 0.45444912 
-0.45399374 0.70098674 0.55000675 
-0.106492706 0.6158133 0.7806622 
-0.46751612 0.62816596 0.62196165 
0.1012306 0.47571605 0.87375444 
-0.0892402 0.8994378 0.42784092 
0.15942661 0.74047214 0.65290445 
0.8523905 0.33194304 0.40403485 
0.6786572 0.6436823 0.3536914 
-0.2821514 0.488926 0.8254345 
-0.63684523 0.6978375 0.32779747 
0.072152086 0.7556707 0.6509654 
-0.48502833 0.43280953 0.7598838 
0.05702017 -0.04344926 0.9974272 
0.46583983 0.43562272 0.77021176 
0.38483468 0.01622747 0.922843 
-0.03607558 0.46656913 0.88374877 
-0.13413917 -0.039204568 0.99018675 
-0.39294767 0.24339376 0.88676476 
-0.20214348 0.39254913 0.89724207 
-0.20325889 -0.14365324 0.9685296 
-0.106708884 0.15235229 0.9825487 
-0.31951654 0.41219747 0.8532306 
-0.2704561 0.38070786 0.88425964 
0.2513151 0.27187318 0.92893803 
-0.47158322 0.7964748 0.3784671 
-0.6458398 0.65027195 0.4000467 
0.14595428 0.9291993 0.33953813 
-0.16367768 0.53481734 0.8289632 
-0.72409534 0.4646933 0.50965303 
-0.5924738 0.14345874 0.7927134 
0.60696167 0.13778576 0.7826957 
-0.058842134 0.015033937 0.99815416 
0.14842238 0.4809671 0.8640843 
0.13529272 -0.08394042 0.98724365 
-0.10569997 -0.34464318 0.932764 
-0.22006842 0.37679052 0.8997771 
0.33532834 0.14726363 0.9305205 
0.047026783 -0.06655437 0.996674 
0.7211256 -0.08015434 0.688152 
0.29146466 0.5204057 0.80263716 
0.22128218 0.8338294 0.5057299 
-0.4387587 0.73704916 0.514052 
-0.48720595 0.51923054 0.7021611 
-0.44259807 0.40357718 0.80077 
-0.14506346 0.5749439 0.8052305 
-0.16433898 0.040189024 0.985585 
0.009216537 0.8719293 0.4895451 
-0.041622378 0.34558252 0.93746483 
0.8175584 0.29998946 0.49153298 
0.8865125 0.029640138 0.46175444 
0.48669595 0.58238494 0.65111816 
0.5586359 -0.28807664 0.7777775 
0.016797686 0.19505331 0.9806489 
-0.23209602 0.15990289 0.9594595 
-0.13136443 0.4072663 0.9038129 
0.10611447 0.3018042 0.94744605 
-0.021848869 0.51477313 0.857048 
-0.36821195 -0.17402606 0.9133099 
-0.37377033 0.122934446 0.91933835 
0.38056022 0.08529092 0.9208146 
0.2327289 -0.30092993 0.92481273 
-0.31220117 -0.3060058 0.8993836 
-0.43705857 -0.40238163 0.80440605 
-0.94527155 -0.18413898 0.2693598 
-0.5637681 -0.37664163 0.73505557 
-0.24457164 -0.8042807 0.5415877 
-0.5976922 -0.3407117 0.72572696 
-0.9351179 0.33686495 -0.1098935 
-0.25224432 0.44624883 0.8586238 
-0.39006662 -0.21185182 0.8960842 
-0.740332 0.09508973 0.66548216 
-0.2276132 0.17778601 0.9573842 
0.39981714 0.5497669 0.73341846 
0.33297187 0.8949648 0.29693088 
0.4832091 0.8497837 0.21065779 
0.1433998 0.6895975 0.70985335 
-0.2165645 0.97432446 0.061577328 
-0.2180501 0.94017035 0.2617899 
-0.10833301 0.5039527 0.8569106 
0.30386552 0.85261595 0.42510217 
0.13397236 0.7929103 0.59442806 
-0.06523643 0.764455 0.641368 
0.46653637 0.8353115 -0.2908585 
-0.30868873 0.93923205 0.15018198 
-0.3591707 0.84717405 0.3915262 
0.14916587 0.91308814 -0.37949926 
0.47411147 0.7585448 -0.4470215 
0.23085113 0.90528935 0.35659373 
0.12438254 0.07562561 0.9893482 
0.5950822 0.20031485 0.7783002 
0.41881436 0.65147793 0.6325908 
0.37903565 0.13030724 0.9161616 
0.12653705 0.015831582 0.99183553 
0.18361999 0.6341295 0.7511082 
-0.5672607 0.5300098 0.6303213 
-0.0870515 0.8716173 0.48239535 
-0.21150126 0.6555902 0.7248923 
-0.0418495 0.994451 -0.096519426 
0.30768076 0.8176257 0.48664233 
0.3420873 0.9253818 0.16323306 
0.5258409 0.7404229 0.418647 
0.19016446 0.76921874 0.610033 
0.0431493 0.2688013 0.9622287 
0.24567465 0.92451483 0.29140404 
0.74034035 0.49232367 0.45772663 
0.21853228 0.7590161 0.6133012 
0.17207977 0.38225272 0.90789396 
-0.38352743 0.13860352 0.9130694 
-0.38112345 0.12746039 0.9156959 
-0.8925501 0.3790023 0.2443593 
-0.8628988 0.42172706 0.27848145 
-0.56374353 0.8179182 0.11490523 
-0.57148355 0.79429626 0.20615534 
-0.7376408 0.65876234 0.14804858 
-0.39408708 0.8842644 0.25054333 
-0.025899975 0.9014471 0.4321137 
-0.36068267 0.37600437 0.853539 
0.24533334 0.85257745 0.4614363 
0.18769361 0.9646601 -0.1849379 
0.16418578 0.9319098 0.3233995 
0.30527392 -0.44813368 0.84022856 
0.25668862 -0.071034156 0.96388024 
0.15352555 0.23323226 0.9602253 
0.5366691 0.36920372 0.7587325 
0.7854961 -0.15740664 0.598514 
0.19966786 0.2560894 0.9458071 
0.2964708 -0.03763261 0.9543003 
0.008110019 -0.43480965 0.90048593 
0.10069106 -0.03777551 0.9942004 
0.3216824 -0.678961 0.6599489 
-0.0058899024 -0.09016254 0.9959097 
-0.63208103 0.20133491 0.74828994 
-0.6217514 0.77703446 0.09819762 
-0.38712808 0.83497655 -0.3910831 
0.33711848 0.6565774 -0.67472756 
0.2660524 0.96346337 0.030896226 
0.68674815 0.72574675 0.04084917 
0.31806004 0.7408223 0.59162503 
0.2786333 0.3162956 0.906819 
0.2090253 0.015317021 0.97779036 
0.41798955 -0.84576297 0.33161685 
0.88302654 -0.17872356 0.43396088 
0.955749 0.2574588 0.14233334 
0.6795011 0.58275545 0.445729 
0.52026725 -0.17046176 0.83681834 
0.66677666 -0.32817775 0.66911006 
-0.026144154 0.61997676 0.7841845 
-0.33061087 0.118090786 0.9363499 
-0.38891736 -0.5512983 0.73811483 
0.058201138 -0.13334684 0.9893591 
-0.3834208 -0.31977174 0.8664495 
0.66076374 -0.4383118 0.6093227 
0.29771742 -0.13158426 0.94554216 
-0.27113628 0.115132704 0.9556305 
0.04739546 0.5832329 0.81092113 
0.5881326 0.45365217 0.669552 
0.20042051 0.3278086 0.9232406 
-0.6247578 -0.42017022 0.6581298 
-0.5279634 -0.4534534 0.71807706 
-0.21622366 0.4633609 0.85938597 
0.26796272 0.86733174 0.41944197 
-0.075362936 -0.15487114 0.9850561 
-0.29431742 0.55389047 0.7788342 
-0.5161313 -0.09679811 0.8510221 
-0.044804987 -0.18322273 0.9820499 
0.5136958 -0.2214025 0.82891357 
0.58964866 -0.24210772 0.7705183 
0.82766855 0.18943034 0.5282812 
0.77496845 0.5401236 0.32816234 
0.7467182 -0.057100534 0.6626851 
0.06928375 0.95182985 0.2986966 
0.05013926 0.9961144 0.07240454 
-0.31593773 0.27869475 0.90692484 
-0.31824774 0.068881646 0.9455018 
-0.42305902 0.416005 0.80496013 
-0.2698075 0.6155182 0.74050075 
0.45861748 0.51072365 0.727208 
0.15166673 0.7205728 0.67658854 
0.18516544 0.39429134 0.90013784 
0.42501542 0.814005 0.39592645 
-0.1137835 0.9853461 0.1270694 
-0.013621637 0.92651033 0.37602285 
0.12549375 0.82656014 0.5486799 
-0.42798808 0.29504177 0.85426974 
-0.2540008 0.7478469 0.6133585 
0.1486136 0.12321244 0.9811894 
-0.6103095 0.14724225 0.7783587 
0.22948964 0.64149904 0.7319929 
0.16799414 0.7152086 0.6784207 
-0.02619713 0.34090012 0.93973446 
-0.035829403 0.4640757 0.8850706 
-0.4640801 0.5485437 0.69550663 
0.27343264 0.60517377 0.7476626 
0.27872574 0.95284075 0.12002729 
0.030723762 0.35909712 0.93279445 
0.3186355 0.20586988 0.9252508 
0.4434503 0.6505804 0.61652017 
0.3729129 0.6195217 0.69074523 
0.083444856 0.49438274 0.8652298 
0.48472738 0.13128224 0.86475676 
0.068856716 -0.6390841 0.7660485 
0.08124939 0.2083606 0.9746714 
-0.23289734 -0.1772029 0.95622075 
-0.15683185 0.115255326 0.9808772 
0.33810827 0.855542 0.39208537 
0.025345838 0.8499652 0.5262287 
0.34731105 0.09373091 0.93305385 
0.71220547 0.2483081 0.65658706 
0.63806105 -0.20256935 0.7428619 
-0.34374428 -0.25417772 0.90400976 
0.18645109 -0.5933142 0.7830801 
0.36131072 -0.33072096 0.8718247 
0.34776118 0.077209316 0.9343987 
0.3646642 0.35782483 0.8596403 
0.0923584 0.26414853 0.9600498 
0.6050794 0.66476524 0.4381395 
0.0018316238 0.7715015 0.63622504 
-0.22188902 0.9307337 0.29068914 
-0.4986142 0.752373 0.43048695 
0.18189868 0.46439558 0.8667466 
0.3798347 0.22130844 0.8981917 
-0.6010792 0.42079726 0.67943615 
-0.7367955 0.048570007 0.674369 
-0.32877773 0.62479824 0.70818955 
-0.23562296 0.22187534 0.9461782 
0.2995384 -0.1515392 0.94197273 
0.40856898 -0.17077765 0.89660835 
0.035578914 0.41972277 0.9069549 
-0.68458515 -0.0050933803 0.7289151 
0.3980808 0.68112004 0.61449754 
0.080997646 0.48315287 0.8717814 
0.51791126 0.7483961 0.4143323 
0.6128621 0.6393458 0.46436727 
0.96406657 0.21355063 0.1580253 
0.19973543 0.27169117 0.9414296 
0.04224972 0.9356307 0.3504431 
-0.5711602 0.6411874 0.5124985 
-0.18511154 -0.115133196 0.9759498 
-0.51011074 0.5417934 0.6680172 
0.37922892 0.3566181 0.8538202 
0.57751286 0.79175633 0.19899958 
-0.64689475 0.6374967 0.41847968 
-0.37277073 0.81555045 0.44262788 
-0.18671997 0.6975858 0.691744 
-0.40998048 0.82672334 0.38528517 
-0.3948676 0.35926038 0.84558356 
0.7492658 0.6060519 0.2670243 
0.9921365 0.008540872 -0.12486941 
0.49310595 0.4637975 0.73602885 
0.10632019 0.2678008 0.95759016 
0.4230831 0.5861856 0.6909321 
0.36427307 0.8054241 0.4675437 
-0.18451114 -0.13171908 0.9739639 
0.022593118 0.5332441 0.8456598 
0.17863174 0.43138984 0.8843039 
-0.20280814 0.50661427 0.8379803 
-0.38186553 0.52547634 0.76029825 
-0.32256728 0.2864275 0.90216947 
0.29860762 0.46172097 0.8352528 
0.1523437 0.36931393 0.9167326 
0.45989558 0.47684956 0.7490732 
0.2430047 0.36708975 0.897883 
0.15585564 0.88747126 0.4337095 
0.11934348 0.16369964 0.97926486 
-0.24566586 0.08828321 0.9653261 
-0.54372764 0.39272988 0.74170315 
0.26600307 0.9586919 0.10075901 
-0.6132392 0.5742064 0.5424249 
-0.9787063 0.10083532 -0.1787914 
0.21346594 0.27880636 0.93632233 
0.091959015 0.635205 0.7668496 
-0.044884674 0.33858234 0.9398657 
0.21534657 0.119874984 0.9691522 
0.08039668 -0.02040594 0.99655414 
0.30964068 -0.29907104 0.9025959 
0.6121928 -0.68237114 0.39948666 
0.34210166 -0.29325843 0.8927296 
-0.6130733 -0.36342576 0.7014719 
-0.81112295 0.47815233 0.33682337 
-0.4645972 0.85953784 -0.21294147 
-0.51809967 0.715746 0.46827397 
-0.29140484 0.87679577 0.3825082 
-0.38948086 0.9210345 9.019334e-06 
-0.3504337 0.9050339 0.24106015 
-0.5765724 0.35228044 0.7371993 
-0.43342885 -0.21187629 0.875927 
-0.05012822 -0.01862941 0.99856913 
0.40133607 -0.13872766 0.90536404 
0.7855146 0.27933142 0.55221444 
0.0902707 -0.28997278 0.9527681 
-0.21030998 0.13112834 0.96880084 
0.4132303 -0.42025623 0.80785245 
0.14336188 -0.23834634 0.96054065 
-0.19926625 -0.3504144 0.9151518 
0.47156018 0.14549273 0.86974883 
-0.1548934 -0.16719362 0.97368085 
-0.39607364 0.66179323 0.6365182 
-0.081119336 0.70548385 0.70406836 
0.44760782 0.6480354 0.61619586 
-0.6083638 0.6455423 0.46170196 
-0.42368832 0.107169956 0.8994459 
0.33978736 -0.35618252 0.87044734 
0.75716186 0.3260063 0.56606174 
0.8914667 0.40641564 0.20028386 
0.75566924 0.29951403 0.5824563 
0.50377506 0.5555954 0.6614564 
0.77536684 0.41387782 0.4769818 
0.46187797 0.5064925 0.7281031 
0.23263314 0.51438653 0.8254019 
-0.4222896 -0.0135860415 0.9063592 
0.4229608 0.60304207 0.6763465 
0.22105719 0.4557174 0.8622385 