# OOMMF: rectangular mesh v1.0
# Segment count: 1
# Begin: Segment
# Begin: Header
# Desc: Time (s) :  1.21e-07
# Title: m
# meshtype: rectangular
# meshunit: m
# xbase: 2e-09
# ybase: 2e-09
# zbase: 5e-10
# xstepsize: 4e-09
# ystepsize: 4e-09
# zstepsize: 1e-09
# xmin: 0
# ymin: 0
# zmin: 0
# xmax: 1.024e-06
# ymax: 1.024e-06
# zmax: 1e-09
# xnodes: 256
# ynodes: 256
# znodes: 1
# ValueRangeMinMag: 1e-08
# ValueRangeMaxMag: 1
# valueunit: 
# valuemultiplier: 1
# End: Header
# Begin: Data Text
0.7289558 0.23114558 0.6443565 
0.64320046 0.503951 0.5764777 
0.1910725 0.91820663 0.34696978 
-0.28241685 0.80033356 -0.5288733 
0.014924626 0.5909793 0.80654866 
0.24385978 0.96853137 0.049793515 
0.48126918 0.6189884 0.6206717 
0.40958938 0.74598134 0.5251175 
0.467656 0.8166931 0.33809793 
0.11342202 0.6020334 0.79037416 
0.31129876 0.7263928 0.61273694 
0.5525776 -0.09063113 0.8285193 
-0.023331234 -0.20930341 0.9775724 
-0.27661666 -0.22876878 0.9333531 
-0.57933307 0.069735914 0.8121023 
-0.778142 0.4037337 0.4811385 
-0.72873783 0.60793895 0.3152006 
-0.54652095 0.009300527 0.8373939 
-0.18697569 -0.004247443 0.9823554 
0.5786629 -0.004433305 0.8155548 
0.24598365 -0.44145885 0.8629056 
-0.49657637 -0.22637896 0.8379526 
0.49120227 -0.124454655 0.8621087 
0.62989175 0.6344414 0.44801864 
0.101475656 0.7321195 0.6735754 
0.17415482 0.8464659 0.5031559 
-0.5127058 0.84304863 -0.16248658 
0.26166683 0.5623779 -0.7843861 
0.68217903 0.6458841 -0.3427324 
0.9374392 0.18688978 0.29373473 
0.5602827 0.5001087 0.66028374 
-0.5882382 0.79843676 -0.12835385 
-0.4095211 0.9069864 0.098327056 
-0.57777095 0.8085968 -0.11114044 
-0.6570331 0.6173336 -0.432674 
-0.4222713 0.837847 -0.34597576 
-0.6516583 0.6019013 -0.46158034 
-0.4618678 0.7646018 -0.44951338 
-0.1853275 0.9736887 0.13260487 
0.06771391 0.98351145 -0.16769034 
0.15419896 0.97303116 -0.17156105 
0.027745496 0.9501878 -0.31044084 
0.7723193 0.54677397 0.3233591 
0.5397356 0.49980164 0.6774096 
0.4084653 -0.07682003 0.90953547 
0.40134138 0.39301783 0.82732224 
0.45913395 0.6490421 0.6065809 
0.56117237 -0.7251759 0.39900565 
0.4221332 -0.2920896 0.85818845 
0.068428956 -0.20381737 0.9766146 
-0.08926628 -0.41068706 0.9073961 
0.7375204 0.65064836 0.18088816 
0.41587165 0.6126971 0.6720514 
0.16799563 0.9321995 0.32059598 
0.51286256 0.756379 -0.40603322 
0.28233564 -0.22164714 0.93335915 
0.07681743 -0.46044773 0.88435686 
-0.39587688 -0.2739345 0.8764939 
0.07878861 -0.79748005 0.59817886 
-0.27645668 0.015943032 0.9608942 
0.16648135 0.33980274 0.9256447 
0.019176317 0.6655884 0.7460727 
-0.5345184 0.21571209 0.81716496 
-0.2901708 0.13770726 0.9470151 
-0.3449206 -0.5926052 0.72790724 
-0.21978837 0.081206635 0.9721618 
-0.26468155 0.025247924 0.9640053 
0.07423468 0.41910818 0.9048965 
-0.32184243 0.68688977 0.6516134 
0.044804353 0.44354466 0.8951317 
-0.11093596 0.96044964 0.25540105 
0.30988988 0.8127523 0.4933579 
0.1876 0.77176815 0.60760206 
0.025303194 0.99224466 0.12169829 
0.35108975 0.46809572 -0.81093925 
-0.21507603 0.9294327 -0.2998287 
0.2259042 0.9741025 0.009581579 
0.29395258 0.95454806 -0.049295172 
-0.26871943 0.6723215 0.68976355 
-0.5983557 0.40144062 0.6934089 
0.19186671 0.35817656 0.9137268 
-0.23304883 0.27800104 0.9318818 
0.10464777 0.12917945 0.9860839 
-0.16405492 0.70858413 0.6862905 
-0.47811472 0.8591096 -0.18258417 
-0.570303 0.23040788 -0.78845847 
-0.033002406 0.7519528 -0.65839034 
0.1076509 0.7992813 -0.5912367 
0.36825854 0.6735361 -0.64088595 
0.81286675 0.53337127 0.2340146 
0.36375067 0.74867207 0.55423427 
-0.58772886 0.1636585 0.7923325 
0.79735297 0.33960262 0.49889728 
-0.19310738 0.3456165 0.91829133 
-0.07548525 0.78259104 0.6179428 
0.82596684 0.40816924 -0.3888147 
0.8822717 0.18315133 0.43365005 
0.4399258 0.80007976 -0.40784526 
0.2864772 0.8852539 0.3664103 
-0.039383292 0.9588504 0.28116718 
0.22409363 0.7880043 0.5734383 
-0.1549207 0.58293444 0.79761326 
0.09012176 -0.32481492 0.9414741 
0.6443987 0.06681456 0.76176524 
0.31080663 0.11373108 0.94364434 
0.2921493 0.7268929 0.62151074 
0.011244136 0.7902163 0.61272484 
0.4086414 0.85189337 0.32755157 
-0.50131553 -0.24790485 0.82899094 
-0.47085974 -0.2508585 0.8457904 
-0.17927794 -0.031538837 0.9832929 
0.3371167 -0.6797144 0.65141445 
-0.17265683 0.15207343 0.97317183 
-0.21955673 0.43559277 0.8729569 
-0.6724347 0.738592 0.048098307 
0.5277984 0.84785694 0.050671246 
-0.4665162 0.54101026 0.69976467 
-0.078618005 -0.17543234 0.9813474 
-0.12197559 0.43707156 0.8911175 
-0.42122427 0.69404393 0.5838434 
-0.5162839 0.25449693 0.81773007 
-0.5095301 0.6356126 -0.579979 
-0.47301748 0.5701306 -0.67171836 
-0.020265818 0.62272096 0.78218156 
0.21210769 0.8478622 0.4859425 
0.2949578 0.68927664 0.66173846 
-0.0152481245 0.57797086 0.8159149 
0.43166995 0.25278854 0.86588633 
-0.50328976 -0.034295492 0.8634369 
-0.17161019 -0.2321609 0.9574191 
-0.67102915 0.2409751 0.7011782 
-0.36077377 -0.103734724 0.9268665 
-0.71715945 0.645934 -0.26163268 
0.13524823 0.9064445 0.400083 
0.4158175 0.84086734 0.34646493 
0.31118837 0.76824 0.55943644 
-0.1006279 0.8010722 0.5900487 
0.39683002 0.9089071 0.12811714 
0.75111175 0.6271529 0.20618083 
0.7355071 0.025330517 0.67704344 
-0.29663327 -0.49669373 0.8156617 
0.13967207 -0.23525658 0.96184516 
-0.5332212 -0.25085002 0.80792916 
-0.21182756 0.3277802 0.9207005 
-0.5313854 0.8470334 0.012810934 
-0.32771248 0.89842147 -0.29230708 
-0.74821067 0.6464967 -0.1490735 
0.0925906 0.96943283 0.2272157 
-0.3393895 0.6713186 0.6588977 
-0.34811887 0.5250326 0.77663 
0.36768004 0.7558903 0.54170215 
0.6773312 0.63745224 0.36725613 
0.23372412 0.7055102 0.6690504 
0.40897793 0.9066862 -0.10323492 
0.07733257 0.2668299 0.9606361 
0.71711415 0.32281148 0.6176894 
-0.012641182 0.7568353 0.6534835 
0.39995185 0.3755575 0.8360593 
-0.20266737 0.40013987 0.893764 
-0.2684362 0.65759134 0.7039287 
0.55842096 0.6889721 0.4620427 
-0.19574763 0.433411 0.8796806 
-0.7415619 0.31874663 0.5903275 
-0.63720787 0.5577888 0.531825 
0.07493209 0.73865896 0.6699016 
-0.3407644 0.26742396 0.9013125 
0.4171001 0.82628435 0.3785257 
0.48514894 0.20716417 0.84953725 
0.15269086 0.6739099 0.7228631 
0.037083838 0.6904437 0.722435 
0.1117496 0.120350346 0.98642176 
-0.7074137 0.10579218 0.6988376 
-0.65944964 0.39138928 0.64182603 
-0.87661046 0.4735838 -0.085279174 
-0.09168853 0.9954659 -0.025316041 
-0.32905766 0.94428664 -0.0066142203 
-0.2948212 0.93381447 -0.20265995 
0.07981441 0.94806725 0.30789328 
-0.47964463 0.55731976 0.67774314 
-0.66747147 0.7416604 0.066497035 
0.43491247 0.82744586 -0.35522482 
0.14205068 0.9606746 -0.23859157 
0.68396515 0.5049317 -0.5265318 
-0.12705104 0.9318189 0.33995843 
-0.11274461 0.98612046 0.12188124 
0.29288262 0.43204695 0.85296845 
-0.3622106 0.18799898 0.9129402 
-0.13311942 0.76388174 0.63147753 
-0.6595162 0.7291905 -0.18253651 
-0.46908495 0.8729898 0.13359764 
0.038806207 0.8426542 -0.53705496 
-0.57141083 0.73420256 -0.36665568 
0.08464823 0.96318036 0.2551829 
0.7029709 0.68735915 -0.18267292 
0.60709333 0.6730756 0.42238256 
0.4450469 0.41087192 0.7956868 
-0.39455193 0.4955997 0.7737633 
-0.040538143 0.70360017 0.70943886 
0.15813935 0.6519401 0.741597 
0.046455495 0.75020033 0.6595768 
-0.42844954 0.79301643 0.43307737 
0.08865399 0.972558 0.21510811 
0.245407 0.8222511 -0.51349646 
-0.6675575 0.73208934 -0.135692 
-0.16502652 0.9823723 -0.08781322 
-0.00010013739 0.99748313 0.07090466 
0.04854079 0.21497007 0.9754136 
0.045163482 0.70355636 0.709203 
0.3011726 0.83611965 0.45847476 
0.84037685 0.09368388 0.5338446 
0.07565614 0.9823552 0.17103949 
-0.15557681 0.96743864 -0.19964573 
0.46995905 0.8729789 0.13056165 
-0.045338616 0.64877397 0.7596294 
-0.44712117 0.8670524 0.21977946 
-0.59367627 0.5946093 -0.5422068 
-0.5586669 0.7925023 -0.24460474 
-0.32685894 0.9260553 0.18863963 
-0.22546825 0.8272501 0.5146081 
0.30866548 0.6825267 0.66248244 
0.12914346 0.44536355 0.8859872 
-0.5031325 0.6357375 0.58540213 
0.46529526 0.6011122 0.6497419 
0.1300731 0.9914305 0.012105059 
-0.04980697 0.7252518 0.68667984 
-0.49066728 0.44528806 0.7489755 
-0.43112892 0.012479614 0.9022041 
-0.5202668 0.6317712 0.57461953 
0.72276205 0.68905 -0.05315205 
0.91220737 0.3151934 0.2617841 
-0.6272637 0.21057062 0.7498002 
-0.4660818 0.2970123 0.83339757 
-0.66298395 0.27910435 0.6946604 
-0.4126323 0.90492296 -0.10415972 
0.30741742 0.7830148 0.54072404 
-0.47631547 0.7462006 0.46508956 
-0.47754335 0.69565755 0.5366685 
-0.2763409 0.6702611 0.6887567 
0.76672596 0.51223195 0.38697526 
0.29958087 0.76927614 0.5643275 
0.51000744 0.8070575 0.2975748 
0.2444745 0.71201795 0.6582269 
0.26233974 0.90270567 0.34102848 
0.5569808 0.7645642 -0.3243672 
0.7762242 0.31741846 0.5447215 
0.7826266 0.16779925 0.599449 
0.6067139 0.2671616 0.74868083 
0.37087178 0.9266977 0.060710244 
-0.50211734 0.106048204 0.85827273 
-0.21590835 0.45805216 0.8623062 
-0.5171519 0.8429289 0.14840826 
-0.29131162 0.5831481 0.7583376 
-0.96930456 0.21144979 0.12545034 
-0.4456287 0.85316056 -0.2711679 
0.04053956 0.49267048 0.8692713 
-0.63252765 0.7450589 0.21165098 
0.82732224 0.55848706 0.060250774 
0.24088477 0.9538683 0.17919211 
0.5314084 0.6730949 0.5143427 
0.25234178 0.7176925 0.649031 
-0.01558838 0.86404985 0.50316477 
0.11079884 0.79662275 0.5942356 
-0.19509493 0.8313869 0.52032095 
-0.041973565 0.76499456 0.64266765 
0.031591862 0.9991314 0.027175201 
-0.0056589614 0.9241255 0.38204718 
0.15833928 0.59829223 0.78547764 
-0.1137011 0.008443848 0.9934792 
-0.51185685 -0.29136813 0.8081505 
-0.19419561 0.009927996 0.98091257 
-0.41490036 0.42739415 0.8032384 
-0.3408907 0.5460244 0.76527834 
-0.77890664 0.4017553 0.48155704 
-0.13093357 0.9747097 0.18110038 
0.29899135 -0.3602107 0.8836586 
0.23151718 0.15173821 0.9609242 
-0.31155422 -0.1880686 0.93143123 
-0.03347711 0.05224569 0.998073 
-0.35123062 0.20276745 0.91406924 
0.120068334 0.15602922 0.98042774 
0.2855932 0.049972672 0.9570472 
-0.35785466 0.70435214 0.6130483 
0.06148284 0.99100775 0.118842125 
0.6660642 0.5080102 0.5461539 
0.95418227 0.21477203 0.20834891 
0.7895578 0.57356673 0.21821932 
0.19758484 0.94207627 0.2710214 
0.26167932 0.85736436 -0.44322726 
-0.31687877 0.83526164 0.44936168 
-0.5386426 0.842527 -0.0035644027 
-0.68320787 0.73001987 0.017265512 
-0.82393306 0.5486486 -0.14184217 
-0.39859164 0.909868 -0.115174435 
-0.44019163 0.7778817 -0.44847682 
0.27350724 0.9111089 0.3083412 
0.27088743 0.76302516 0.58686686 
0.32434165 0.9456566 -0.023154756 
-0.24187285 0.8428205 0.4807817 
0.43667078 0.29634455 0.84941065 
0.6365911 0.36274472 0.6805645 
0.8043304 0.33061293 0.49370828 
0.68025273 0.5843125 0.44253266 
0.40141472 0.6911249 0.6010096 
0.7811258 0.6121584 -0.12290067 
0.5814095 0.19171122 0.7907021 
-0.20831946 -0.6196135 0.7567576 
0.308834 -0.6040016 0.7347133 
0.2951996 -0.94786006 0.12007708 
0.26264307 0.15283708 0.9527117 
0.35911155 0.3397938 0.8692406 
0.2879094 -0.05443662 0.9561093 
-0.03788258 0.32186952 0.94602597 
0.549254 0.036052674 0.83487743 
0.71317655 0.020220812 0.7006928 
-0.08985135 -0.7544001 0.6502364 
-0.23285133 -0.08102499 0.96913123 
-0.30913374 -0.21506743 0.92638135 
0.105468765 0.13332486 0.98544455 
-0.46865636 0.35197213 0.81023264 
-0.0016153796 -0.06096913 0.9981384 
-0.6196081 -0.19016297 0.76152736 
-0.21759324 -0.2579055 0.9413491 
0.14077686 0.56654364 0.8119176 
0.19401135 -0.111223355 0.9746738 
0.20884573 0.72181004 0.6598286 
0.043016806 0.14848693 0.98797834 
-0.33406076 0.77533674 0.53596306 
-0.5689487 0.7794044 0.26234743 
-0.41469696 0.64794326 0.6389022 
0.2087716 0.9672196 0.14457114 
0.7619172 0.5602201 0.32501644 
-0.415877 0.50778234 0.75445586 
-0.22142561 0.35048807 0.9100159 
0.114096 0.137374 0.9839261 
-0.34226727 0.57063717 0.74647593 
-0.6293004 0.17338184 0.757575 
0.029802177 -0.031845488 0.9990485 
0.0044391397 0.60328954 0.7975099 
-0.23872131 0.21977942 0.94589067 
-0.4410961 -0.09031515 0.89290404 
0.47341052 0.38405663 0.79270613 
0.3538359 0.3410471 0.8709116 
0.48104998 0.76421016 0.4296205 
0.44200447 0.89675725 -0.021415351 
0.29601133 0.5689374 0.7672598 
0.7674985 0.36461776 0.527257 
0.5821227 -0.23960786 0.7769951 
-0.41254705 0.47419733 0.77778006 
0.5596129 0.0583656 0.82669646 
0.16313678 0.6881368 0.70700365 
0.28366214 0.9542255 -0.09481335 
0.83809775 0.3915816 -0.37981087 
0.6492194 0.7575258 -0.06832904 
0.65900135 0.72624254 -0.19567595 
0.08069474 0.7958151 0.6001389 
-0.3121438 0.7270785 0.61149263 
-0.12109809 0.8038123 0.5824269 
-0.783021 0.30605882 0.5414852 
0.012892646 0.2822457 0.9592555 
0.26291168 -0.21314579 0.94098157 
-0.49383876 0.059851944 0.8674913 
0.16670713 0.3388094 0.9259681 
0.19930285 0.23324008 0.951776 
0.010425263 0.13163747 0.9912431 
-0.5417798 -0.19840792 0.81676733 
0.21024941 -0.1709765 0.9625811 
-0.3811217 -0.0911535 0.9200203 
-0.12004513 -0.07130035 0.9902048 
-0.50211465 -0.028739389 0.8643234 
-0.4673357 0.7759466 0.42367932 
-0.25306502 0.9666725 -0.038760826 
-0.7777743 0.6278735 0.029019982 
0.11206637 0.5505234 0.8272638 
0.1257197 0.04646615 0.990977 
-0.2570334 -0.03108865 0.9659023 
0.024831684 0.62873065 0.7772266 
-0.73042685 0.67132837 0.12567787 
-0.5104595 0.8207619 -0.2564785 
-0.07804574 0.9867084 0.1425321 
0.042075936 0.7683611 0.6386321 
-0.3659932 0.65384126 0.662224 
0.11277528 0.7848861 0.6092912 
-0.71791303 0.57234544 0.3962595 
-0.1658159 -0.3196076 0.9329288 
-0.065177485 0.2963663 0.9528479 
0.38442123 0.12889883 0.91411453 
-0.060092937 0.046359353 0.9971157 
0.048959624 0.16089189 0.98575693 
0.34657568 0.3602595 0.8660823 
-0.041104324 0.44038165 0.89686924 
-0.40163812 0.7143233 0.5730874 
0.31386104 0.73009044 0.6070085 
0.08184723 0.38118196 0.9208699 
0.48937646 0.6743253 0.55298847 
0.12595357 0.9271088 0.35299417 
0.31450158 0.5128689 0.79878306 
-0.1252557 0.6836797 0.71895283 
-0.316456 -0.07212158 0.94586164 
-0.8061522 -0.25179854 0.53545886 
-0.4141799 -0.41474435 0.8102112 
-0.75944877 0.5820129 0.2906865 
-0.33371332 0.5671817 0.7529545 
-0.44908372 0.8303391 0.32994083 
0.101065494 0.99276954 0.06476525 
-0.02943484 0.9583807 0.28397194 
-0.32640192 0.894777 0.3046899 
0.040476456 0.69169194 0.72105753 
0.4161332 0.45940197 0.78471845 
0.12943842 0.9180802 0.3746658 
-0.1011141 0.4793047 0.8718045 
-0.3583319 0.60914034 0.70749307 
-0.11060667 0.6645201 0.7390394 
0.4632506 0.66516685 0.585621 
0.6323998 -0.1295396 0.7637343 
-0.43669793 0.7550852 0.48902097 
-0.14556153 0.5799351 0.801553 
0.40020847 0.512277 0.75987196 
-0.3199998 0.23460399 0.9179113 
-0.13265781 -0.023088062 0.99089295 
-0.08603635 -0.6183226 0.7812009 
0.18281817 -0.09901038 0.97814846 
0.30620256 -0.49158192 0.8152222 
0.013395087 0.41593406 0.90929615 
-0.23310196 0.25696966 0.937886 
-0.4400188 -0.061138194 0.89590496 
-0.02735255 0.352963 0.93523747 
-0.7105979 0.040395662 0.7024378 
0.17689686 -0.13008845 0.97559446 
-0.7103846 0.2964573 0.63833123 
-0.6873478 0.5336442 0.492724 
-0.1715209 0.80156213 0.5727816 
-0.30894288 0.8486008 0.42945418 
0.69272697 0.69980246 0.17437282 
0.28123507 0.7817386 0.5565893 
-0.4435631 0.31618887 0.83861583 
0.13800198 -0.032753296 0.9898903 
0.4977991 0.1753228 0.84938693 
0.09768174 0.5847764 0.8052918 
-0.46113825 0.62259346 -0.6322413 
0.0953448 0.82040817 0.5637728 
0.070291586 0.99665904 -0.041593384 
-0.75162363 0.65086585 0.10693793 
-0.010768308 0.89959025 0.4366023 
-0.19746122 0.8297521 0.52203506 
-0.8718159 0.48175713 0.08858359 
-0.34205133 0.7516836 0.5638906 
-0.56607264 0.62971616 0.53199565 
-0.7151367 0.6927204 0.093370914 
-0.4364663 0.8672658 0.23947243 
0.8399902 0.435056 0.32425734 
0.7547902 0.37694097 0.53684956 
0.6025791 0.6192041 0.50347275 
0.3223718 0.49643606 0.80599487 
-0.050276637 0.786782 0.6151801 
-0.26003456 0.3684429 0.8925425 
-0.24403913 0.7577315 0.6052172 
-0.44257233 0.58158416 0.68256104 
0.047699843 0.8079392 0.58733207 
0.38554022 0.909772 -0.15386268 
-0.25634417 0.9057548 0.33748487 
0.28139096 0.9511236 -0.12721327 
0.51827514 -0.047349725 0.85390216 
0.17489526 -0.16702273 0.970317 
0.25634363 0.11556152 0.9596528 
0.8732073 0.35686624 0.33189705 
0.90224475 0.3260989 0.28215966 
0.92853254 0.2205227 0.29865885 
-0.019088365 0.81599283 0.57774675 
0.48245254 0.7330929 0.4793896 
0.04700132 0.33009368 0.9427774 
-0.44568777 0.79961526 0.4024649 
-0.13187365 0.9169067 0.37668487 
-0.23670538 0.90010536 0.36576083 
0.060878783 0.7552054 0.65265507 
0.058632366 0.93004394 0.36274058 
0.22139268 0.64989114 0.7270673 
0.27846035 -0.0040324097 0.9604393 
-0.15246654 0.32072353 0.9348211 
-0.5558844 0.29353908 0.77770656 
-0.24567361 0.31924674 0.9152738 
-0.34740156 0.41039327 0.84314275 
0.4558093 0.53039044 0.71478945 
0.58692765 0.5438717 0.59976625 
0.13207474 0.62033224 0.7731392 
0.7881526 0.2843204 0.5458732 
0.13583401 0.027621036 0.9903465 
0.3727319 0.44972056 0.8116788 
-0.6281525 0.76304775 0.1522582 
-0.44823825 0.8914814 0.06590475 
-0.28545925 0.6755763 0.67978644 
0.07907691 0.88433075 0.46011508 
-0.42182925 0.8913443 0.16602857 
-0.55541074 0.8303354 0.04541186 
-0.40254992 0.6090175 0.6834116 
0.3123477 0.8782148 0.36218467 
0.6928466 0.72082734 -0.01927995 
0.8449261 0.28340185 0.4536333 
0.31741914 0.00118969 0.9482847 
0.24255764 0.73977476 0.6276138 
0.5086656 0.5755171 0.64034325 
0.79900634 0.4388849 0.4110584 
0.6576812 0.46737638 0.59077466 
0.72023475 0.29864916 0.62615544 
0.28513283 0.5812267 0.7621514 
-0.71772027 0.59757054 0.3574733 
-0.847929 0.17598236 0.5000467 
-0.7974958 0.5200738 0.3058164 
-0.216485 0.91882545 0.32999116 
-0.7367703 0.37330315 0.5637504 
-0.790732 -0.45305055 0.4116894 
-0.6831854 0.6306373 0.36817712 
-0.91048086 0.3850657 0.15082817 
0.4153336 0.88450277 0.21249215 
0.39064518 0.9164443 0.08675365 
0.51855236 0.80599314 0.28544432 
0.154868 0.75129104 0.6415432 
-0.15178497 0.9323661 0.32810804 
0.11521979 0.55214643 0.8257475 
-0.48284578 -0.015976062 0.87555975 
0.13441308 -0.11208846 0.9845656 
-0.10766076 0.96964335 0.21954691 
0.14937618 0.7828553 0.6040071 
-0.21438883 0.5503029 0.8069723 
-0.18220875 0.46331242 0.86726105 
-0.66222256 0.21997978 0.7162892 
-0.61233544 0.23184393 0.7558398 
0.2737323 0.35319534 0.8946081 
-0.5413576 0.41371405 0.73196495 
-0.12542099 0.34451318 0.93036574 
-0.082695164 0.5583489 0.82547444 
-0.015980393 0.055315718 0.998341 
0.22020108 0.5329045 0.8170216 
0.18977205 0.06451011 0.9797066 
-0.39479312 -0.38801765 0.83281505 
-0.55054516 0.04226031 0.8337351 
-0.70146215 0.44778782 0.55446994 
-0.19482128 -0.19319451 0.96162397 
-0.38944295 0.25054893 0.8863179 
0.26735252 0.8867747 0.37703207 
-0.8678254 0.23896801 0.43563005 
-0.77012205 0.20766209 0.60314876 
-0.53617436 0.83956486 0.0874522 
-0.8178727 0.5466079 0.17973338 
-0.5100947 0.8594017 -0.035100624 
-0.61124086 0.028605659 0.7909276 
-0.67967486 0.52377105 0.5135232 
-0.58500594 0.6612946 0.46952915 
-0.8386968 0.19334161 0.5091236 
-0.86503136 0.43885577 -0.2431591 
-0.19063228 0.9430809 -0.2725031 
0.6968139 0.67792696 0.2342339 
0.7034763 0.69417423 -0.15245731 
0.47871912 0.81195474 0.33400232 
0.86253965 0.42629516 0.2725766 
0.78759223 -0.41497022 0.45551974 
0.3484557 -0.40434965 0.84562415 
0.5568878 0.3239509 0.76480836 
0.5400696 -0.3631969 0.7592187 
0.05644115 0.5145661 0.8555912 
0.3709962 0.8542892 0.36407694 
0.3468195 0.5504925 0.7593908 
-0.04499689 0.2528107 0.9664689 
0.46869728 -0.5775578 0.66839355 
0.19223174 -0.76865685 0.6100932 
0.021237766 0.105440795 0.9941988 
-0.06197866 0.2652248 0.9621926 
0.6424664 -0.09510053 0.7603899 
0.7119954 -0.536522 0.45299762 
0.9518493 -0.23360467 0.19852413 
0.58169794 -0.16192777 0.79712427 
0.22853239 -0.63503104 0.7379083 
0.25192034 -0.3764648 0.89152145 
-0.388226 -0.73090845 0.5612962 
-0.6666564 -0.5412153 0.5124992 
-0.69220227 -0.081456915 0.717092 
-0.5473643 0.31873575 0.77382165 
-0.22004487 0.31053087 0.9247437 
-0.22478211 0.2858981 0.93152314 
0.4905583 0.5007035 0.71319604 
-0.32225287 -0.05946604 0.9447841 
-0.631138 0.06877328 0.7726157 
-0.55663764 0.13903409 0.81903845 
-0.6210937 0.51691353 0.5891036 
-0.23440179 0.7019045 0.67259645 
-0.24018218 0.7635287 0.5994468 
0.30113807 0.95301944 -0.03270821 
0.23199022 0.96528304 0.12003867 
-0.45502213 0.044574145 0.88936394 
-0.56133217 0.25539187 0.7871983 
-0.7836701 -0.2721546 0.5583843 
-0.58648276 0.4467319 0.67562467 
-0.09330292 0.72121096 0.6864032 
-0.2926872 0.42324144 0.85743856 
0.036472984 0.036515556 0.99866736 
0.24844499 -0.017738927 0.9684836 
0.5863951 0.14514494 0.7969151 
-0.14555453 0.64211524 0.7526633 
0.11174629 0.68313 0.7216968 
-0.4803624 0.7542745 0.4475737 
0.26056555 0.80070794 0.5394187 
0.6183207 0.36246356 0.697352 
0.87651455 0.3822957 0.29252747 
0.6666619 0.04041272 0.74426395 
-0.40530953 0.39853835 0.82273406 
0.6826809 0.47727558 0.55331266 
0.59424603 0.8038579 0.026157444 
0.060228843 0.9073512 -0.4160363 
0.3173996 0.7787367 -0.5411346 
0.72179705 0.64296615 0.25613186 
0.7178526 0.6698789 0.18960497 
0.5184229 0.59748995 0.6117544 
0.5841644 0.5718917 0.5759269 
0.1041387 0.43737248 0.8932303 
-0.0758675 0.7053225 0.7048151 
0.67183524 0.21007387 0.7102862 
0.54944175 0.35162023 0.75794274 
0.3823228 0.3989649 0.8334605 
0.18538198 0.5597261 0.80767584 
0.07969303 0.7082388 0.7014606 
-0.18135601 -0.07349823 0.9806672 
-0.5583137 -0.59656984 0.576533 
-0.37916976 -0.5948985 0.7087497 
-0.39769387 -0.20136507 0.89514893 
-0.44530064 -0.609472 0.6559354 
-0.36952567 -0.19568527 0.9083822 
-0.57538193 0.408662 0.7084709 
-0.36174133 0.76656926 0.5305797 
-0.11143965 0.46066836 0.8805487 
0.16555198 0.53595495 0.8278556 
-0.31906492 0.30602688 0.8969645 
-0.03187474 0.2370231 0.97098094 
0.37805936 0.7850844 0.49062565 
-0.23415203 0.82302225 0.5175011 
0.47007963 0.8714233 0.1401664 
-0.46855178 0.8834328 -0.0023942427 
0.4451748 0.8952175 0.020128056 
0.29330575 0.9048439 0.30859235 
-0.29777545 0.62215173 0.724056 
-0.77852094 0.43422776 0.45315722 
-0.08792137 -0.5519692 0.8292165 
-0.3057419 -0.34655297 0.8868049 
-0.2843766 0.17657004 0.9423126 
-0.22942571 0.4087611 0.88333356 
0.24531648 0.39582878 0.8849518 
-0.097608395 0.7038404 0.70362025 
-0.6756111 0.015629925 0.73709255 
-0.38446814 0.4013873 0.83130777 
0.39585543 0.68527514 0.61130714 
0.42729494 -0.009812161 0.9040591 
0.44535714 0.8248573 0.34823513 
0.5803349 0.66206634 0.4742147 
0.3832588 0.3017618 0.8729563 
-0.5026178 0.29381326 0.8130493 
-0.3725031 0.13529684 0.9181156 
-0.5457048 0.05014404 0.83647597 
0.20418939 0.31626338 0.9264363 
-0.18102477 0.63966066 0.7470371 
-0.37189767 0.73144364 0.57156146 
0.11253036 0.9936465 0.0019012281 
-0.12565571 0.9613281 0.24506941 
-0.3320905 0.81155646 0.48072046 
-0.517488 0.8023938 0.29727146 
0.039337497 0.18216315 0.9824812 
0.43319285 0.5307703 0.72844136 
-0.092864156 0.50123596 0.8603133 
-0.33205763 0.68561316 0.6478213 
-0.34487098 0.7904988 0.50613797 
-0.22827154 0.69910693 0.67759997 
0.7574874 0.3785465 0.53189784 
0.31938085 0.28568608 0.90353715 
0.031054312 -0.36324376 0.9311765 
0.048780408 -0.2806799 0.9585611 
-0.7451132 -0.3923616 0.5393133 
-0.12393758 0.094619505 0.98776853 
0.118601605 -0.6008946 0.79048043 
-0.38109523 -0.32219625 0.86657727 
0.44628376 -0.44968298 0.7737028 
0.69387215 -0.2179603 0.6863197 
-0.38738364 -0.01370851 0.92181677 
-0.2560137 0.22711572 0.9396146 
0.02900546 0.26016822 0.9651275 
-0.043694727 0.4537949 0.8900343 
0.27817369 0.48354888 0.8299397 
0.8423271 0.38070706 0.3815066 
-0.12953822 0.26011506 0.95684904 
-0.4247747 0.50671244 0.75020605 
0.13317727 0.9909979 -0.01366999 
-0.48018426 0.63558984 0.60452354 
-0.7276247 0.6572693 0.19636536 
-0.15940033 0.9339869 0.31978142 
-0.50712454 0.76659644 0.3938968 
-0.43477145 0.40991077 0.80183977 
0.05727318 -0.15956555 0.98552454 
0.15306622 0.87046784 0.46782115 
0.087609544 0.5990181 0.7959283 
-0.28296548 0.32687515 0.9017113 
0.44125712 0.87214845 0.21130365 
0.28447545 0.95733726 0.050785203 
0.23962957 0.9560852 0.1687568 
0.7532701 0.4907603 0.43787965 
-0.16647851 -0.09161852 0.9817795 
-0.20051104 0.6957026 0.68977773 
-0.6233129 0.5300416 0.5749236 
0.090608165 0.67841303 0.72907203 
0.26781696 0.9157265 0.29953167 
0.6334559 0.6108713 0.47494215 
0.17392242 -0.073389 0.982021 
0.20329025 0.67419213 0.7100268 
0.37217623 0.80536383 0.46138263 
-0.6495583 -0.13708663 0.7478512 
-0.3650016 0.36497843 0.8564839 
-0.62818503 0.14607629 0.7642286 
-0.53471434 0.6858217 0.49368945 
-0.36245787 0.68736804 0.62940407 
-0.2305171 0.89278907 0.38702664 
0.46466702 0.77364254 0.43076882 
0.51885843 0.6473023 0.5583778 
0.96486 -0.05321511 0.25731945 
0.41401154 -0.23512055 0.87938213 
0.5365656 0.2972145 0.78978544 
0.8080668 0.4520813 0.37769106 
0.7303691 0.5920886 0.34057626 
0.40099484 0.83544916 0.37580323 
0.78636736 0.23127198 0.5728347 
0.84171706 0.16084814 0.51540303 
-0.52446616 0.028084889 0.85096794 
-0.1273993 0.06217784 0.9899007 
0.00053636776 0.71879697 0.69521993 
0.11715087 0.88892704 0.44281423 
0.008655173 0.63177013 0.77510756 
-0.5761944 0.7243819 0.37851143 
0.035059314 0.0369541 0.9987018 
0.041809797 -0.2898181 0.9561681 
-0.4625287 0.3545387 0.81263125 
-0.45117497 0.5531035 0.70036966 
-0.14962412 -0.35633463 0.92230064 
0.037586797 0.1504017 0.9879103 
0.22679012 -0.060356162 0.97207177 
0.1296056 0.6929251 0.70926535 
0.0883233 0.21232067 0.9732004 
0.3311548 0.3654745 0.8699224 
0.15111566 -0.30478862 0.94035524 
0.49619636 0.46793026 0.73132104 
-0.3403366 0.7566871 0.5582076 
0.3034051 0.94126666 0.14819777 
0.31437844 0.5100065 0.80066204 
-0.3265146 0.68856 0.6475133 
-0.5129849 0.7774803 0.3638281 
-0.05574042 0.9276591 0.36924458 
0.0956697 0.46381932 0.8807491 
0.38814518 0.88551396 0.2553594 
-0.082477435 0.83715785 -0.54070735 
0.62884736 0.7507543 0.20228486 
-0.015125362 0.5896162 0.807542 
-0.42540944 0.4300895 0.79627246 
0.084774114 0.46081045 0.8834405 
0.44852394 0.59585935 0.66616666 
0.5312825 0.8455406 0.05291649 
0.42737 -0.18999264 0.88388795 
-0.14618236 -0.00024507003 0.9892577 
-0.8447929 0.46214947 0.26970902 
-0.7916175 0.4380866 0.42593646 
0.33401555 0.14860919 0.93077874 
0.68492717 0.6353582 0.35664383 
-0.045992948 -0.028340021 0.99853975 
-0.86726797 0.21307272 0.44994053 
-0.7554981 0.038009606 0.65404737 
-0.97479105 0.10959331 -0.19434996 
0.625704 0.5901691 0.5100933 
-0.30931178 0.93928075 0.14858687 
-0.33355293 0.9384477 -0.0897682 
-0.017446846 0.8164996 0.5770824 
0.049836066 0.2578088 0.96490985 
-0.052618094 0.72079057 0.691153 
-0.34753376 0.04972816 0.93634796 
-0.5031697 0.021558408 0.8639188 
-0.71884274 0.49625725 0.4868202 
-0.34505087 0.5602689 0.7530198 
0.1456222 0.40318692 0.90345705 
-0.2994093 0.42490014 0.8542915 
-0.3461463 0.042622134 0.93721193 
-0.4163458 0.011787165 0.90913 
-0.1284851 0.30650586 0.9431573 
-0.6179186 -0.44666734 0.64704317 
-0.18550372 -0.044774752 0.98162293 
-0.20670839 -0.27360246 0.9393686 
0.18008 0.09882508 0.978675 
-0.69377434 -0.032812804 0.7194446 
-0.24527828 -0.9659888 0.08187944 
0.30500212 -0.28402394 0.9090128 
-0.3872396 0.53159684 0.75329304 
-0.72407204 0.22768027 0.6510618 
-0.2833368 -0.010754942 0.9589602 
-0.22271083 -0.21893345 0.94998324 
-0.015864195 0.6574471 0.7533337 
-0.3166627 0.7031649 0.6366191 
-0.6953445 0.7002748 0.16159 
-0.9319639 0.36255106 0.0003251265 
-0.61672115 0.7871409 -0.00801932 
0.07446094 0.9855441 0.15217905 
-0.47516015 0.7530439 0.4551349 
0.09574061 0.31013036 0.9458609 
0.038392328 0.5855726 0.8097103 
-0.748027 0.5877733 0.30818537 
-0.6231504 0.74829555 -0.2274586 
-0.6595957 0.57687885 0.4818137 
0.122878484 0.50382656 0.85502034 
0.12261086 0.58356035 0.8027602 
-0.058063086 0.41782257 0.9066714 
0.6967645 0.24110259 0.67556554 
0.7249906 0.4865896 0.48746204 
0.118096314 0.25784856 0.95894074 
0.98797727 0.02189072 0.15304151 
0.38331115 0.2692501 0.8835027 
-0.03834366 0.2822091 0.9585864 
-0.7423665 0.54829514 0.3850514 
-0.21806628 0.96768075 0.1266536 
0.40514252 0.1719746 0.8979334 
-0.039333664 0.5435858 0.83843154 
-0.40333408 -0.19828612 0.89331096 
-0.15034746 -0.022847649 0.9883692 
-0.2661036 0.7192123 0.6418119 
0.69206965 0.010617535 0.72175264 
0.89810175 0.3621826 0.24947347 
0.9702701 -0.12927274 0.20460829 
0.45357496 -0.7247931 0.51859885 
0.34966478 -0.73134387 0.5855517 
-0.058369644 -0.32494864 0.9439288 
0.4095439 0.20314337 0.8893856 
-0.05950279 -0.17067397 0.9835293 
-0.047824662 0.4908562 0.869927 
0.5818605 -0.09258731 0.8080012 
-0.16011578 0.25153843 0.9545111 
-0.38841504 0.36557502 0.8458657 
-0.76404417 0.20118271 0.6129943 
-0.6820929 0.26996413 0.67960924 
-0.96893024 -0.022800654 0.24628127 
-0.9104698 0.4133092 0.014845469 
0.24206218 0.7471858 0.61896634 
0.36001152 0.93156934 0.05069883 
0.43888515 0.51689905 0.73497975 
0.43582878 0.8348453 0.33628362 
-0.31762096 0.9432527 0.096909344 
0.053560525 0.032803338 0.9980257 
0.22458293 -0.3992741 0.8888998 
-0.11159094 -0.4450045 0.8885485 
-0.67103976 0.03628902 0.7405328 
-0.6766783 0.35811275 0.64332086 
-0.14611436 0.5171319 0.84334177 
0.40708715 0.16615646 0.89814925 
0.60213834 0.649327 0.46454713 
0.10887281 0.5105682 0.85291666 
0.32537067 0.02239759 0.94532126 
0.22946814 0.55092007 0.8023911 
-0.19663073 0.7519943 0.6291591 
0.09548636 0.7884809 0.60760224 
0.085171625 0.35645792 0.93042123 
0.13534403 0.6524259 0.7456692 
0.4092801 0.42239153 0.8087491 
0.33681902 0.78673273 0.51730514 
0.6383183 -0.42945504 0.63884133 
0.69162 0.21513431 0.6894773 
-0.25375828 0.96363175 -0.08378973 
0.040296257 0.9427941 -0.33093148 
0.62526315 0.7635183 0.16151129 
0.46866223 0.8304813 0.30109224 
0.26022145 0.55486286 0.79019743 
0.049152292 0.91238666 0.40636757 
-0.004063208 0.919438 0.39321402 
0.5393798 0.47299358 0.6966682 
0.47160733 0.52681077 0.70714706 
0.667639 0.061410118 0.7419481 
0.18107778 0.37941423 0.9073344 
0.38081598 0.3915702 0.83764666 
0.09667519 0.55090475 0.8289498 
0.08352472 0.15862635 0.98379946 