# OOMMF: rectangular mesh v1.0
# Segment count: 1
# Begin: Segment
# Begin: Header
# Desc: Time (s) :  1.3899999999999993e-07
# Title: m
# meshtype: rectangular
# meshunit: m
# xbase: 2e-09
# ybase: 2e-09
# zbase: 5e-10
# xstepsize: 4e-09
# ystepsize: 4e-09
# zstepsize: 1e-09
# xmin: 0
# ymin: 0
# zmin: 0
# xmax: 1.024e-06
# ymax: 1.024e-06
# zmax: 1e-09
# xnodes: 256
# ynodes: 256
# znodes: 1
# ValueRangeMinMag: 1e-08
# ValueRangeMaxMag: 1
# valueunit: 
# valuemultiplier: 1
# End: Header
# Begin: Data Text
0.16593301 0.85505116 0.4912777 
-0.057864755 0.36080983 0.9308427 
0.34786457 0.6511969 0.6744871 
0.008655531 0.6046 0.79648226 
-0.19510591 0.9800037 0.039069064 
-0.3430409 0.63812786 0.6892864 
0.3675657 0.46168435 0.8073061 
0.100528486 0.103814006 0.9895033 
0.39671662 0.29790077 0.8682575 
-0.39429995 0.6362226 0.6631353 
-0.39130327 0.681834 0.61804867 
-0.9599627 0.26986974 0.07511375 
-0.5269996 -0.10621621 0.84320194 
-0.6416699 0.5436557 0.541016 
0.4243871 0.89361113 0.14613272 
-0.11347502 0.89220977 0.437133 
0.15550967 0.6621022 0.7331013 
-0.30675226 0.85460997 0.41898072 
-0.7086433 0.69965714 0.09113003 
-0.4102862 0.8386362 0.35826617 
0.27925318 0.9541094 0.1081347 
0.41945186 0.8970318 0.13926272 
0.36588317 0.92642045 0.08873971 
0.5430832 0.8228068 -0.16748022 
0.5599867 0.786496 -0.2604594 
0.36959624 0.89649284 -0.24433422 
0.29343426 0.7813341 0.5508297 
0.4054472 -0.26333433 0.8753672 
0.6223968 0.09653072 0.7767266 
0.91442186 0.4004165 0.05915612 
0.7638022 -0.12852511 0.6325247 
0.8257222 0.15105882 0.54347414 
0.25672108 0.22915019 0.93892735 
-0.05598322 -0.2965176 0.9533851 
-0.7938194 0.29454064 0.53206825 
-0.27038497 0.8827302 0.38429093 
-0.05926361 0.9897807 0.12969984 
-0.7502829 0.017199365 0.66089314 
-0.45653766 0.45882502 0.7622683 
-0.8376669 0.527491 0.14165989 
-0.14755766 0.8885652 0.4343718 
-0.7483035 0.66107845 -0.054929715 
0.071230166 0.8019468 0.5931336 
-0.16622742 0.53044724 0.8312606 
-0.21828862 0.54488033 0.8096021 
-0.29600957 -0.3058305 0.9049012 
-0.562167 0.3606175 0.7442603 
-0.98713887 -0.031851493 -0.15666017 
-0.71759284 0.20321439 0.6661565 
-0.9811839 0.14036225 -0.13257717 
-0.16046423 0.9348708 -0.31665105 
0.00020280587 0.97596735 -0.21791707 
-0.55846477 0.826421 0.0717312 
-0.14499794 0.464638 -0.87354857 
0.3564123 0.64511776 -0.67586493 
0.18015622 0.891182 -0.4163393 
0.38653216 0.91154766 0.1402633 
0.48330945 0.87511176 0.024321008 
0.12050358 0.98131067 -0.15002818 
-0.16347216 0.88294667 0.44009337 
0.031976838 0.9431135 0.33092973 
-0.7890942 -0.09717346 0.60653746 
-0.3906602 0.4301462 0.8138543 
-0.8700477 0.30522442 0.38711116 
-0.27136934 0.21579443 0.937972 
-0.6878677 0.36513424 0.62730783 
-0.5326392 -0.5528535 0.64081866 
-0.81668514 0.04601267 0.57524633 
-0.62220544 -0.3947053 0.67606825 
-0.06598145 -0.6035268 0.7946081 
0.72418493 -0.26076326 0.63840336 
0.23584847 0.30925018 0.9212708 
-0.072031476 -0.1942702 0.97829986 
0.18803935 -0.39136645 0.90081835 
0.10355162 -0.0037349674 0.9946171 
-0.19463986 0.38574356 0.9018411 
0.1264137 -0.1942511 0.97277236 
0.08358403 0.32237944 0.9429132 
0.38016275 0.4121799 0.82799995 
-0.036035758 0.51808614 0.8545691 
0.03208221 0.21157947 0.9768342 
0.45839748 -0.23059851 0.85831004 
0.36629125 0.29185244 0.8835457 
0.3401878 0.769695 0.54022396 
0.2029916 0.5291249 0.8239061 
-0.27702713 0.67507637 0.6837601 
-0.78463435 -0.5118196 -0.34984252 
-0.5928258 0.10335331 -0.7986712 
-0.5330571 0.5153613 -0.6710088 
0.053165585 0.81416005 -0.57820153 
-0.28509787 0.9512661 0.11752469 
-0.9119682 0.36222747 0.19262794 
-0.37708992 0.66175306 0.6479862 
0.60296446 -0.03158892 0.79714245 
0.26051378 0.019215854 0.9652789 
0.45633593 -0.02202342 0.88953507 
0.7008457 0.15659824 0.6959112 
0.66012084 0.6378363 0.39674354 
-0.29993054 0.56013465 0.7721988 
-0.54050606 0.003163348 0.8413343 
-0.33410937 0.7453841 0.5768653 
-0.66419375 0.12606546 0.73685426 
-0.39018053 0.30056757 0.87029785 
-0.4963599 0.3431337 0.79742473 
-0.9857253 0.01720402 0.16748099 
-0.50772065 0.5048399 0.69810927 
0.13254802 0.58720183 0.79851437 
0.13029096 0.6956239 0.7064926 
0.15968992 0.079322286 0.9839752 
-0.86646587 0.4649121 0.18191683 
-0.32118052 -0.50377375 0.8019071 
-0.7864204 -0.23144986 0.57269 
-0.3889123 0.17832756 0.903851 
-0.20714064 0.26860908 0.9407135 
-0.3787103 -0.110133946 0.9189392 
-0.35636422 -0.2577485 0.8980926 
-0.29628545 0.51824594 0.8022693 
-0.48360527 0.86485946 0.1347002 
-0.82788014 0.41284224 -0.37970513 
-0.52491605 0.82469136 -0.2105884 
-0.8354693 0.548958 -0.025222486 
-0.9170931 0.3941819 0.059673812 
-0.18868285 0.9613847 -0.20034507 
0.45020148 0.88527644 0.11663756 
-0.021191262 0.962437 0.27067694 
-0.08602865 0.9690703 -0.23130473 
0.004138625 0.33681986 -0.9415601 
-0.5176731 0.3193853 -0.7937302 
-0.17402923 0.46075293 -0.8702992 
0.40895817 -0.15876071 -0.89863694 
0.7833328 0.58682686 -0.20499733 
0.31002042 0.93322587 0.1815952 
-0.56849486 0.8222579 -0.026563035 
0.24639419 0.969168 -0.0018029192 
-0.15460432 0.7864025 0.59805405 
-0.112338066 0.7782996 0.6177621 
0.3455568 0.6995797 -0.6254428 
0.20276801 0.95294 0.2253677 
0.016536979 0.9685764 0.2481662 
-0.5798844 0.8069887 -0.11181838 
-0.5274228 -0.26839834 -0.8060941 
0.191899 0.030728867 -0.9809335 
0.9801158 0.1968413 -0.025030311 
0.8223899 0.5301847 -0.2063471 
0.5035862 0.48330972 0.71610945 
0.52637625 0.6304833 -0.5704551 
0.827447 0.47455072 0.30022186 
0.3079738 0.08521902 0.9475705 
0.30980405 0.8006078 0.5128827 
-0.5131991 0.8580457 -0.019603588 
-0.0016813468 0.46406224 0.8858011 
-0.8462193 0.3317486 0.41696027 
-0.9327797 0.2680559 0.24097307 
-0.71295995 -0.0705534 -0.69764626 
-0.04999341 -0.400464 -0.9149476 
0.8219287 -0.2156687 -0.52718145 
-0.13201198 0.6023041 0.78727543 
0.07304897 0.73252857 -0.6768056 
0.09900048 0.6932789 0.713837 
-0.1651649 0.91905415 0.35785487 
0.23815762 0.5456957 0.80342835 
0.04293895 0.40852642 0.911736 
-0.033939708 0.85709786 0.5140344 
0.4507541 0.07296017 0.8896615 
0.06955936 0.46109173 0.88462204 
-0.9246925 0.3677286 -0.09858729 
-0.8753811 0.35895678 0.3238179 
-0.409768 0.7345797 -0.54081696 
0.29611957 0.950875 0.09027809 
-0.17690496 0.952963 0.24610195 
-0.31231874 0.88197863 0.35294586 
-0.59841675 0.6187893 0.50891775 
-0.3889043 0.52928895 0.75406015 
-0.39904788 0.9148366 -0.061926566 
-0.38648316 0.63054246 0.67308766 
-0.98292655 -0.11384588 0.1445495 
-0.35033455 0.26352096 -0.8987894 
-0.7294462 0.6802561 0.071832545 
-0.529439 0.8382165 0.13071983 
-0.7949422 0.6000466 0.089505486 
-0.7567843 0.64968336 0.07203584 
0.25170416 0.54607284 -0.7990303 
0.1804868 0.68360376 -0.707185 
-0.083450586 0.96149063 -0.26186204 
-0.033820447 0.997781 0.05735297 
0.1063384 0.6890708 0.7168498 
0.0850693 0.6310848 0.77103525 
-0.2045018 0.94625735 0.25055137 
0.48889986 0.86183584 -0.13496707 
0.04184349 0.63323474 -0.7728278 
0.578603 0.8070218 -0.11804469 
0.7381567 0.65848386 0.14670989 
-0.38237858 0.86272365 -0.33089972 
-0.27640322 0.8656632 0.41740683 
0.0039027967 -0.19330631 0.9811307 
0.7454359 -0.6123029 0.26345888 
0.11263504 -0.537868 0.8354708 
-0.41579235 0.8623529 0.28890193 
0.15306683 0.5487457 0.82185686 
0.6235004 0.64142 0.44702092 
0.8623457 -0.2593651 0.4348445 
0.8900434 0.434122 0.13914417 
0.35079965 0.6120014 0.7087976 
0.19293757 0.41376263 0.8897054 
-0.7275091 0.6021664 0.32882556 
-0.50778383 0.7912225 0.34076765 
-0.15940952 0.9782304 -0.1328683 
-0.42077425 0.43834862 0.7942289 
-0.037690148 0.94228154 -0.33269358 
-0.3533697 0.82906324 0.43334058 
0.057417676 0.86103284 -0.5052976 
-0.37807658 0.46961483 0.7978221 
0.44025856 0.8977775 0.012961436 
0.95390445 0.21651623 0.20781516 
0.7089923 0.24351622 0.6618382 
0.5397942 0.6538181 0.53023046 
0.6922102 0.62382203 0.36289266 
0.3426714 0.92005986 0.189911 
-0.57509124 0.81775 0.023560336 
0.27980706 0.9577729 -0.066176206 
0.086295344 0.26998508 -0.95898974 
0.8751111 0.3411883 -0.343178 
0.93391824 0.35323912 -0.054945473 
0.73395216 0.20170686 0.6485589 
-0.27522558 -0.060294643 0.9594871 
0.21882354 0.34331676 0.9133729 
-0.1180808 0.6599815 0.7419443 
0.18121773 0.5230248 0.83282965 
0.97923565 0.16766399 0.11395813 
0.72900367 0.671529 0.13267432 
-0.2755508 0.62666535 0.72894603 
-0.19042027 0.40185168 0.8956871 
-0.27744505 0.54685974 0.78991693 
0.048664734 0.9626879 0.2662025 
-0.8989697 -0.43281457 0.06726968 
-0.99917454 0.03164147 -0.025478182 
-0.77083474 0.45900244 -0.44173583 
0.64439434 0.73440903 -0.21307138 
0.96873564 0.24227531 0.053423777 
0.6907375 0.66698635 0.27930465 
0.82720417 0.5618935 -0.002995673 
0.7070895 0.37570822 0.5990558 
0.07385775 0.7936947 0.6038161 
-0.4764848 0.84487176 0.24321578 
0.057265006 0.99694514 0.053114887 
-0.23171225 0.82720715 -0.5118964 
0.6319527 0.7617885 0.14252782 
-0.02117634 0.9390335 0.3431729 
-0.33523625 0.9293203 0.15485688 
-0.21948291 0.9362142 0.27446353 
-0.17164701 0.9696226 -0.1742683 
-0.066914566 0.7942616 -0.6038801 
0.052672677 0.79687613 0.6018423 
-0.9628564 0.24780077 0.107249334 
-0.8940761 0.4064436 0.18823287 
-0.8488552 0.16469204 0.50231606 
0.5721835 0.61018205 0.54798174 
0.4295226 0.4052223 0.80703485 
0.37335828 0.33640617 0.86454296 
-0.15745321 0.22406048 0.9617721 
-0.39425972 0.31560838 0.8631052 
-0.48342663 0.60014844 0.6372759 
0.4665026 0.14074412 0.87325054 
0.042560145 -0.59013695 0.8061806 
-0.26303715 -0.2025676 0.9432804 
-0.41242978 0.14446805 0.89946127 
-0.582964 0.41103393 0.70085955 
-0.74776673 0.48088545 0.4578147 
-0.97968143 0.11265658 0.16593021 
-0.61791986 -0.10646028 0.7790003 
-0.6843075 0.6109019 0.3981484 
-0.4038413 0.7837714 0.4718207 
0.6008337 0.6718264 0.43318388 
-0.3309188 0.41802567 0.8460186 
-0.5238287 0.0618461 0.8495756 
-0.4432628 0.4024963 0.8009463 
-0.20070876 0.484638 0.8513766 
0.40677872 0.91312283 0.027160678 
0.5739977 0.8154697 0.074403785 
0.48129594 0.87529093 -0.047118284 
0.69948363 0.71059155 -0.07604228 
-0.2582788 0.7767032 0.57447755 
0.6560549 0.6832159 0.32063705 
0.66065323 0.14989042 0.7355748 
0.4660954 0.52789134 0.70999 
0.32879204 0.5066806 0.796976 
0.84899914 -0.24725617 0.46697432 
0.97481626 -0.059112735 0.21503274 
-0.047739312 0.07445545 0.996081 
-0.1161491 -0.58090127 0.80564463 
-0.6008059 0.7247098 0.3373842 
-0.3759362 0.40185574 0.83497554 
-0.40067354 0.69319403 0.5991184 
-0.85311663 0.0070696725 0.5216724 
-0.64504033 0.76268625 0.047251187 
-0.8951635 0.3799473 -0.23307186 
-0.41740096 0.88031113 0.22545286 
-0.098187335 0.7587871 0.6438955 
0.08675861 0.17770831 0.98025143 
0.5045243 0.6984557 0.50755775 
-0.17219278 0.40979788 0.8957765 
-0.11794965 0.29632682 0.94777554 
-0.50499594 0.5496658 0.66546726 
-0.92824876 0.35533175 -0.10997107 
-0.7126053 0.21796955 0.6668456 
-0.40861657 0.8970478 -0.16833846 
-0.27157024 0.9151537 0.29789832 
-0.38049102 0.70635796 0.5968962 
-0.47690088 0.8722401 -0.108456805 
0.07106846 0.7935591 -0.6043289 
0.084006704 0.9861853 -0.14276358 
0.11939824 0.98374313 -0.13414009 
-0.34495515 0.88582754 -0.3103474 
-0.52752 0.80376995 0.27509373 
-0.07018634 0.8216625 0.56563646 
-0.41839465 0.8266305 -0.37633485 
0.6729153 0.47397754 0.56791764 
0.4387557 -0.10837934 0.89204675 
0.25182357 -0.23627898 0.93848664 
-0.3953162 -0.13261424 0.90892166 
-0.8080498 -0.42305592 0.4099748 
-0.53590024 0.5894685 0.60443187 
-0.7261432 -0.23967525 0.644416 
-0.7933514 -0.21244775 0.57049066 
-0.74265385 -0.3170317 0.5898781 
-0.40821302 -0.53624195 0.7387874 
0.31149554 -0.1172842 0.94298196 
0.7492694 0.048516482 0.6604858 
0.4284135 -0.60562795 0.6705794 
0.45976627 0.13576305 0.8776009 
-0.053663038 -0.62123114 0.7817879 
0.10238987 0.39863247 0.91137725 
0.5705342 0.06668386 0.8185621 
0.36866748 -0.2372128 0.89878494 
0.13371694 0.08712008 0.9871828 
0.5428068 0.026545754 0.839438 
0.36342508 0.03021695 0.9311333 
0.50744015 0.02396927 0.8613536 
0.456942 0.14907311 0.87691575 
-0.28586048 0.40542772 0.86828125 
0.07874031 0.006149412 0.9968762 
-0.5736696 0.5710607 0.5871906 
-0.65644497 0.71337426 -0.24531062 
-0.857678 0.5075535 -0.082328774 
-0.7658447 0.6413808 -0.045965232 
-0.33869198 0.83528674 -0.43310958 
-0.0814891 0.90390426 0.4199009 
-0.7382537 0.5407237 0.40323615 
-0.32833987 0.51218444 0.7936373 
0.27399352 0.72131497 0.6361072 
0.21678278 -0.67970663 0.7007169 
0.5391583 0.391043 0.74591804 
0.5693567 0.48312828 0.66514665 
0.2185809 0.57066077 0.79156095 
0.10880426 0.63343036 0.7661121 
-0.16278374 -0.26694587 0.94986385 
-0.5054826 -0.16927412 0.84606963 
0.09837434 -0.39845338 0.91189766 
-0.65450877 -0.30491915 0.6918401 
-0.83988106 0.20315109 0.5033185 
-0.5680122 0.8114261 0.13765866 
-0.78515345 0.5902813 -0.18735518 
-0.60522914 0.6838356 0.40751263 
0.06429079 -0.022974474 0.9976667 
0.22958727 -0.15762724 0.96043915 
-0.11414295 -0.04305222 0.9925311 
-0.30707762 -0.16697863 0.9369213 
-0.69810116 -0.25017256 0.6708715 
0.31020826 0.5911851 0.74449384 
0.56548345 0.08599798 0.8202639 
0.40261516 0.12645571 0.90659255 
-0.30861562 0.6937137 0.65078235 
0.2692752 0.037072174 0.96234953 
-0.6864936 0.39248422 0.6121134 
-0.74563557 0.22152446 0.6284541 
-0.65822786 0.6782944 -0.32657743 
-0.84338576 0.5191113 -0.13865073 
-0.09308581 0.8763255 -0.47264034 
0.8917985 0.4362207 0.120029 
0.3384388 0.77995116 0.5264364 
-0.087015264 0.9587651 0.27055126 
-0.6647722 0.7413914 0.0917429 
0.08045913 0.8565424 -0.5097663 
-0.4267564 0.65738434 -0.62106746 
-0.36530337 0.6367104 -0.6790827 
-0.10060141 0.5460009 -0.8317226 
0.8890343 0.32273525 0.32474622 
-0.0005911227 0.9511712 0.30866343 
0.2078097 0.9781229 0.009527805 
-0.2216218 0.9184579 0.3275956 
-0.405901 0.27943277 0.8701504 
-0.4545811 0.052421797 0.88916135 
-0.435548 0.68595624 0.58289117 
-0.32956043 0.8294037 0.45108703 
0.43104473 0.8952027 0.11319242 
-0.108735286 0.86001724 0.49854502 
-0.4005314 0.9148908 0.050493512 
0.04296284 -0.1759133 -0.9834677 
0.2736281 0.6872549 -0.67291045 
0.5703898 0.8213333 -0.008190337 
0.48266664 0.87532866 -0.028857687 
0.5955154 0.8028724 -0.027521627 
0.4189921 0.8917267 0.1710825 
0.6008487 0.26189622 0.7552426 
-0.13916469 0.6653802 0.73341835 
-0.31474024 0.4972197 0.8085241 
0.21972026 0.5654397 0.79498494 
-0.22583881 0.6933777 0.68426913 
-0.019689778 0.43646595 0.8995053 
-0.55534905 0.5329168 0.6384256 
0.14849062 0.63493407 0.7581619 
0.2569725 0.964136 -0.066385016 
0.19752145 0.67812866 -0.70790315 
0.33697665 0.9411201 -0.027199281 
0.2319001 0.5677335 0.789874 
0.43707395 0.28314242 0.85369587 
0.11700025 0.71499115 0.689274 
0.036429204 0.68388516 0.7286797 
0.36426014 0.64112604 0.67547905 
0.247028 0.62533987 0.74022114 
-0.30727968 0.28488663 0.90797514 
-0.66426295 0.74686295 0.030832095 
-0.8286265 0.3419463 0.44322762 
-0.7357922 0.6228733 0.26577955 
-0.03769918 0.9718538 -0.23254915 
0.24463274 0.91764355 0.3131855 
0.78400147 0.12767968 0.60748637 
0.5071603 0.69190466 0.5138642 
0.24577995 0.77795666 0.57825226 
-0.19499935 0.96581763 0.17079666 
-0.36355415 0.49980706 0.7861433 
-0.40902236 0.54469186 0.73212814 
-0.627933 0.73066175 0.26801798 
-0.517671 0.66241354 0.5415028 
-0.20021251 0.97418535 0.10429765 
-0.23604724 0.96713823 0.09447463 
-0.6954976 0.64426553 0.31812748 
-0.15777919 0.91444886 -0.37267822 
-0.06371693 0.9969098 -0.045947198 
0.25408757 0.9654531 -0.05779225 
0.25513285 0.93873245 0.2317083 
0.7525351 0.15117642 0.6409654 
0.0048198816 0.669782 0.7425422 
-0.33654836 0.8610949 0.38111773 
-0.44077092 0.3078072 0.84319377 
-0.040183797 0.94094646 0.3361622 
0.3668435 0.87949854 0.30316374 
-0.28052354 0.9452404 0.16681537 
-0.09155976 0.6325338 0.76910204 
-0.46642452 0.6685034 0.57926804 
0.18284075 -0.12209209 0.9755321 
0.842949 -0.027678676 0.537281 
0.2924752 -0.6354117 0.7146401 
-0.15931353 0.13924068 0.9773593 
-0.008146191 0.29380637 0.9558303 
0.41201636 0.47779745 0.7758558 
0.61081964 0.3580117 0.70620614 
0.031124748 0.98854 0.14771606 
-0.07366161 0.83223337 0.5495103 
0.3800453 0.32423255 0.8662787 
0.116652235 0.2401446 0.9637027 
-0.41084942 0.61740094 0.6708344 
-0.39973316 0.78708166 0.4698041 
-0.5502154 0.82648134 0.119129 
-0.57840526 0.38778186 0.7176856 
-0.32383436 0.8812695 0.34423152 
-0.07124575 0.82428044 0.5616813 
-0.33772436 0.6096993 0.7170837 
-0.5872042 0.8090601 0.024761932 
0.4713919 0.8815763 0.024758067 
0.6839687 0.67095053 0.28637785 
0.2929666 0.6700364 0.68207175 
0.2462962 0.5515215 0.7969707 
-0.20295167 0.5623491 0.8016072 
-0.024427671 0.9992202 0.031024244 
0.5868146 0.7697873 -0.25115004 
0.7287477 0.657294 0.19207159 
0.6692883 0.22233595 0.708957 
0.8078732 0.4582875 0.37055847 
0.67977625 -0.33960637 0.6500552 
0.4717445 -0.5428924 0.6947841 
0.12200006 -0.16763864 0.9782706 
0.27093828 0.19091703 0.943474 
0.16956791 0.64018136 0.7492761 
0.5066608 0.44280842 0.73974025 
0.3238352 0.47857672 0.8161465 
-0.08296462 0.038938798 0.99579155 
0.046574544 0.4186466 0.90695417 
-0.014851636 0.7107773 0.7032604 
-0.48030332 0.84354913 0.24027844 
-0.5927932 0.4886744 -0.64015114 
-0.3196997 0.6480029 -0.69129175 
-0.07855844 0.7638468 -0.64059865 
0.4213924 0.86186934 -0.28215203 
0.7042552 0.6864912 -0.18098217 
0.62449515 0.7659811 -0.15257421 
0.8011611 0.5773531 -0.15749359 
0.75202054 0.08328846 0.6538564 
0.26290223 0.11133034 0.9583778 
0.3001757 0.5980793 -0.74309874 
-0.073717095 0.9882597 0.1338236 
0.028424185 0.9828351 0.18228331 
0.5944567 0.735819 0.32433268 
0.49507213 0.5587719 0.66534024 
-0.46571603 0.67787486 0.5688535 
0.008480773 0.5831923 0.81228995 
-0.5518967 0.83231616 0.051574852 
-0.22248076 0.9748664 -0.011742953 
-0.014466029 0.9034561 0.42843676 
-0.7559713 0.38920265 0.5263352 
-0.27164367 0.7294238 0.6278142 
-0.8233679 0.33656633 -0.4569337 
0.7302568 0.16768385 0.66227424 
0.0356559 0.032697324 0.99882907 
0.43259957 -0.19427711 0.88040566 
0.24644582 -0.67242825 0.69792897 
0.23960748 -0.41624328 0.8771144 
-0.0874313 -0.020387597 0.9959619 
-0.053593956 -0.5627548 0.82488465 
-0.1004486 -0.4111004 0.90603906 
-0.061670445 -0.40828612 0.9107685 
-0.61919534 -0.24779755 0.74511313 
-0.802843 0.10150966 0.5874854 
-0.02134273 -0.442389 0.89656925 
0.2801677 0.4973651 0.82105666 
-0.65139765 0.27664047 0.7065064 
-0.41241723 0.5653495 0.7143473 
0.72844255 0.5926599 0.34369436 
0.66056895 0.5314991 0.53024274 
-0.05212194 0.6619366 0.74774545 
-0.14811032 0.22017343 0.9641509 
-0.58873516 0.5245125 0.61504275 
-0.24726357 0.19342066 0.9494468 
-0.12622948 0.9919878 -0.0051449225 
0.63680863 0.7658682 -0.08899915 
0.254311 0.87748647 0.40662447 
-0.11887024 0.74609786 0.65513957 
-0.66323173 0.52610683 0.5322926 
0.043652613 0.8292732 0.557136 
0.54920244 0.0006177825 0.8356892 
0.49498317 0.29047573 0.81891125 
-0.19232425 0.6562897 0.7295857 
-0.32077548 -0.044470407 0.9461107 
0.30027285 -0.47618333 0.82649 
-0.123205766 0.30784056 0.943427 
-0.4242412 0.13327704 0.8956878 
-0.2750247 0.72139513 0.63557106 
-0.3744864 0.8346375 0.40390646 
-0.07592324 0.44669348 0.89145994 
0.18540046 -0.08486827 0.9789913 
-0.05318606 0.3280059 0.94317734 
0.1543778 0.19218008 0.969141 
-0.35138717 0.38949558 0.85136384 
0.5273288 0.8420871 0.11319749 
0.027894279 0.92397106 0.38144374 
0.22828276 0.9557714 0.1854407 
-0.43276787 0.607923 0.66568893 
-0.4914393 0.1920128 0.8494814 
-0.36449924 0.39980668 0.8410083 
-0.42306295 0.87197274 -0.24633606 
-0.05894641 0.9977208 -0.032844815 
0.13762332 0.9878912 0.07163059 
-0.076794416 0.45756558 0.8858535 
-0.12291498 0.086052895 0.98867935 
-0.43497288 0.6957366 0.5716198 
0.120814465 0.91733617 0.37933925 
-0.2076956 0.9780257 -0.018118411 
0.11969972 0.8284061 0.5471885 
-0.364994 0.90807533 -0.2053746 
0.2697933 0.7883831 -0.5528686 
-0.6118967 0.6675003 -0.4242944 
-0.39073893 0.8757989 -0.2833715 
-0.22090624 0.94698524 0.23328002 
0.1884945 0.79672045 0.5742008 
0.6238858 -0.2664306 0.73469806 
0.40585586 0.109605744 0.907341 
-0.99766123 0.06814242 -0.005360903 
-0.5592733 0.5700051 0.6019199 
-0.8374695 0.16035935 0.52242684 
-0.932101 -0.17996165 0.31432715 
-0.46638533 -0.7307813 0.4984411 
-0.34026697 -0.4114073 0.84555453 
0.6352022 -0.3156333 0.704907 
0.6358498 -0.50781757 0.5812198 
0.5767052 -0.7524614 0.31813976 
0.6603884 -0.41494334 0.6258668 
-0.146274 -0.63887465 0.755277 
0.052901164 -0.7429982 0.6671995 
0.5561382 -0.6063259 0.5684006 
0.6086813 0.17583022 0.7736865 
0.31026143 -0.35290676 0.8827201 
0.85225123 0.21057425 0.47888047 
0.46228504 -0.0682059 0.8841044 
0.15667142 -0.5514933 0.81933457 
0.1371608 -0.21843216 0.96616477 
0.008127034 -0.008204406 0.99993336 
-0.014880718 0.2506922 0.96795255 
-0.16246982 0.26107132 0.95154893 
0.16009867 0.38336837 0.9096137 
-0.37308198 0.5587101 0.74071115 
-0.48015365 0.6142136 0.62625414 
-0.77917445 0.2503214 0.57465327 
-0.29117414 0.87580687 0.38494176 
-0.32895702 0.6848738 0.6501809 
0.29646197 0.25586936 0.920131 
0.31866023 0.5411186 0.77823293 
0.2624488 0.6628198 0.70127785 
-0.06924758 0.6086642 0.7904004 
0.5737834 -0.035784785 0.8182249 
-0.398669 0.31553838 0.8611031 
-0.82758486 -0.09951287 0.5524496 
-0.24324803 0.14789847 0.95862216 
-0.36151236 0.009824976 0.93231565 
-0.49379885 -0.47023255 0.73146707 
-0.5784509 -0.601318 0.55119073 
-0.6419117 -0.28625807 0.7113408 
-0.6913199 0.2020514 0.6937234 
-0.6807408 0.6193924 0.39108187 
-0.07236363 0.9972824 -0.013832806 
0.4960421 -0.097919196 0.86275965 
0.43890733 0.040456012 0.89762115 
0.5016145 0.02070861 0.86484337 
-0.8278414 0.30029434 0.47381648 
-0.55553013 0.36430135 0.74744284 
-0.14597501 0.28575605 0.94711924 
-0.6285301 0.40089157 0.6665102 
-0.22243536 0.2636985 0.9386084 
-0.06892695 0.54649514 0.834621 
-0.045779552 0.28848404 0.95638967 
-0.41140696 0.076334976 0.9082496 
-0.62046045 0.35479185 0.6993938 
-0.48815674 0.71514124 0.500276 
-0.69948703 0.71253616 0.054865863 
0.14955382 0.8876871 0.43548283 
-0.5628682 0.3651778 0.7415016 
-0.4026934 0.77498806 0.48706412 
-0.66985834 0.49200702 -0.5560746 
-0.18258898 0.98131496 -0.060682375 
0.12091516 0.9498995 -0.2882197 
-0.6183354 0.7292327 -0.2930547 
-0.21268776 0.2181819 -0.95244986 
-0.06839832 0.92307764 -0.37848306 
0.6580381 0.7529627 -0.0057652136 
0.67573506 0.734631 -0.060823716 
0.4041487 0.9134031 0.04856633 
0.29945526 0.8324394 0.46623093 
-0.6229326 0.32482857 0.71164703 
-0.5770671 0.7922287 0.19841227 
-0.14578375 0.82572997 0.54490125 
0.17582357 0.16448626 0.97058254 
-0.27575004 0.21332228 0.9372596 
0.10430251 0.7172878 0.68892616 
-0.69265825 0.70848686 0.1351704 
-0.321006 0.795308 -0.5142376 
-0.27152604 0.66127586 -0.69927675 
0.6468363 0.7139415 0.268124 
0.0041924235 0.20878272 0.97795314 
-0.18035114 0.8250281 0.53553903 
0.35573587 0.6140061 0.7045911 
0.35225034 0.6510351 0.6723638 
0.04816522 0.786555 0.6156391 
-0.021215161 0.24820115 0.96847624 
0.30715564 0.030589435 0.95116764 
-0.017813371 -0.040538482 0.9990192 
-0.008198882 0.36343104 0.9315851 
0.025344657 0.5317766 0.84650546 
-0.045442354 0.41510528 0.90863776 
-0.5303216 0.8198104 0.21603228 
0.49352744 0.7978942 0.34611502 
0.0011945909 0.7222049 0.6916781 
0.2980026 0.109317854 0.9482848 
-0.14804372 0.3082818 0.93970495 
0.11964504 0.57093114 0.81223315 
0.33495745 0.6645772 0.6679377 
0.16020645 0.86981064 0.4666513 
0.4123402 0.7923474 0.44962344 
-0.5602075 0.29174504 0.7752757 
-0.6837292 0.22734216 0.6934191 
-0.5878222 0.1443762 0.7960029 
-0.4133375 0.36238715 0.8353609 
0.3257104 0.8763367 0.35489008 
0.18611784 0.5095178 0.84009045 
0.5708932 -8.5247244e-05 0.82102436 
0.50166035 -0.35156423 0.7904047 
0.15770268 0.022646336 0.987227 
-0.32824597 -0.053159777 0.9430953 
-0.5178234 0.47042784 0.7145325 
0.15320022 0.4597541 0.8747319 
-0.9601928 -0.04769785 0.27523598 
-0.9543118 0.22909749 0.19184223 
-0.8536728 0.5181714 -0.052358024 
-0.5345345 0.82063496 0.20206761 
-0.54966474 0.83538103 -0.0027018255 
0.05760791 0.99558794 0.074068554 
0.5990507 0.78984493 0.13146596 
0.6482903 0.05597686 0.7593328 
0.4913495 0.45250863 0.7441852 
-0.16638798 0.5116666 0.842919 
-0.536574 0.502432 0.67797536 
-0.51978594 0.31925032 0.7924025 
-0.30317938 0.18822858 0.9341586 
-0.25303864 0.40007645 0.8808577 
-0.38700905 -0.16610727 0.9069908 
-0.55661774 0.6479671 0.51991874 
-0.57213354 0.38222495 0.72564965 
0.12711577 0.10388352 0.98643285 
-0.55016965 0.3092657 0.77567273 
0.36450595 0.5659438 0.7394885 
0.01746786 -0.016029645 0.9997189 
0.10724353 -0.37290117 0.9216527 
-0.33045298 -0.02350149 0.94352984 
0.20519298 0.57873815 0.78927684 
0.83418596 0.33687863 0.43663117 
0.6263993 0.5756783 0.525565 
0.6806578 0.43154588 0.5920078 
0.69231683 0.56073993 0.4541676 
0.1255517 0.22471747 0.9663017 
0.38737997 0.77612054 0.49756792 
-0.30830443 0.7560722 0.5773242 
-0.44792372 0.5792169 0.6810817 
-0.61177284 0.32021075 0.7233251 
-0.51540726 0.5945113 0.61718047 
-0.3187479 0.67427355 0.6661494 
-0.29312697 0.66311073 0.6887386 
-0.11547736 0.98446834 -0.13223954 
0.49555105 0.52471006 0.69217664 
0.628229 0.3210509 0.70869935 
0.60065085 -0.19779792 0.7746577 
0.19173105 0.3411587 0.9202445 
0.20347238 0.4851455 0.85043097 
-0.16405883 0.83342475 0.52771956 
0.21628104 0.7245296 0.6544306 
0.79214 0.28536493 0.53951937 
0.94089 -0.047172274 0.3354114 
0.7295641 0.5411341 0.4182227 
0.091586076 0.25284806 0.9631614 
-0.20071167 -0.27910048 0.9390516 
-0.25659883 0.111346565 0.9600828 
-0.40984133 0.5737007 0.70915276 
-0.6953156 0.7177605 0.03682598 
0.60859334 0.16641305 0.77583563 
0.19925028 -0.16768791 0.96549475 
-0.23382874 0.20313704 0.95082045 
-0.22215399 -0.053638436 0.9735351 
-0.8405369 0.29636332 0.4535048 
-0.5207194 0.66289747 0.53797615 
0.111782685 0.9767248 0.18306656 
-0.01738295 0.9953209 -0.09504787 
-0.1022283 0.9192745 -0.38011044 
0.6374262 0.73520017 -0.23058313 
0.822784 0.554163 -0.12621416 
0.67838836 0.04050044 0.73358643 
0.71010876 0.20068955 0.6748847 
0.6067827 0.43064559 0.6681012 
0.59196836 0.7366657 0.32695135 
0.68154514 0.45042494 0.57672673 
0.4164418 0.5197693 0.7459331 
0.62401545 0.6291444 0.4634459 
-0.36016142 0.3768727 0.85337615 
-0.8411878 0.2766522 0.46461484 
-0.436283 0.79883325 0.41415313 
-0.0863236 0.6297844 0.7719585 
-0.59774345 0.61378056 0.5157289 
-0.5985299 0.791998 -0.12042112 
-0.3903979 0.6334754 0.66805565 
-0.69562435 0.52862275 0.486482 
-0.73206073 0.66143066 -0.16308457 
-0.83884233 0.5392819 -0.074287355 
0.16298808 0.36459947 0.916789 
0.1281448 0.22663401 0.9655133 
0.20262696 0.2471891 0.94754416 
0.702673 0.6278052 0.3348304 
0.17518388 0.76078427 0.6249144 
0.3742605 -0.22182222 0.9004022 
0.09759999 -0.70260096 0.70485896 
-0.43115684 -0.32027838 0.8435198 
-0.6423436 0.24336351 0.72675234 
-0.5738769 -0.653096 0.49409616 
-0.7033723 -0.19252478 0.6842526 
-0.37605864 -0.44723794 0.811516 
0.21171987 -0.5307063 0.8206861 
-0.19110617 0.20120104 0.9607272 
-0.16514412 0.5711227 0.804081 
0.14752585 0.86089116 0.48693183 
0.3720451 0.8449218 0.3843038 
0.38143802 0.51253504 0.7692939 
-0.08724351 0.8449254 0.5277211 
-0.38747132 0.52437085 0.75822246 
-0.24458627 0.63771135 0.73041207 
0.20045617 0.90203774 0.38228968 
0.23804231 0.91733265 0.31911868 
-0.6598038 0.29385492 0.6915984 
0.20448098 0.17307706 0.963448 
-0.16359122 0.62200737 0.7657315 
0.042468112 0.79176885 0.6093427 
0.29784143 0.13616171 0.9448548 
0.9585628 -0.045513805 0.28122225 
0.17402904 0.48210606 0.8586546 
-0.6151373 -0.05485283 0.78650963 
-0.37686482 0.6104131 0.69668424 
0.15733875 0.5675356 0.8081758 
-0.16452567 0.3155538 0.93453574 
-0.20873521 0.91088253 0.35598126 
0.08360773 0.7651798 0.63836485 
0.26282308 0.52382874 0.810264 
0.1429604 -0.43905014 0.88701606 
-0.5463626 0.12894283 0.8275638 
0.17379542 -0.017125223 0.98463285 
0.13006608 0.25868642 0.95716465 
-0.08332549 0.36800474 0.9260828 
-0.27643523 0.746311 0.6054779 
-0.28882977 0.90625525 0.30867255 
-0.4457425 0.326668 0.8334278 
-0.3296428 -0.21860538 0.9184483 
-0.6562268 0.65930533 0.36699176 
-0.558058 0.7223088 0.40846214 
0.68661577 0.67525125 0.26943412 
0.5729081 0.39759445 0.7167252 
0.1672796 0.26475143 0.949697 
-0.1982616 0.1203558 0.9727317 
0.021019181 0.5337557 0.8453774 
-0.2652453 0.4928581 0.82869524 
-0.030276762 0.465752 0.88439715 
-0.17907622 0.5519745 0.81440526 
0.16178858 0.9728461 0.16551441 
0.1745139 0.9459808 -0.27324954 
0.13662107 0.8839104 -0.4472551 
-0.0547705 0.96947134 0.23900996 
0.23422572 0.9491409 0.21040405 
-0.030793745 -0.33725047 0.9409112 
0.2960102 0.09849593 0.950093 
0.7625605 0.048908394 0.64506555 
0.4746958 0.3801548 0.7938175 
-0.38270283 0.8506358 0.36049607 
-0.9641664 -0.26439863 0.021829965 
-0.846494 -0.4577892 0.2718031 
0.06849222 -0.96684074 -0.24602433 
-0.526343 -0.8502554 0.005367431 
-0.69964296 -0.7141819 -0.021071434 
0.15433846 -0.96639836 0.20555782 
0.52421933 -0.47448832 0.70714563 
0.47084156 -0.84891677 0.24010117 
0.48688504 -0.24761857 0.8376325 
0.7804843 -0.21511208 0.5870019 
0.08274956 -0.3449865 0.93495286 
0.19185497 -0.39621472 0.8978895 
0.15383117 -0.69507974 0.70228213 
0.2183067 -0.060405597 0.9740089 
0.21959999 0.29030043 0.9313977 
0.07684578 0.0870647 0.9932344 
0.17715815 0.15529856 0.97185254 
0.027076282 -0.33521128 0.9417538 
-0.15766731 -0.10738435 0.9816363 
-0.023509417 0.14821191 0.9886762 
-0.42803395 0.22452587 0.8754285 
-0.55003357 0.7306171 0.4045513 
-0.7037639 0.40103602 0.58641845 
-0.73324966 0.61803013 0.28352037 
-0.7241778 0.2942298 0.62369496 
-0.30974925 0.022154668 0.95056015 
-0.50075316 -0.43073717 0.75080746 
0.45796102 -0.03078961 0.8884389 
-0.09981743 -0.31354424 0.94431275 
-0.11551612 0.8315394 0.5433215 
0.021344561 -0.10813071 0.9939076 
-0.434565 -0.46301812 0.7725073 
-0.7784965 -0.60600215 0.16341539 
-0.8827085 0.20027837 0.42510512 
-0.053976342 0.9800222 0.19142379 
-0.32343528 0.4040259 0.85565925 
-0.26088262 0.6175262 0.7420255 
-0.98185664 0.13024996 0.13781318 
-0.76939493 0.44701204 0.4563023 
-0.29814008 0.9351099 0.19152553 