# OOMMF: rectangular mesh v1.0
# Segment count: 1
# Begin: Segment
# Begin: Header
# Desc: Time (s) :  1.4199999999999992e-07
# Title: m
# meshtype: rectangular
# meshunit: m
# xbase: 2e-09
# ybase: 2e-09
# zbase: 5e-10
# xstepsize: 4e-09
# ystepsize: 4e-09
# zstepsize: 1e-09
# xmin: 0
# ymin: 0
# zmin: 0
# xmax: 1.024e-06
# ymax: 1.024e-06
# zmax: 1e-09
# xnodes: 256
# ynodes: 256
# znodes: 1
# ValueRangeMinMag: 1e-08
# ValueRangeMaxMag: 1
# valueunit: 
# valuemultiplier: 1
# End: Header
# Begin: Data Text
-0.9644303 -0.17021921 0.20223692 
-0.5553775 -0.067138895 0.82888377 
-0.43265146 0.11141253 0.8946508 
-0.40657812 0.65485317 0.6370727 
0.07878598 0.277374 0.9575262 
0.05477741 0.9736829 0.22122662 
-0.036799192 0.9287749 0.36881328 
0.032253254 0.9982035 -0.050492268 
0.40602776 0.9100855 0.08298171 
-0.22717273 0.7697976 -0.59649324 
0.15003407 0.68143564 0.7163346 
-0.650868 0.7527579 -0.09862248 
-0.6804832 0.48643526 0.5480178 
0.10414857 0.48033956 0.8708772 
-0.035470627 0.93270224 0.35889897 
-0.29232463 0.5458176 0.7852575 
-0.6435698 0.69212526 0.32677314 
0.15140419 0.9646239 0.21581823 
0.03531396 0.6722019 0.73952526 
0.35357434 0.6623369 0.66052645 
0.5224149 0.74467057 0.41538957 
0.26392305 0.9267702 -0.2672858 
0.1950664 0.5781093 0.7922997 
-0.37670153 0.45264074 0.80821556 
-0.7945673 0.4508997 0.40663528 
0.14217058 0.83732283 0.52789956 
0.20020993 0.97974306 0.0044400673 
0.31020954 0.94760305 0.07627943 
0.24427462 0.9460795 0.21275228 
0.7891862 0.5298896 0.31048706 
0.9088111 0.3012887 0.28859586 
0.2586996 0.8586041 -0.44257623 
0.2688376 0.90891004 -0.3187614 
0.72225004 0.6851013 -0.09482176 
0.8909408 -0.18811902 -0.41332287 
0.9688261 -0.21788666 -0.117904365 
0.9646634 -0.15297161 0.2145328 
0.8046273 0.58053994 0.12469341 
0.28198037 0.87478715 0.39399827 
0.27914354 0.8845706 0.37364942 
0.6072459 0.47424677 0.6374499 
0.2711326 0.2578032 0.92737514 
-0.41619727 0.89229167 0.17491546 
0.27935418 0.89271885 -0.35357365 
-0.5379459 -0.0068582897 -0.8429514 
-0.5182614 0.71587396 0.4678992 
-0.12860854 0.9914974 0.019821301 
0.57847 0.8038235 -0.13870977 
0.405457 0.6679152 0.62409455 
0.3253136 0.6069189 0.7251349 
0.09646351 -0.15483418 0.9832198 
-0.94396335 0.29329163 0.15137124 
-0.9650143 0.23573616 0.11478675 
-0.90053135 0.43120763 0.055707008 
-0.8699333 -0.36822152 -0.3280686 
0.47758362 0.30320528 -0.8246094 
0.81791097 0.48694953 -0.30643412 
0.64168495 0.76654804 -0.025391085 
0.88215137 0.4004162 0.2479433 
0.94493085 0.1933152 0.26407403 
0.9697009 -0.21487372 -0.11623021 
0.6257986 0.5688428 0.53366095 
0.15595819 0.89267606 0.42285508 
0.50659597 0.7445884 0.43468234 
-0.3872126 0.5372217 0.74930584 
-0.57320535 0.5970888 0.56117785 
0.120044544 0.62573963 0.7707394 
-0.31163603 0.80141145 0.5105123 
-0.10291059 0.37903076 0.91964406 
0.19511278 0.9802276 0.032938007 
0.16614231 0.49027777 0.85558426 
-0.8688875 0.37626994 0.3216452 
-0.44618478 0.57671005 0.68434256 
-0.3215478 0.8810262 -0.3469868 
0.014917682 0.9996304 0.022731302 
-0.7808499 0.5308636 -0.32932878 
-0.5655436 0.6152224 -0.5492375 
0.8948905 0.36862746 -0.25156492 
0.59736353 0.577353 0.5566152 
0.28181383 0.60056365 0.7482676 
0.26524237 0.63042694 0.7295262 
0.27216855 0.9509869 -0.14679344 
0.36745217 0.6828503 -0.6314226 
0.56773937 0.8033566 0.17969488 
0.27376026 0.95744973 -0.09135362 
0.09777272 0.940145 -0.3264475 
0.14386164 0.90950006 0.39001733 
-0.8040221 0.31589907 0.50374246 
-0.468619 0.5833569 0.66339356 
0.3005167 0.67012465 0.6786919 
-0.043424208 0.6244372 0.779867 
-0.71645933 0.6951919 -0.058260344 
-0.65706724 0.7451737 0.11392475 
0.12851207 0.73154867 0.66956794 
0.040993836 0.21074712 0.97668076 
-0.60609865 0.45644787 0.651383 
-0.20238766 0.97848326 -0.040122334 
-0.0004672113 0.4803383 0.8770833 
0.25785926 0.28719443 0.9225119 
-0.045568347 -0.15562755 0.9867642 
-0.41024098 0.82933426 0.37935117 
-0.5937559 0.6800544 -0.43009287 
-0.15342048 0.96012616 0.23370935 
-0.37135276 0.92647237 -0.06120696 
-0.54322976 0.8284113 0.13651428 
-0.75201046 0.65853906 0.028402612 
-0.6223352 0.559123 0.547796 
0.49549535 0.8667667 0.05656742 
0.41399488 0.79811126 0.4377521 
0.04703467 0.5574394 0.82888424 
-0.24169527 0.74656403 -0.61985934 
-0.04244113 0.85431474 -0.51802045 
0.3710599 0.36311463 -0.85467094 
0.9855522 0.038653824 0.16490239 
0.6911383 0.705041 -0.15888683 
0.39870325 0.88408667 0.2437755 
0.3300186 0.93575984 -0.124263346 
-0.038305435 0.9854289 -0.16571826 
0.059182737 0.95626855 0.28644007 
0.38843673 0.8563087 -0.3403709 
0.26095888 0.8466839 -0.46370986 
0.05117972 0.9012133 0.43034336 
-0.00045590493 0.6516562 0.7585144 
-0.86216825 0.5052812 0.036835544 
-0.83273166 0.14970888 0.53305274 
-0.13242124 0.63457614 0.7614314 
0.007185057 0.54684174 0.8372053 
0.2670165 0.52491164 0.8081894 
0.104655825 0.9293624 0.35402367 
0.099533774 0.9948723 0.017952409 
-0.8012826 0.5976357 0.027890626 
-0.5811588 0.7941524 0.17769815 
-0.6845572 0.72860307 0.022782378 
-0.3340837 0.7232022 0.60445565 
0.40757728 0.13561606 -0.90304434 
-0.22425902 0.96421164 0.14143525 
0.08132688 0.9928806 0.08703008 
-0.18659873 0.94253594 0.27714095 
0.2552591 0.9476541 -0.19181883 
-0.12608008 0.2830136 0.95079285 
-0.6991255 0.38013336 0.605576 
0.13944466 0.9862477 0.088717185 
-0.118709765 0.8794235 0.4610014 
-0.6636656 0.6768138 0.3185455 
-0.53654623 0.8195107 0.20129713 
0.22447155 0.7979937 0.55930185 
0.121431075 0.91926086 0.3744518 
-0.05634341 0.89801294 0.43634644 
-0.52581215 0.07838238 0.8469816 
-0.7140378 0.16845597 0.67953855 
-0.8151026 0.5681791 0.11305026 
0.35290658 0.8667497 0.3524231 
-0.09341439 0.7181351 -0.6896055 
-0.47203362 0.5474135 -0.69103026 
0.07836153 0.9949996 0.061930634 
0.2456475 0.9549163 -0.16670997 
-0.026157426 0.95242053 0.3036626 
0.24076748 0.96020937 0.14152443 
0.48601577 0.7372168 0.4693614 
0.040514603 0.7802118 0.6242019 
-0.0060970127 0.9813709 0.19202644 
0.18415743 0.9730759 0.1385976 
-0.23143327 0.9435619 -0.23691705 
0.16364332 0.8835403 -0.43883657 
-0.10040867 0.94296587 -0.3173856 
0.2423772 0.743526 -0.62323546 
0.651839 0.7548553 -0.07279747 
0.7788555 0.5692866 0.2632431 
0.16502422 0.40871406 0.89761907 
0.6661945 0.49934414 0.5539317 
-0.10594247 0.46606347 0.8783855 
-0.61370957 0.59717584 0.51647043 
-0.054744493 0.5642325 0.8237989 
-0.9113932 0.07895308 0.40389237 
-0.31910563 0.7836431 0.5329871 
-0.5551764 0.45362344 0.69714063 
-0.37992287 0.25094056 0.89033 
-0.79479134 0.55729574 -0.24026719 
-0.5276639 0.4789202 0.7015742 
-0.2623787 0.76034373 0.59416753 
-0.4294226 0.8863032 0.17338645 
0.41738635 0.59067273 0.6905755 
0.15294239 0.95159614 0.26659638 
-0.5344039 0.55725217 0.63551754 
0.2016086 0.90973103 0.3629648 
0.3342124 0.072167255 0.93973076 
0.02579323 0.5559878 0.83079016 
-0.14998725 -0.037173778 0.9879888 
0.13274269 0.81228465 0.56795514 
0.4770046 0.5168685 0.7108542 
0.9364275 0.3361791 -0.10043535 
0.9267481 0.3054639 -0.21870016 
0.91645306 0.34085172 0.20960416 
0.43399796 -0.22312365 0.87284684 
0.63129294 0.40460905 0.6616349 
0.7716541 0.23671821 0.59035105 
0.8261014 -0.09356372 0.5557 
0.5162823 -0.32112917 0.79393244 
-0.4125087 0.51664317 0.75027764 
-0.44241944 0.19511592 0.8753255 
-0.37387773 0.6010558 0.70636207 
-0.1540292 0.48672846 0.8598666 
-0.6263555 0.72625834 0.28324488 
-0.17492753 0.983572 -0.04456933 
-0.58470273 -0.18455537 0.78997594 
-0.56414855 0.29974777 0.7693424 
-0.4018464 0.54297745 0.73735684 
-0.87135315 0.34213865 0.35168865 
0.008771804 0.2501866 0.96815795 
-0.20902972 0.75775063 0.6181592 
-0.20942278 0.86654866 0.45302945 
-0.016249748 0.91186845 0.41016084 
0.116161786 0.8851195 0.45063287 
-0.51158947 0.76824534 0.38480574 
-0.6913123 0.58289546 -0.4269898 
-0.31049207 0.9305604 0.1940414 
-0.08152775 0.6446148 0.76014805 
0.029955253 0.92284197 0.38401258 
-0.031883568 0.90741724 0.41901988 
0.23065175 0.43447107 0.87065196 
0.01238124 0.90339506 0.42863038 
-0.5612181 0.62260497 0.5453415 
-0.6025677 0.748214 -0.27764747 
-0.7250497 0.59845597 -0.34081298 
-0.21697098 0.6854367 -0.6950541 
-0.42046294 0.11098472 -0.90049624 
0.8037439 0.3207984 -0.501083 
-0.08429245 0.9154928 -0.39340547 
0.011197624 0.9964839 -0.08303369 
0.28513557 0.6822302 0.6732457 
0.5412834 0.82390296 0.16791762 
0.5051598 0.619816 0.60053456 
0.09642007 0.64235127 0.760321 
-0.5668112 0.23551916 0.7894656 
-0.1883797 -0.4926814 0.84957534 
-0.34265995 -0.061466005 0.93744665 
-0.78391165 0.54668456 0.29431036 
-0.30519912 0.14985216 0.9404243 
-0.60899365 0.40102854 0.68432665 
-0.14264567 0.97022545 0.19574212 
0.53632313 0.8044205 0.25547102 
0.9533909 0.10310567 0.28357562 
0.7531933 0.49522594 0.43295634 
0.74514186 0.18535154 0.6406313 
0.29365936 0.60700846 0.73844767 
0.76722187 0.4263032 0.47920382 
0.5949375 0.6888009 0.4142496 
0.7125794 0.5521085 0.43290508 
-0.011499062 0.5905894 0.80689025 
-0.35566068 0.27372313 0.89363366 
-0.07914575 0.50767595 0.85790515 
0.10600413 0.4379989 0.8927039 
-0.05042628 -0.05539844 0.9971902 
-0.2606171 0.3801731 0.88743865 
-0.91539645 -0.03788807 0.40076673 
-0.8080559 -0.43203062 0.4004938 
-0.7679145 0.5054959 0.39342284 
-0.7035743 0.27847835 0.65378374 
-0.40174642 0.1280206 0.90675837 
-0.5920149 0.6216264 0.51293194 
-0.85439837 0.26416034 0.4474626 
-0.4756963 0.5486507 0.68752855 
-0.61085236 0.5489985 0.5704912 
-0.550255 -0.23732282 0.8005607 
-0.14631535 0.6483152 0.7471809 
-0.6494396 0.75977415 0.031170059 
-0.03126465 0.56246674 0.82622856 
-0.1323198 0.90175855 0.41148883 
-0.116478935 0.91730154 0.38077638 
-0.0032403895 0.3385108 0.94095695 
-0.11382059 0.9138793 -0.3897045 
-0.8442536 0.53467846 -0.03680781 
-0.7688916 0.6392296 0.013837536 
0.34884953 0.9366416 -0.03172707 
0.2574695 0.7444882 0.61599267 
-0.24554402 0.7178418 0.6514686 
0.03817924 0.9070609 0.41926473 
-0.0032163393 0.7189767 0.69502676 
0.0709566 0.685995 0.72413814 
-0.71912986 0.13452262 0.6817301 
-0.7399616 0.66598606 -0.09444286 
-0.12716933 0.9466168 0.2962172 
-0.26854408 0.9607896 0.06904674 
-0.112969324 0.8477434 0.5182367 
-0.1007176 0.98919773 -0.106507204 
0.43368968 0.7818159 0.44797027 
0.23788106 0.6507696 0.7210489 
-0.16246988 0.8967052 0.4117323 
0.52530664 0.8325499 0.17582288 
0.62709045 0.559779 0.5416687 
0.86211324 0.3558447 0.3607427 
0.82584465 -0.11951073 0.55108786 
0.7745642 0.17856579 0.60676575 
0.63321376 0.7736956 0.020869534 
0.46201488 0.8598224 0.2173657 
0.7021253 0.3011315 0.6452441 
0.38709217 0.689273 0.6124235 
-0.041835904 0.5142359 0.85662794 
-0.07916357 0.36466053 0.92776924 
-0.19921304 0.23273426 0.95191854 
-0.24884321 0.9677967 0.038033497 
-0.52427846 0.75663733 0.39068156 
0.023364661 0.7308122 0.6821786 
0.11357725 0.49867 0.8593187 
0.2505989 0.7993791 0.5460708 
-0.51333886 0.58707416 0.625961 
-0.15718295 0.34912077 0.92380095 
-0.41026455 0.4328018 0.80272394 
-0.9234626 0.14088039 0.35688868 
-0.8060165 0.48631072 0.337401 
-0.929439 0.36862987 0.015975192 
0.21557464 0.60180813 -0.76899594 
0.52552027 0.83921444 -0.13981237 
0.56397414 0.69762486 -0.4418742 
0.5075113 0.8371617 0.20394246 
0.4353376 0.46262196 0.7723097 
0.73131645 -0.22864 0.642573 
0.5217819 0.13305072 0.84263945 
-0.013491356 0.7907154 0.61203533 
0.6948221 0.6369669 0.3339094 
0.46694556 0.25153422 0.8477572 
0.30488503 0.008354743 0.9523526 
-0.12558031 0.31759897 0.9398726 
-0.14186272 0.6783387 0.72092414 
0.16264528 0.85178554 0.49800408 
0.4053702 0.72258586 0.55995065 
-0.18244718 0.19976114 0.96270895 
-0.27634174 0.24033691 0.9305233 
-0.7588914 0.60542166 0.23989286 
-0.676428 0.72005516 0.1548085 
-0.87194073 0.4847354 0.06892825 
-0.61888134 0.7293514 -0.29160345 
0.12266648 0.5814985 -0.8042465 
0.30890834 0.923466 -0.22756596 
0.71074337 0.38445023 0.5891026 
0.23999824 0.5314377 0.8123885 
0.104115374 -0.16514596 0.9807583 
0.13056745 0.7629919 0.6330841 
0.3636598 0.92849505 -0.075156756 
0.2737081 0.9008841 0.33688542 
0.25730827 0.7672001 0.5875344 
0.21251844 0.8428044 0.4944864 
0.24753194 0.52480936 0.8144343 
0.37124848 -0.2663651 0.88950783 
-0.3747129 -0.12490929 0.9186882 
-0.24701068 0.51858455 0.8185694 
0.2655476 0.53314567 0.80326843 
-0.20324278 0.874149 0.44108498 
-0.67074674 0.48393768 0.5620527 
-0.22218409 0.50352544 0.83492297 
-0.594635 0.20356469 0.77779865 
-0.20989072 0.49230766 0.84473616 
0.012124141 0.84029996 0.5419863 
-0.13254477 0.33858395 0.931554 
-0.06541381 0.13884598 0.9881513 
-0.54363453 0.05426091 0.83756626 
-0.84168166 0.50888884 0.18056644 
-0.48801005 0.87141734 0.04977997 
-0.29882914 0.8503121 -0.4332095 
-0.15694863 0.9379173 -0.30931893 
-0.38489816 0.92187977 -0.04462191 
-0.8051535 0.47925565 -0.34934515 
-0.14985336 0.98006153 0.13047338 
0.093295045 0.98317426 0.15704903 
0.60347694 0.48641005 0.63183933 
0.24734296 0.6883642 0.6818917 
0.2703262 0.92922187 0.25193366 
0.49228522 0.86898154 -0.05026362 
0.37484184 0.9251745 -0.059547093 
0.7496672 0.5943275 0.29115972 
0.08172702 0.8600777 0.50357455 
0.3035388 0.6828748 0.6644895 
0.3571543 0.59972304 0.7160818 
0.06189495 0.817173 0.57305974 
-0.7576034 0.6281906 0.17723937 
-0.026267465 0.9982466 0.05304535 
0.2924232 0.8466153 -0.44466996 
0.04039291 0.81281227 0.5811237 
-0.02271318 0.6568957 0.7536394 
-0.56377006 0.7244292 0.39669338 
-0.83787864 0.043682147 0.544106 
-0.37154585 0.058891233 0.9265449 
0.59461933 0.7358206 0.32403094 
-0.3086265 0.16944319 0.9359695 
0.4491086 0.43204966 0.78207076 
0.20276803 0.7577312 0.620265 
0.5118823 0.78993696 -0.33760354 
0.20397705 0.97351867 0.103221565 
-0.29204747 0.45844606 0.8393662 
0.21868975 0.9153446 0.3381111 
0.51612264 0.6585582 0.54764813 
0.44106916 0.8801684 -0.1753901 
-0.7562531 0.4630602 -0.46222988 
-0.23229563 0.9555328 -0.18164773 
0.35588259 0.77065206 0.5286238 
0.19203699 0.52824897 0.8270883 
-0.22840233 0.96893775 0.094826385 
0.22910635 0.8402989 0.49133295 
-0.14360034 0.63691974 0.7574379 
-0.88005143 0.47087178 0.061556015 
-0.4685519 0.88311017 0.02399519 
0.032871027 0.7854375 0.61806744 
-0.3226179 0.9039611 0.28066382 
-0.49012008 0.52276623 0.697494 
-0.6337007 -0.59860563 0.48999473 
-0.968905 -0.051956262 0.24191673 
-0.46996817 0.84367913 0.2594907 
-0.40663382 0.8615425 0.3039627 
-0.48998457 0.7868332 -0.37524477 
-0.27283967 0.91905063 -0.28443724 
0.22967653 0.9096089 0.34620875 
0.46442097 0.63217926 0.6202118 
-0.28985628 0.56750077 0.7706662 
-0.11024466 0.856061 0.504981 
-0.43155986 0.80684745 0.40342698 
0.005596906 0.9724837 0.23290361 
0.062421475 0.8818959 0.46729356 
0.5118808 0.7883021 0.3414056 
0.06365891 0.88066137 0.46944997 
0.45082137 0.8188155 0.35538876 
0.40973777 0.8051381 0.42879808 
0.16099913 0.7833023 0.6004304 
0.3509161 0.9342399 0.06366843 
0.5696068 0.8004445 0.186646 
0.55110055 0.56735647 0.61187816 
0.09448959 0.43790707 0.89404094 
0.2021855 0.5131036 0.83417374 
0.098072566 0.59303635 0.79918075 
0.1478015 0.7146094 0.68373114 
-0.568243 0.24823713 0.7845242 
-0.42399186 0.08319277 0.90183693 
-0.5693082 0.1434234 0.8095172 
-0.5401378 0.15411702 0.8273446 
-0.7277609 0.5732747 0.37645736 
-0.17582993 0.97699827 0.120658234 
-0.53648275 0.72337526 0.43464294 
0.548915 0.83020765 0.09719819 
0.34411207 0.58856225 0.731561 
0.04449554 0.5555457 0.83029467 
-0.23019011 0.5692489 0.78928334 
0.22783956 0.6599316 0.71594656 
-0.25480574 0.29706883 0.92023045 
0.12937292 0.7186798 0.6831998 
0.16579182 0.02827367 0.9857554 
0.017340614 0.26268464 0.964726 
0.9830815 0.1831615 0.0016068922 
0.7702978 0.43529952 -0.4659998 
0.895259 0.43585908 -0.092402786 
0.870571 -0.006141482 0.49200454 
0.16225222 -0.33890548 0.926724 
0.88332224 0.20775503 0.4202138 
0.29733548 0.3681266 0.88095087 
-0.103901744 -0.15231505 0.9828553 
0.12565012 0.7113714 0.69149315 
-0.17477381 0.62904286 0.75746894 
-0.08379964 -0.0981312 0.991639 
-0.5355523 -0.31459248 0.78371894 
-0.68220854 0.29915217 0.6671578 
-0.83724487 0.3616221 0.4101835 
-0.71400845 0.31259197 -0.6264809 
-0.36598808 0.067364916 0.92817825 
-0.73093367 -0.0889141 0.67663157 
-0.5643271 0.19252746 0.8027878 
-0.6858438 -0.040059365 0.7266454 
-0.6328252 0.086767435 0.76941776 
-0.6304043 0.76958895 -0.10160363 
-0.14086895 0.984174 0.10750603 
0.22846699 0.7486326 0.62237614 
-0.07443633 0.5001342 0.8627428 
-0.0008522315 0.013917998 0.9999028 
-0.028040705 0.40369383 0.91446435 
0.15578629 0.89786625 0.41178507 
0.031542424 0.37851566 0.9250574 
-0.24584006 0.8137891 0.52660227 
0.39414808 0.91251427 0.10938458 
0.3191062 0.50931644 0.79922974 
0.083765596 0.6832599 0.7253546 
-0.4397574 0.87130463 0.2178113 
-0.81954604 0.49454808 0.28942466 
-0.85068035 0.51908016 0.08305877 
-0.671491 0.6770429 -0.30118567 
-0.08659242 0.8251872 -0.5581826 
0.4892629 0.59678954 0.6359749 
0.7606548 0.6389063 0.11490397 
0.20137447 0.78689533 0.5833046 
0.05351108 0.9581894 0.2810868 
-0.4891432 0.7306669 0.47630334 
-0.019381654 0.27422354 0.96147066 
-0.34626108 0.7600716 0.5499042 
-0.1794821 0.46945602 0.86452144 
-0.1665403 0.17417078 0.9705302 
-0.20560898 0.7210993 0.66161984 
-0.36432245 0.8982079 0.24595049 
-0.7388586 0.42546743 0.5225567 
0.029919038 0.93579775 0.35126564 
-0.04997455 0.9979012 0.041179657 
0.32788315 0.6806543 0.6551355 
0.830849 0.431695 0.35118297 
0.43735862 0.30522612 0.8459045 
0.3129127 -0.13292491 0.94043434 
-0.0038957705 0.43015096 0.90274864 
0.1415952 0.84996784 0.5074501 
0.060200594 0.9808947 0.18499051 
0.5264245 0.8197959 0.22541519 
0.53882474 0.3418149 0.76995486 
0.57327104 0.25235394 0.7795369 
0.66480213 -0.056962237 0.74484456 
0.3412197 0.025655232 0.9396335 
0.26661298 -0.046362113 0.96268797 
-0.28065896 0.737971 0.6137014 
-0.7333217 -0.2900525 0.61490554 
-0.4593914 -0.7422991 0.48780292 
0.055314243 0.11407131 0.9919315 
-0.77694327 0.15128073 0.6111247 
-0.9516554 -0.17650005 0.2513957 
-0.51105285 0.06961553 0.8567256 
-0.71921885 0.2721571 0.6392611 
-0.6831006 0.23358835 0.69196105 
-0.3706152 0.4859328 0.79152626 
-0.7022741 0.7008689 0.12487603 
-0.94008565 0.32630345 -0.09881922 
-0.15466742 0.98618644 0.059281364 
0.28307784 0.07114136 0.9564549 
-0.40375683 0.4335137 0.80563414 
0.36306223 0.58663225 0.7239119 
-0.1947929 0.82721955 0.5270328 
-0.28541324 0.9572322 0.04739056 
-0.595188 0.7982995 0.09202916 
-0.70420444 0.5868186 -0.39967498 
0.08124253 0.5104481 0.8560621 
-0.41957757 0.6550199 0.6284136 
0.12654176 0.8839985 0.4500376 
0.24746227 0.7878952 0.5639004 
0.097967565 0.6537202 0.7503682 
-0.087165594 0.45574167 0.885834 
-0.29903328 0.08855682 0.9501247 
-0.15993178 0.66692567 0.7277582 
-0.31435716 0.41707698 0.8527758 
-0.07667312 0.29794142 0.9515 
-0.30099276 0.65071297 0.6971198 
0.13430692 0.37043273 0.9190981 
0.1420518 0.37688896 0.9153011 
0.15631297 0.31340098 0.9366676 
-0.10467287 0.63983065 0.7613544 
0.0047659623 0.9352145 0.35404953 
0.050435856 0.7132702 0.6990722 
0.43777272 0.22938263 0.8693324 
-0.05684694 0.22947781 0.97165245 
-0.05220906 0.5574068 0.8285963 
0.70184815 0.71098673 0.043670986 
0.23552951 0.91958034 0.31448027 
0.53370535 0.8259857 0.18140058 
0.53020513 0.3236826 0.7836531 
0.13953951 0.37828586 0.9151113 
0.04430323 0.4560931 0.8888287 
-0.29028147 -0.122254275 0.9490999 
-0.5987649 0.38777056 0.7007957 
-0.022432508 0.62796277 0.77792007 
-0.09800817 0.47475505 0.8746439 
-0.16821648 -0.07739805 0.98270684 
0.0893761 0.52835804 0.8443044 
-0.2415152 -0.1620848 0.9567648 
-0.04939546 -0.44042042 0.89643174 
-0.31512594 -0.2905654 0.9034752 
-0.9523092 0.09421251 0.290226 
-0.7939563 0.40090567 0.45706472 
-0.29538155 0.9535216 -0.059552073 
0.8060929 0.56243664 -0.18406376 
0.26492766 0.88394177 -0.38530546 
0.5770489 0.80758053 0.12177178 
-0.46154815 0.5128546 0.7238463 
0.5025548 0.69294846 0.51697314 
0.2925562 0.565359 0.7712199 
-0.10353323 0.59307945 0.79845965 
0.5350362 0.6388836 0.55277854 
0.41663504 0.4775431 0.7735424 
0.7146322 0.37547264 0.59018743 
0.4542178 0.5921755 0.6655933 
0.32913002 0.7524932 0.5704626 
-0.38504478 0.5345084 0.75235724 
-0.4782408 0.66098845 0.57825613 
-0.4971096 0.0691543 0.8649277 
-0.2905803 0.6085536 0.738394 
-0.12858585 -0.5058996 0.85295445 
-0.48628306 0.058055345 0.87187064 
-0.55388063 0.36287802 0.749357 
-0.73521876 0.23083152 0.63731486 
-0.5048773 0.86123466 0.058083683 
0.122271895 0.7778385 -0.6164552 
0.986455 0.12369973 0.10772657 
0.67790204 0.45754883 0.5754111 
0.6858852 0.39105183 0.6137101 
0.45564687 0.04163579 0.8891864 
0.20507877 0.7844966 0.5852418 
0.0025689236 0.7683338 0.6400443 
0.015207149 0.67252135 0.73992145 
-0.0808646 0.07771859 0.99369055 
0.15887804 -0.011728545 0.98722863 
0.21285298 0.131645 0.9681752 
0.28559422 0.32956684 0.899901 
-0.64301854 -0.108956344 0.7580606 
-0.24179125 0.14144471 0.9599638 
-0.7308667 0.45941782 0.5047467 
-0.74933815 0.064859696 0.65900356 
-0.29080877 0.6783215 0.67476684 
-0.57241565 0.32418206 0.75315756 
-0.69085664 0.33593777 0.6402054 
-0.08202038 0.17477235 0.9811867 
-0.10704312 0.19152555 0.975633 
-0.23661254 -0.22130398 0.9460651 
-0.6924405 -0.23816852 0.6810301 
-0.46317083 0.8213428 0.3329697 
-0.31592315 0.7749688 0.5473718 
-0.379179 0.8582104 -0.34597448 
-0.39196673 0.9190778 -0.04071922 
0.028501889 0.7588027 0.6506968 
0.041555602 0.7504135 0.65966123 
-0.8407517 -0.020486344 0.5410334 
-0.09107002 0.5543923 0.8272578 
0.53473675 0.6592363 0.5286436 
0.5565156 0.23576513 0.7966839 
0.23168127 0.6535847 0.7205212 
0.09348828 0.67999035 0.7272366 
0.44399813 0.6178868 0.648908 
0.0943432 0.37692335 0.92142725 
0.06428176 0.9574426 0.28137445 
-0.52338827 0.45412573 0.72099555 
0.025680223 0.5107409 0.8593512 
0.2771724 0.5169724 0.8098858 
-0.041880634 0.9778757 0.20495184 
-0.23502545 0.9339319 0.26932222 
-0.29968232 0.70224893 0.6457841 
0.5112465 0.7218231 -0.46647456 
0.36804235 0.30731532 0.87755466 
0.4275478 0.6050086 0.6716901 
0.4989973 0.19130164 0.84522504 
-0.44409797 0.34246668 0.82794553 
-0.43125004 0.7469674 0.506027 
0.3429698 0.81736547 0.4629099 
0.3712674 0.15708388 0.91514224 
0.33563775 0.46656588 0.81832975 
-0.5430979 0.37442538 0.7515653 
0.6249831 0.7723931 0.113159485 
0.22764336 0.7810579 0.58148706 
-0.3570929 0.74883986 0.55832213 
0.49802348 0.5337487 0.6834362 
0.7537808 0.4327028 0.49455333 
0.18503255 0.8881698 0.42061555 
0.24696779 0.2447258 0.937612 
0.39060354 0.22939256 0.89151996 
0.28638363 0.16750656 0.94335896 
0.7118761 0.5604689 0.42321038 
0.4236521 0.3178362 0.848233 
0.29729468 0.5857361 0.75400877 
0.017125258 0.7790387 0.626742 
-0.56227213 0.091085956 0.82192063 
0.44885314 -0.5961999 0.66564 
-0.4212787 0.57810384 0.6987992 
-0.07560395 0.8043234 0.58936244 
0.07488202 0.39823455 0.91422206 
-0.7077178 -0.70098513 -0.08806458 
-0.26290992 0.66253626 0.7013731 
-0.72049814 0.676756 0.15127406 
-0.88189334 0.36000913 0.30439714 
-0.59901327 0.80070645 0.0072274245 
-0.3722768 0.79414827 0.48035273 
0.50074375 0.65097123 0.57051927 
0.5291984 0.56690884 0.6313188 
-0.20799755 0.8931018 0.3988811 
-0.6814072 0.3210702 0.657722 
-0.3730648 0.66680884 0.64512694 
0.38343278 0.92262644 -0.041710123 
0.23165728 0.53957635 0.8094395 
0.12142917 -0.028823528 0.9921816 
0.59743226 -0.105483055 0.7949516 
0.6934048 0.361083 0.62354547 
0.42902246 -0.3725593 0.82288474 
0.7843704 0.07838314 0.6153205 
0.30991098 0.6619592 0.68246996 
-0.03232507 0.982422 0.18385369 
0.105906464 0.97742826 0.18280533 
0.38929883 0.45287532 0.8020912 
-0.032768417 -0.0025195447 0.99945986 
0.14500922 0.39563072 0.90688956 
-0.29728222 0.59305066 0.74827415 
-0.21501343 0.25101334 0.94380164 
-0.15442677 0.7342563 0.6610749 
-0.43354237 0.53606933 0.72434163 
-0.44047606 0.27475783 0.8546866 
-0.14349367 0.29334792 0.9451754 
0.13495177 0.92650664 0.3512457 
0.717129 0.10481208 0.6890142 
0.45302597 -0.1624637 0.87656885 
-0.08023403 0.6765189 0.7320415 
-0.5995461 0.39555427 0.69575965 
-0.031505026 0.1867405 0.981904 
0.037970856 0.18452804 0.9820935 
-0.48335198 0.58279204 0.6532415 
0.16476586 0.06476977 0.98420376 
0.3908843 0.27047938 0.8798014 
0.31648952 0.9219772 0.22314212 
0.57109386 0.7570831 0.3172965 
0.85681015 0.4571562 0.23850463 
0.8831177 0.44001815 0.16274865 
0.42012966 0.8483393 0.32219803 
0.29626912 0.63111085 0.7168848 
0.9020969 0.15948834 0.40097952 
0.89440554 -0.013375626 0.4470569 
0.478021 -0.10207265 0.8723974 
-0.48430043 0.26966256 0.8323072 
-0.6246405 0.3785626 0.68301874 
-0.48175508 -0.43658224 0.7598079 
-0.015887234 -0.14617777 0.9891308 
-0.4053434 0.24112716 0.88179046 
-0.11347389 0.0038725245 0.99353343 
-0.5950693 -0.011724065 0.803589 
-0.815528 -0.071359 0.5743013 
-0.81207037 -0.22114584 0.54003364 
-0.258281 -0.015727779 0.9659418 
-0.7188786 -0.043623313 0.6937655 
-0.45901567 -0.43089402 0.7769395 
-0.17732391 0.32456177 0.9290942 
-0.47555786 0.2995159 0.82712454 
-0.4181044 0.37748405 0.82625324 
-0.026126895 0.47539893 0.8793824 
-0.38346004 0.28615615 0.8781078 
-0.2383594 0.13130562 0.9622597 
0.019153927 0.68561506 0.7277123 
-0.07277428 0.46023205 0.88481104 
0.52753925 0.62744874 0.57272196 
0.19552268 0.3023591 0.9329255 
-0.3536922 0.4702577 0.8085541 
-0.6221955 0.07377814 0.77937764 
-0.18749584 0.4587401 0.8685637 
-0.22339098 0.66575044 0.71195 
-0.075924546 0.7947297 0.6021961 
-0.22836842 0.7432566 0.62882227 
0.051875867 0.6346583 0.77104986 
0.52713555 0.77512896 0.348286 
0.79221785 -0.029169068 0.6095409 
0.5231905 0.022690244 0.8519137 
0.031859342 -0.16454384 0.9858551 
-0.3831368 -0.10446125 0.91776574 
-0.33577448 -0.28297096 0.8984337 
-0.34247193 0.19214517 0.91967016 
0.11870099 0.18229418 0.9760527 
-0.22773421 -0.13917765 0.96372545 
-0.60429686 0.7114132 0.358771 
-0.71901333 -0.090925835 0.6890227 
-0.40182215 0.80871004 0.4295662 
0.24818133 0.78200424 0.5717301 
0.16365859 0.65372604 0.73882216 
0.7176619 0.27029762 0.6417949 
-0.6345787 -0.29839286 0.71293175 
0.044215724 0.6988477 0.71390265 
0.34655565 0.75339985 0.5588272 
0.32862893 0.77694046 0.53699774 
0.46341866 0.6755913 0.573428 
0.45759147 0.85755837 -0.23495483 
0.63740224 0.66809064 0.38389236 
0.71836525 0.45055133 0.53005177 
0.37866712 0.49414635 0.7825794 
0.60036427 0.34984344 0.719147 
0.221722 0.10883931 0.96901673 
0.49644968 -0.59441876 0.6326169 
0.40465388 -0.45463604 0.793449 
-0.8682404 0.17323925 0.46491584 
-0.5293853 -0.17854387 0.8293813 
-0.5504417 0.18811567 0.8134043 
-0.39722174 0.4356916 0.80770516 
-0.45553875 -0.06994349 0.887464 
0.3638681 -0.024524799 0.93112767 
0.08115884 0.013351256 0.9966118 
0.048417535 -0.05181404 0.99748236 
0.08387457 0.036885496 0.9957934 
-0.04411218 0.84278166 0.5364451 
-0.33365926 0.90689814 0.257308 
0.17123716 0.8754658 0.45192653 
0.6643598 0.15297474 0.7315906 
0.016110856 0.39669627 0.91780853 
-0.37839195 0.33055744 0.86461055 
-0.50713485 0.36903572 0.77886254 
-0.23795915 0.5841346 0.77599114 
0.19754697 0.72809726 0.65639144 
-0.29026386 0.08152079 0.953468 
-0.6359891 0.5310893 0.55987674 
-0.7814968 0.2795635 0.5577696 
-0.20776522 0.47379518 0.85577554 
0.088508435 0.5901197 0.8024494 
0.20624234 0.4569826 0.8652347 
-0.35766733 0.035290953 0.933182 
-0.3579052 0.2979334 0.88495183 
-0.92278147 0.38532338 0.0005178755 
-0.27499998 0.14481978 0.9504748 
0.004505083 0.6776117 0.73540616 
0.27792338 -0.0582833 0.9588336 
0.08733717 0.1332643 0.9872248 
-0.4652697 0.34823757 0.8137904 
-0.45024788 -0.069406934 0.890202 
-0.34129384 0.36287344 0.86708784 
-0.20999856 0.9391093 0.27198228 
-0.51919043 -0.029640198 0.8541445 
0.22500983 0.59270334 0.773352 
-0.05401998 0.06481845 0.99643385 
-0.18303263 0.22113883 0.9579127 
0.43108836 0.73405707 0.5247124 
0.76947314 0.4193934 0.48168483 
0.41473418 0.89532435 0.16244943 
0.7157024 0.2850256 0.63759744 
0.7390795 0.377483 0.5579141 
-0.38448283 0.22122028 0.8962335 
-0.39649862 0.2181489 0.89173985 
-0.43863127 -0.21229725 0.87323105 
-0.85933053 0.32432842 0.39542642 
-0.26868677 0.6249659 0.73295635 
0.546794 0.14422938 0.82475114 
0.51972795 0.31289205 0.7949726 
0.37600186 0.15671493 0.9132706 
0.59971255 0.34985638 0.71968424 
-0.31532353 0.60894394 0.7278451 
-0.85062957 0.36510187 0.3783254 
-0.33971426 0.7683693 0.5424047 
-0.7249586 0.6502925 -0.22705637 
0.16306719 0.81464505 -0.5565631 
0.30356026 0.83386093 -0.46100682 
0.5883341 0.804685 -0.079657085 
0.5032692 0.67520213 0.53927934 
0.309839 0.9383702 0.15317047 
0.31619346 0.87074554 0.37659532 
-0.16276969 0.97814673 0.12936395 
-0.021325093 0.9406379 0.3387414 
-0.32512456 -0.24842268 0.91245836 
-0.01649229 0.23731144 0.9712936 
-0.13013765 0.79486716 0.5926638 
0.017279299 -0.007248913 0.9998245 
-0.09525488 -0.47954556 0.8723317 
-0.5179239 -0.119614385 0.8470227 
-0.4839651 -0.23261297 0.84360486 
-0.03338864 0.7479288 0.6629387 
-0.68696624 0.05786717 0.72438174 
-0.5802071 0.3835896 0.7184837 
-0.4611272 -0.2904086 0.83846563 
-0.70325255 0.67570674 0.22103466 
-0.1663543 0.97037613 0.17520398 
-0.16366294 0.96039826 -0.22549863 
0.11892931 0.49303243 -0.86184394 
0.73952794 0.6454187 0.19113675 
-0.040439796 0.93413883 -0.3546117 
0.7061865 0.36124843 0.60893375 
0.21128838 0.18083689 0.9605495 
0.1042897 0.81255126 0.5734841 
-0.69789976 0.52421844 0.48798668 
0.1842141 -0.06462717 0.98075914 
0.34764698 -0.10395222 0.93184525 
0.4422165 -0.4160436 0.7945769 
0.6620534 -0.51636815 0.5431844 
0.32570785 -0.30534008 0.89480823 
0.41304812 0.26975924 0.86983985 
-0.7575328 0.6065416 0.24135357 
-0.93783194 -0.16134952 0.30730698 
-0.6836795 0.368723 0.62978226 
-0.34379277 -0.10014148 0.93369067 
-0.31960222 -0.017503671 0.94739014 
-0.46207696 0.47998753 0.7457191 
-0.31430477 0.3052132 0.8989202 
-0.44969392 -0.28060547 0.84796 
-0.96586317 -0.051743716 0.25383273 
-0.99839735 0.021669755 -0.052280687 
-0.5695054 0.81980276 0.059891816 
-0.58157665 0.81287795 -0.031594045 
-0.87800705 0.39246315 -0.2740006 
-0.5617208 0.77943945 -0.27738786 
0.055448864 0.7113429 0.70065457 
-0.81393605 0.5308965 0.23591742 
-0.3985299 0.21685222 0.8911505 