# OOMMF: rectangular mesh v1.0
# Segment count: 1
# Begin: Segment
# Begin: Header
# Desc: Time (s) :  1.5399999999999987e-07
# Title: m
# meshtype: rectangular
# meshunit: m
# xbase: 2e-09
# ybase: 2e-09
# zbase: 5e-10
# xstepsize: 4e-09
# ystepsize: 4e-09
# zstepsize: 1e-09
# xmin: 0
# ymin: 0
# zmin: 0
# xmax: 1.024e-06
# ymax: 1.024e-06
# zmax: 1e-09
# xnodes: 256
# ynodes: 256
# znodes: 1
# ValueRangeMinMag: 1e-08
# ValueRangeMaxMag: 1
# valueunit: 
# valuemultiplier: 1
# End: Header
# Begin: Data Text
0.86843956 0.376148 0.32299486 
0.77335125 -0.6231588 0.116623156 
0.98570603 -0.1653499 0.032296415 
0.9051798 0.28528145 -0.31506193 
0.2759392 -0.0072944867 -0.9611474 
0.98597884 -0.12628675 -0.109075904 
0.3986448 0.9125537 0.091258645 
-0.14215505 0.7027723 0.6970675 
0.57543826 0.79266405 -0.2013817 
0.49421588 0.77066964 0.40226746 
-0.5975054 0.31284493 0.73831934 
-0.5526586 -0.09911493 0.827493 
-0.45071077 0.61247337 0.6494122 
-0.32598358 0.25607753 0.91003245 
0.2070556 0.6856934 0.6978199 
-0.48900917 0.8125614 0.31719735 
-0.053124696 0.03585756 0.9979439 
0.015987717 0.31978682 0.94735473 
-0.5618377 0.71935487 0.40849373 
-0.9533466 0.30105853 -0.022227492 
-0.5495421 0.816859 0.17534225 
-0.41250494 0.83936936 -0.35397568 
-0.32757524 0.7086655 0.62489015 
0.4302177 0.5643863 0.70454305 
0.9047779 0.26551723 0.33298287 
-0.27257618 0.5251513 0.8061752 
-0.5412947 -0.010213574 0.840771 
0.57885045 -0.45563293 0.67626244 
0.017858054 0.8692773 0.49400225 
-0.37655282 0.6733432 0.6362523 
-0.3925168 0.8493989 0.35277778 
0.16634987 0.6378533 0.75197804 
-0.48144516 0.87521917 0.04692696 
-0.31448218 0.9221949 0.22507262 
-0.645408 0.7632238 -0.030626807 
0.4267095 0.6501796 -0.6286378 
0.32363117 0.91778195 -0.23008512 
0.4239625 0.9025436 0.0753047 
0.288899 0.8404677 0.45842305 
0.121067785 0.81090665 0.5725147 
0.73454595 0.5073537 0.4505936 
-0.061788805 0.78150624 0.62083036 
0.31480932 0.94508165 -0.087840036 
0.20964843 0.9639056 -0.16411471 
-0.35246 0.77714336 -0.5213637 
0.002380265 0.53753716 -0.84323674 
0.43116063 0.54811674 -0.7167068 
0.53482926 0.5187395 -0.66698354 
0.607742 0.7691516 -0.19762425 
0.80324244 -0.049589902 -0.59358454 
0.58044386 -0.02333607 -0.8139658 
0.9507549 -0.2714971 -0.14951427 
0.16472374 0.22186658 -0.96106267 
0.4362115 0.4564482 -0.7754836 
-0.1628628 0.9865022 0.017006744 
0.47362018 0.8802298 -0.029657912 
0.023200577 0.9570367 0.2890373 
-0.6275389 0.18320844 0.7567229 
-0.33616456 0.8744263 0.34981707 
-0.6099898 0.75785506 -0.23144786 
-0.514534 0.57607514 -0.63513166 
0.5346411 0.68913305 -0.4891367 
0.3818811 0.7388495 -0.55521905 
0.37607157 0.59509844 -0.71023107 
-0.040093686 0.8776306 0.47765785 
-0.51910394 0.17910942 0.83573383 
-0.6695115 0.7427535 -0.0084599 
-0.4279859 0.7646445 -0.48181617 
-0.39920846 0.8988378 -0.18089572 
-0.9647828 0.258173 0.050407596 
-0.83661085 0.15043339 -0.5267374 
-0.5688429 0.7990263 -0.19487122 
-0.5414488 0.77004427 -0.3374392 
-0.54241943 0.8339636 -0.101420015 
-0.31692034 0.8866275 -0.3368282 
-0.11075466 0.90451676 0.41180435 
-0.81428134 0.50322473 0.28932846 
-0.6061864 -0.028604826 0.79480803 
-0.23651572 0.3647034 0.9005842 
-0.5484516 0.73933387 0.39062303 
-0.18464701 0.48707825 0.85361594 
-0.094757855 0.8347173 0.54246473 
-0.37653887 0.5766019 0.7250853 
-0.19791824 0.44446814 0.87365705 
-0.7132257 0.5946889 0.37101793 
-0.60179967 0.3088248 0.73652184 
-0.9895834 0.14392458 -0.0032436913 
-0.80312777 0.49309075 0.33443582 
-0.5658806 0.79285455 0.22618817 
-0.24349001 0.8981527 -0.3661071 
-0.3520365 0.924352 0.14711797 
-0.5686125 0.7983547 0.19826654 
-0.62851065 0.5677718 -0.5316104 
-0.64762306 0.7331006 0.20772101 
-0.98995674 -0.14114115 0.008057685 
-0.35793468 -0.71392965 -0.60182 
0.0073255925 -0.30123085 -0.95352316 
0.8378259 -0.065661766 -0.54197454 
0.29173684 0.8069897 -0.5134757 
0.73778045 -0.20016101 -0.64468265 
0.9064142 -0.027750665 -0.42147735 
-0.14485618 0.7298382 -0.6680965 
-0.005557744 0.7458094 -0.6661364 
-0.82566965 0.5571727 -0.088477224 
-0.84680253 -0.013610913 -0.53173333 
0.5638782 0.8249758 -0.038164623 
0.86213017 0.40115303 -0.30952877 
0.5116062 0.43315706 -0.74204725 
0.98170984 -0.18663564 -0.037591122 
0.19408026 0.6175723 -0.76219255 
-0.28671268 0.95207995 -0.106487855 
0.28519168 0.8015756 -0.52549255 
0.84267205 0.5122014 0.16599254 
0.8935075 0.25112972 0.37226117 
0.25654376 0.7841045 0.5651243 
0.3140601 0.693916 0.64795595 
0.84456074 0.43940172 0.30601174 
0.42322955 0.3470794 0.8369067 
-0.23295507 0.34420294 0.90953636 
-0.66689485 0.6972165 0.2629456 
0.20013182 0.6924263 0.6931761 
0.10094655 0.50520355 0.8570759 
0.33312738 0.3763525 0.8645143 
0.23380801 0.62193936 0.7473455 
0.10181322 0.46653008 0.87862617 
-0.5839081 0.09633247 0.80608404 
-0.26699442 0.91039836 0.31605187 
-0.8186928 0.4853977 0.30680817 
-0.03981306 0.99856955 -0.03569168 
0.09622837 0.96158826 -0.2570764 
0.10574123 0.79812974 0.5931339 
-0.49052396 0.8658634 -0.09832069 
-0.6884216 0.5742482 -0.4430741 
-0.10275039 0.8050443 -0.58424836 
0.034201734 0.96271104 -0.26836106 
0.6152325 0.7237127 0.3126165 
-0.2227036 0.6850178 0.6936525 
-0.9175397 -0.32720265 0.22596298 
-0.5256986 0.61340725 -0.5893832 
-0.315501 -0.14489846 -0.93779725 
-0.106254525 0.31001383 -0.9447759 
0.5516276 0.83108157 0.07078483 
-0.21286756 0.8398822 -0.49928474 
0.5035428 0.22238761 -0.8348584 
0.6359169 0.6883602 -0.34895566 
0.17196997 0.89312565 0.41563576 
0.0058808886 0.96206826 0.27274582 
0.5871637 0.800657 0.11911015 
0.6266506 0.7649892 -0.14866292 
-0.50134426 0.8630516 0.06161187 
-0.42022616 0.6946659 0.583823 
-0.6220634 0.700844 0.3490772 
-0.4933205 0.8202287 0.28958574 
-0.4696417 0.84442204 0.2576593 
-0.51522565 0.783653 0.34703115 
-0.627986 0.7758142 0.06120411 
-0.07684876 0.6446822 -0.7605783 
-0.034846473 0.9923631 0.118326835 
-0.13254112 -0.25540623 0.9577059 
-0.23014568 -0.38432157 0.8940525 
-0.96010786 0.057072107 -0.2737439 
-0.7826923 0.26668486 -0.5623806 
-0.24485026 0.44577006 -0.8610096 
-0.05981902 0.9919114 -0.11195303 
0.1062214 0.7292272 -0.67597693 
-0.18194808 -0.025524644 -0.9829768 
0.18738844 0.7612057 -0.62084746 
0.4202688 0.8468906 -0.32580742 
0.17293592 0.96357244 0.20401308 
0.047045425 0.07270397 0.9962434 
-0.17245066 0.8531716 0.49229988 
-0.42957345 0.75101185 -0.5014459 
-0.5984775 0.5749796 0.55787385 
-0.8381491 0.4576258 -0.296791 
-0.45305455 0.6051899 -0.6545891 
0.5152492 0.85384715 -0.073915266 
-0.3212865 0.81153655 0.48804033 
0.10152492 0.44861472 0.88794017 
0.34913483 0.8118283 0.46801695 
0.31296483 -0.07022782 0.9471648 
-0.10483112 0.31662294 0.94274086 
-0.09056389 0.2611673 0.9610359 
0.8226427 -0.05470603 0.56592095 
0.73118234 0.5038997 0.45984524 
0.19592951 0.04049583 0.97978157 
0.21784842 0.34101078 0.9144692 
0.79164815 0.11948489 0.59918004 
0.6595693 -0.25037315 0.7087183 
0.31404796 -0.7776775 0.5446022 
-0.12501095 -0.78112745 0.61172885 
0.2600652 -0.73710823 0.6237289 
-0.3228327 -0.42794272 0.8441826 
-0.58550084 0.14680359 0.79726875 
-0.011611083 0.59004056 0.8072902 
0.084871575 0.68153477 0.7268474 
-0.6654683 0.63814574 0.38719782 
-0.4046194 0.891432 -0.20404014 
-0.06464425 0.83308595 -0.5493532 
-0.073165715 0.7881884 0.6110695 
0.052958414 0.99349594 0.10080332 
-0.15889423 0.4054032 0.90022266 
0.059912797 0.74760765 0.66143274 
-0.542968 0.82727474 -0.14423037 
0.044984493 0.64573514 -0.7622353 
-0.27547467 0.95160234 -0.1362605 
-0.5548954 0.6708587 0.49197543 
-0.9101775 0.35659525 -0.2107532 
-0.4193187 0.7979135 -0.4330196 
-0.17631836 0.498659 -0.8486761 
0.01724593 0.9976254 -0.06668031 
0.046041075 0.938795 -0.34138602 
0.26153788 0.9613407 -0.08615128 
-0.034475032 0.46226656 -0.88607067 
0.3974558 -0.27093852 -0.8767105 
0.46005285 0.4533351 -0.7634389 
-0.43112928 0.6265406 -0.6492877 
0.52435756 0.7991482 0.2939581 
0.04986927 0.7313663 0.68015915 
-0.6456824 0.4092082 0.64470387 
-0.91700596 0.34096596 0.20698361 
-0.5435604 0.83638275 -0.07075255 
0.5106142 0.7465687 0.42650726 
-0.2883237 0.8929324 0.34574738 
-0.5153043 0.16529937 0.8409147 
-0.8129216 0.58210325 0.017729633 
0.068012655 0.42971063 -0.90040165 
0.5467441 0.5122498 -0.6623225 
0.43961418 0.88181746 -0.17069714 
-0.7038924 0.66800606 0.24146098 
-0.8999089 -0.43607438 0.0017838487 
-0.80975693 -0.05952936 -0.58373785 
-0.6999756 -0.154965 -0.6971514 
-0.53140867 0.41605532 0.7379044 
-0.6324561 0.35266137 0.68965876 
-0.6161525 0.7127774 -0.33511877 
-0.27262226 0.3291686 -0.9040605 
-0.1381086 -0.4221588 -0.89593977 
0.16831863 -0.5271625 -0.8329277 
0.76459587 -0.6413519 -0.06372668 
0.6927767 -0.594505 0.40819636 
0.15086731 0.13480619 0.9793194 
-0.515802 -0.589442 0.6216964 
0.6895365 -0.46985027 0.5511626 
0.42885056 0.8510753 0.30291605 
0.6572835 0.7517385 -0.053550866 
0.38399985 0.817394 -0.42943126 
-0.23404123 0.55791116 -0.79621595 
0.33855227 0.016430482 -0.9408042 
0.41032344 0.88497245 0.22013304 
0.65331334 0.6067948 0.45274922 
-0.04623129 0.13240246 0.9901174 
-0.48059192 0.34361103 0.80682266 
0.059412893 0.13753842 0.98871297 
0.48383346 0.27476826 0.8309077 
-0.7791732 0.194329 0.59592414 
-0.2962128 0.8675944 0.39942223 
0.6481743 0.2108725 -0.7317124 
0.8740422 -0.3469982 -0.3400625 
0.9199518 0.05623657 -0.387977 
0.80511135 0.5832026 0.10803068 
0.7882933 0.61512756 0.014557981 
0.9975743 0.01950459 0.066821985 
0.872778 0.48802477 0.009505735 
-0.064312935 0.7973392 0.60009515 
-0.045093503 0.36947334 0.9281466 
0.6410875 0.4089706 0.64942276 
0.20020716 0.4332159 0.8787725 
0.3034998 0.00086635957 0.9528311 
-0.27728182 -0.038017076 0.9600363 
-0.16752821 -0.027242983 0.9854908 
0.32542366 0.2636211 0.9080768 
-0.5678902 0.8145817 0.11814213 
-0.026578275 0.12214645 0.9921562 
-0.69670016 0.11593897 0.7079316 
-0.6605895 0.6294317 0.40919086 
-0.5393523 0.61666423 0.57343215 
-0.7975163 0.58928 0.1292935 
0.22367175 0.8146985 0.5350116 
0.015589167 0.76683074 0.6416601 
0.10757044 0.22997631 0.967233 
0.46962625 0.39435783 0.78989434 
0.04677621 0.036289472 0.998246 
-0.5575692 -0.03436814 0.8294188 
-0.6081119 -0.2452693 0.7550119 
0.18607637 0.35713 0.9153327 
-0.0963722 0.28760168 0.9528892 
0.25039214 0.7897937 0.5599373 
0.14210074 0.4276124 0.8927234 
-0.41428426 0.66745365 0.61876833 
-0.23435795 0.7739914 0.58822924 
-0.56087416 0.7384248 0.37436497 
-0.25773054 0.8389456 -0.47931752 
0.33735096 0.9140587 -0.22514711 
0.0890635 0.91631633 -0.39042553 
0.24098149 0.8867551 0.3944534 
0.7521337 0.43136477 0.49821624 
0.2641163 0.77770287 0.57045674 
0.0055887094 0.6383483 0.7697274 
0.42619783 0.70507604 0.56676567 
0.9270137 0.36923403 0.06566562 
-0.15340453 0.93329406 -0.32469904 
0.23357596 0.7872102 -0.5707385 
0.15481824 0.98347056 -0.093899235 
0.2538924 0.95898956 -0.12600693 
0.53805906 0.8413746 0.05080849 
0.3024651 0.6504063 -0.6967687 
0.65723675 0.6522696 0.37760326 
0.4644226 0.8599552 0.2116334 
0.33413365 0.89025646 -0.3095127 
0.08556241 0.63171804 -0.7704619 
-0.14832951 0.983733 0.10133051 
-0.11886967 0.9871351 0.10693158 
-0.07668769 0.85490185 0.5130905 
-0.64248645 -0.18689878 0.7431555 
-0.45658687 0.8733341 0.16975251 
0.060330134 0.966547 -0.24929367 
0.4264514 0.9039908 -0.030658845 
0.5710413 0.8117386 0.12244325 
-0.17826658 0.72107 -0.6695366 
0.021691613 0.982983 -0.18241143 
-0.6726999 0.6290846 0.389522 
-0.84756106 -0.29780555 0.43926328 
-0.48495698 0.6804639 0.5493502 
-0.96350163 -0.08340026 -0.25437966 
-0.7289537 0.30537456 0.61267686 
-0.9128993 0.30231336 0.27426538 
-0.9837369 0.122369446 -0.13148196 
-0.9043169 0.30185276 -0.30182084 
-0.79131556 0.57779264 -0.19993831 
-0.74621755 0.6358444 0.19713283 
-0.2248715 0.94089794 -0.2532668 
-0.7349746 0.11068712 0.66899985 
-0.79534054 -0.16366707 0.58364934 
-0.5157641 -0.031568006 0.85614884 
-0.9152102 0.0136230225 0.4027467 
-0.29570004 0.8467173 0.44230223 
0.17296493 0.2255305 0.95875925 
-0.83063346 0.25045308 0.49731407 
-0.7007722 0.38684213 0.5993927 
-0.7349699 0.46606287 0.49254924 
-0.8067956 0.43098828 0.404141 
-0.7241756 0.6253591 0.29068172 
-0.5015735 0.78895265 0.35493365 
-0.9168934 0.39812472 0.028341603 
-0.5922339 0.15367612 0.7909758 
-0.3440476 0.89486253 0.28434548 
0.06373442 0.80083156 0.59548885 
0.33713815 0.7540718 0.5636609 
-0.14521477 0.32036823 0.93609667 
-0.53889465 0.2737364 0.7966562 
-0.9093849 0.3094699 0.2779343 
-0.7624903 -0.48817074 -0.42461514 
0.6567893 0.3253584 -0.68027186 
0.5544141 -0.542193 -0.6313889 
0.36790872 -0.09658867 -0.92483187 
0.012323854 0.15006389 -0.98859954 
0.6824371 0.25417557 -0.685328 
0.04422173 -0.18890837 -0.9809985 
-0.8179649 -0.31339818 -0.48240554 
-0.5539668 0.37635604 -0.742615 
-0.4280428 0.7131877 -0.5551061 
0.6391199 0.7687353 0.02391284 
0.47424158 0.7348161 -0.48491278 
0.7559912 0.61923414 -0.2121942 
0.40078625 0.91529095 -0.04016329 
0.3354261 0.9309648 0.14420106 
0.2532671 0.90942484 0.32985198 
0.32202977 0.92034984 0.22193052 
0.38921794 0.9170061 0.08723179 
0.424835 0.8926338 0.15073232 
0.5720332 0.7117796 0.40761223 
0.4298866 0.34655574 0.8337246 
0.583909 0.4720876 0.6604421 
0.3750697 0.7450625 0.5515475 
0.23143369 0.85137457 0.4707438 
0.3972594 0.41105482 0.82049924 
0.4685467 -0.061341178 0.8813066 
0.047532436 0.009107705 0.9988282 
-0.085186064 0.3142392 0.9455142 
-0.5302245 0.7066851 0.46846363 
-0.29576007 0.28956258 0.9103184 
-0.45801997 0.15790723 0.87480456 
-0.5906903 0.07460786 0.8034418 
-0.32470495 0.6680465 0.6695376 
-0.37019324 0.8274457 0.42224494 
-0.31340525 0.68761075 0.654957 
-0.4250327 0.90208864 -0.074720904 
-0.5445193 0.8354329 -0.07450318 
-0.47546396 0.75460863 -0.45221657 
-0.16784182 0.8318555 -0.5290043 
0.511629 0.58175564 0.6322944 
0.19557495 0.23108906 0.95307314 
-0.42776287 0.706296 0.56406105 
-0.77179044 0.43350995 0.46519744 
0.04436342 0.59184855 -0.8048275 
0.1989789 0.41291597 -0.88876766 
0.22597879 0.87662697 -0.42480457 
0.069665246 0.96814734 -0.24049444 
0.15386707 0.9231562 0.352289 
0.6743328 0.7383135 0.012979646 
0.06432778 0.98296255 -0.17218179 
-0.2047608 0.9044409 0.3742458 
0.2628412 0.94502485 0.19453213 
0.5931073 0.096465185 0.79932374 
0.10534175 0.5174604 0.84919846 
-0.58670384 0.15346825 0.79512656 
-0.12210513 0.8483428 0.5151747 
0.056643005 0.98242116 0.17787704 
-0.629911 0.42060593 0.6529187 
-0.22317322 0.4043374 0.886964 
-0.680019 0.21419631 0.701209 
-0.614115 0.76562595 -0.19151968 
-0.15490739 0.97469485 0.16116387 
-0.4486552 0.5720361 0.68664646 
-0.47002417 0.4120251 0.7805849 
-0.801008 0.222334 0.55583614 
-0.8304984 0.5179769 -0.20487183 
-0.9752855 0.18015514 -0.12791629 
-0.43990576 0.89752096 0.030644163 
0.18192862 0.9646077 -0.19087699 
-0.06826127 0.8816353 -0.46696857 
0.42333937 0.90481865 -0.0456852 
0.46087384 0.8241771 -0.32913142 
0.40037486 0.91035473 -0.104662225 
0.040369738 0.71396023 0.6990216 
-0.4596224 0.30169573 0.8353005 
-0.8688494 0.4906957 0.06571426 
-0.89753515 0.41568327 0.14709894 
-0.2253908 0.9123713 -0.34172744 
-0.19154564 0.9083104 -0.37186345 
-0.5729871 0.50725055 -0.6437257 
-0.58107144 0.76103127 0.28842217 
0.29607987 0.7577096 0.58156073 
0.51974493 0.57904804 0.62814707 
0.85781074 -0.45061582 0.2471966 
0.21578117 0.023918077 0.97614884 
0.14852026 0.2870546 0.9463305 
0.09407584 0.38523152 0.9180122 
0.5367194 0.38439095 0.7511165 
0.35381648 0.21000315 0.9114344 
-0.1691031 -0.05422834 0.9841054 
0.2031384 0.025664428 0.97881365 
0.43027136 -0.30164698 0.8508088 
0.27371114 -0.5720572 0.7731965 
0.48169994 -0.4828833 0.73129267 
-0.024127908 -0.8538039 0.5200355 
0.42161348 -0.74746346 0.51336205 
-0.3653034 -0.8700241 0.33107662 
-0.89491147 0.051602323 0.4432503 
-0.50235635 0.22653103 0.8344591 
-0.27422094 0.6964917 0.66310054 
-0.6139576 0.2622485 0.7445011 
-0.69541824 0.6521196 0.30188355 
-0.64961 0.74026203 -0.17326032 
0.4700863 0.8182405 0.33091015 
0.5028058 0.5056332 0.7010859 
-0.20147921 0.30539155 0.93066764 
-0.26023138 0.8106256 0.5245624 
-0.8415743 0.44420835 0.30729723 
-0.6796319 0.7177356 -0.1515133 
-0.42853278 0.6857172 0.58834654 
-0.839434 0.3982289 0.3698165 
-0.713776 0.35527796 -0.603574 
0.27451453 0.9571287 -0.09244758 
0.086913705 0.8871156 0.4532903 
-0.5663969 0.53706414 0.62510544 
-0.06428223 0.96393013 -0.2582762 
-0.795316 0.4585495 -0.39649075 
-0.19988465 0.5351019 -0.82079977 
0.13535064 0.20040673 -0.97031826 
-0.21001665 0.97338647 -0.0917165 
-0.13104771 0.8593322 -0.4943427 
0.3300387 0.7133294 -0.61825216 
-0.03525247 0.8791995 0.47514784 
-0.14585981 0.43334374 0.889347 
-0.65969574 0.4827072 0.5760167 
-0.25557673 0.9082273 0.3313665 
-0.018139401 0.6490689 0.76051337 
-0.04073806 0.83493376 0.54884076 
0.15147951 0.029745815 0.9880128 
0.31453162 0.9225517 0.22353584 
0.61113167 0.33718675 0.7161168 
0.2029159 0.86586136 0.45728475 
0.46813 0.6584287 0.5893437 
-0.17222622 0.19809401 0.96493363 
-0.35473958 0.5914898 0.7240855 
-0.38410679 0.8536908 0.3516733 
-0.48118165 -0.5339457 0.6952455 
-0.95951384 0.02791224 0.28027523 
-0.5840986 0.56780714 0.5800207 
-0.8993393 -0.1987524 -0.3894693 
-0.74607134 0.17238493 -0.6431649 
-0.31560183 -0.67266625 -0.6692651 
0.93880427 -0.13930626 -0.3150246 
0.9416438 -0.30124584 0.15019314 
0.71375716 -0.4402687 0.5447148 
0.55373675 0.27442133 0.78617346 
0.17333865 -0.47994858 0.8600018 
0.5850736 -0.28134164 0.7606154 
-0.009232504 0.75305194 0.6578963 
-0.29813758 0.8212051 -0.48655543 
-0.28039727 0.89612657 0.34399804 
-0.37872595 0.77247417 -0.5097553 
0.7617739 0.6470698 -0.031641122 
0.16091023 0.8069219 0.56831783 
0.756124 0.22468525 0.6146488 
0.5562532 0.59559655 0.5795232 
-0.25027096 -0.11924616 0.9608043 
-0.42999753 0.16809395 0.8870437 
0.24106756 0.5987763 0.7637758 
-0.24939653 0.23947139 0.9383256 
-0.8598288 0.37435445 0.34720775 
0.81428874 0.47878185 0.32817987 
0.92369056 0.33820185 -0.18004239 
0.8428728 0.52788496 -0.10441723 
0.8624733 -0.09240166 0.49759609 
0.93917835 0.081236355 0.33368352 
0.9565242 -0.13525239 0.25839582 
-0.31642273 0.8687039 0.381091 
-0.1194787 0.84256524 0.52517503 
0.32803595 0.519093 0.78926224 
0.31791592 0.60403407 0.7308026 
0.29664457 0.116753355 0.9478242 
0.74015504 0.47361857 0.4773427 
-0.0661964 0.43266052 0.89912343 
-0.2048707 0.7472477 0.6321779 
-0.0025341262 0.50006175 0.86598605 
-0.042758413 0.52961254 0.8471614 
0.07034929 0.2649253 0.96169937 
-0.392773 0.5376991 0.74606246 
-0.56553805 0.51280975 0.6459047 
-0.28401825 0.5966822 0.75053585 
-0.46195072 0.6785222 0.57114726 
-0.4570208 0.841861 0.28705758 
-0.34348413 0.8282128 0.4428118 
-0.13884254 0.59901 0.7886126 
-0.09711087 0.54078066 0.8355392 
-0.21513668 -0.17910123 0.96002036 
-0.5173005 -0.0055249254 0.855786 
-0.4623023 0.034971796 0.8860326 
-0.2846557 0.35674134 0.88977903 
0.422222 0.11640244 0.8989879 
0.394284 0.22212116 0.8917413 
0.63728166 -0.09221459 0.7650939 
0.47417462 0.018048763 0.88024586 
-0.14969172 0.5643907 0.81182235 
0.6378606 0.6329338 0.43878096 
-0.66756946 0.67720693 0.30942193 
-0.4148911 0.8934736 0.17195997 
-0.047154732 0.99884534 -0.00919418 
-0.37994775 0.90439105 0.19420744 
0.3180383 0.9480779 2.8982913e-05 
-0.5045112 0.83131033 -0.23322059 
0.1335711 -0.021832319 0.9907987 
-0.15160763 0.83864975 0.5231462 
0.7244041 0.31866 0.61130565 
0.73183167 0.63352793 0.25112706 
0.36597654 0.8748324 0.31737918 
0.47289678 0.76322854 -0.44028503 
0.82869595 0.5562051 -0.062441107 
0.31074455 0.931078 -0.19113258 
0.42315367 0.9051602 -0.040325385 
0.24718714 0.8001512 0.5464949 
0.23664908 0.8741882 0.424019 
-0.29050395 0.7508419 0.5931643 
-0.4658083 0.8462991 0.2584579 
-0.48343077 0.8693219 0.102831714 
-0.77797985 0.627601 -0.029402325 
-0.032664146 0.8414185 0.5393959 
-0.42489654 0.36935648 0.82646155 
-0.0044100336 0.5983161 0.80124813 
0.7001531 0.20619594 0.6835707 
0.5960223 0.7381759 0.31599644 
0.46572766 0.71142876 0.5262764 
-0.010289128 0.9148461 0.4036715 
-0.2408409 0.9685825 0.0619982 
-0.44105643 0.7782023 0.44706875 
-0.6854574 -0.065762706 0.7251369 
-0.516727 0.17038769 0.8390241 
-0.8001975 0.47726265 0.36318657 
-0.51416004 0.46714014 0.7193188 
-0.80154335 -0.3956718 0.44829917 
-0.71241534 0.50069135 0.49170372 
-0.16897112 0.5739812 0.80124545 
-0.91513366 0.10306738 0.38975334 
-0.1389734 0.79206437 -0.59440774 
-0.17275342 0.8880393 0.42607802 
0.19124575 0.83331335 0.5186658 
0.68176323 0.5919689 0.42985088 
0.5671555 -0.10156324 0.8173247 
-0.39153972 -0.16594744 0.9050736 
-0.20632206 0.19643322 0.95856416 
-0.7182348 0.5349928 0.44488367 
-0.32557917 0.87769026 0.3516505 
-0.47724462 0.84251523 0.2498115 
-0.27435783 0.6992967 0.6600848 
-0.20879863 0.42805523 0.87930197 
-0.3802781 0.6119291 0.6934921 
-0.65078217 0.5946126 0.4721425 
-0.28648135 0.41741198 0.8623779 
-0.037384585 0.52103245 0.8527178 
-0.3114669 0.85025537 0.42432797 
-0.5960233 0.5451066 0.5895889 
-0.0636614 0.47204888 0.87927085 
-0.32586333 0.26025656 0.90888923 
-0.7516377 0.6584076 0.039246105 
-0.70837635 0.5892299 0.38860154 
-0.02288785 0.3227439 -0.9462096 
0.062953606 0.104039334 -0.99257886 
0.8480996 0.21605508 -0.48378438 
0.46322504 0.42167783 -0.7794938 
0.9298432 0.3652659 -0.04441331 
0.6902991 0.5966106 0.40932015 
-0.0076975627 0.6811667 -0.73208797 
-0.28425494 0.8788345 -0.3832092 
-0.74000096 0.54631823 -0.39234555 
-0.7947594 0.24474695 -0.5553886 
-0.15798923 0.760541 -0.62977517 
0.4150432 0.35889813 -0.8360211 
0.7391994 0.6670409 0.09295598 
0.18063332 0.97499883 0.12941755 
0.7476301 0.5150393 0.41926587 
0.6987752 0.31577286 0.64187294 
-0.21938889 0.6292628 0.74558496 
0.0064565027 0.6950524 0.7189302 
0.28777888 0.18480694 0.93969667 
0.81017053 0.2724487 0.51903313 
0.31674382 0.7418916 0.59099084 
0.6727391 0.12849194 0.7286371 
0.5060839 0.4940532 0.7069587 
0.6793104 0.70065445 0.21822189 
0.8932389 0.39031488 0.22311106 
0.42534524 -0.25865158 0.8672837 
0.40440348 -0.32131433 0.8562797 
-0.09895054 -0.3378082 0.9359992 
-0.2841389 0.3877625 0.8768725 
0.05986392 0.4580593 0.8869036 
-0.917189 -0.16220342 0.36394286 
-0.9255695 0.35440007 0.1331235 
0.36628506 0.66250795 0.65339005 
0.451532 0.5296032 0.7180804 
0.34932086 0.13340132 0.92745835 
-0.081308424 -0.14210741 0.9865062 
0.012794781 0.32621464 0.94520915 
-0.44643357 0.7452138 0.49533167 
-0.38408947 0.8925632 -0.2362335 
0.48001185 0.7895842 -0.38229 
0.06473427 0.64984006 0.7573093 
-0.31910402 0.6339903 0.7044353 
-0.73441 0.5360371 0.4163007 
0.323922 0.8747747 0.3603386 
-0.18860656 0.82952607 -0.52565604 
-0.50994694 0.7997697 -0.31673723 
-0.39015046 0.75484425 0.5272503 
-0.21012563 0.78917444 0.57710564 
0.27943116 0.7820353 0.5570808 
0.13514738 0.98103076 -0.13897428 
0.79370296 0.5726869 0.20509833 
0.4619643 0.7606172 0.45612562 
0.28418466 -0.12037458 0.951183 
-0.395241 -0.31717885 0.8620801 
-0.66785175 -0.2949037 0.68337834 
-0.27122304 0.7673001 0.5811098 
-0.07251676 0.71948713 0.69070953 
-0.25401828 0.96712476 -0.012018091 
-0.22674707 0.96984047 -0.089415744 
-0.72760373 0.13201183 0.673176 
-0.5625829 0.29497746 0.7723269 
-0.41733024 0.77045405 0.48190886 
-0.2037825 0.7209239 0.6623757 
-0.951196 0.21236537 0.22389105 
-0.874019 0.4858751 -0.004022295 
-0.4776878 0.87604743 0.06599459 
-0.6189325 0.5295025 0.58012915 
-0.445014 0.57148474 0.6894692 
-0.47537935 0.8618904 -0.176521 
-0.39580786 0.91140926 0.11255797 
-0.5773276 0.7604943 0.2972228 
-0.59257966 0.77910626 0.20455545 
-0.47839347 0.72426337 0.49657065 
-0.53483146 0.50331014 0.6787004 
-0.58786196 0.46915942 0.6590203 
-0.7466636 0.5756346 0.33337414 
0.08085083 0.84038043 0.53593284 
0.1200637 0.9484718 0.29323396 
-0.31027734 0.95014703 0.030798985 
-0.059068408 0.7875822 0.6133721 
0.803928 0.1693993 0.570091 
0.17600115 0.64814913 0.7408956 
0.12102571 0.19952908 0.9723893 
0.19091716 0.5307686 0.8257333 
0.3816979 0.22234103 0.89714617 
-0.080505066 0.20761807 0.9748917 
0.35704193 0.5116801 0.7814759 
0.22815591 0.009113988 0.973582 
0.05660723 0.18949452 0.9802487 
-0.06839757 -0.33169252 0.9409048 
0.07222894 -0.23996212 0.9680916 
0.4288763 -0.62499005 0.65226734 
-0.063417226 -0.9705517 0.2323955 
-0.0804446 -0.9961578 0.03461554 
-0.15837276 -0.95082533 0.26617536 
-0.35287815 -0.50000536 0.7908676 
-0.66685873 -0.3414675 0.6623439 
-0.45710617 -0.08924494 0.8849234 
-0.56745815 0.529754 0.6303586 
-0.48479092 0.15884092 0.86008567 
-0.45971942 0.67170405 0.58092326 
-0.26754785 0.51123 0.8167387 
-0.8414894 0.5303163 0.10324938 
-0.20982954 0.5990893 0.77269894 
0.38526458 -0.13147087 0.9133929 
-0.33962616 -0.50664735 0.7924409 
-0.21873003 -0.08301561 0.97224766 
-0.21197078 -0.0023569618 0.9772732 
-0.52765447 0.48832476 0.6950681 
0.2885654 0.55552644 0.7798207 
0.10178455 0.76789063 0.63244283 
0.23368874 0.8742519 0.4255272 
-0.14086159 0.42856294 0.892464 
-0.09014998 0.7457084 0.66014546 
-0.7287654 0.6636086 0.16889249 
-0.14191614 0.8484602 0.5098775 
-0.5238773 0.4454747 0.7260199 
-0.72709364 0.62232715 0.28990325 
-0.6544063 0.6398603 -0.40290353 
-0.15808664 0.963517 0.21597119 
-0.15817901 0.9859199 -0.054235585 
-0.45151076 0.84925175 -0.273696 
-0.5705379 0.551446 0.6085999 
-0.79569083 0.5984526 0.0934379 
-0.3246909 0.7963756 0.51025665 
-0.7953819 0.4770347 0.37390593 
0.516565 0.1990449 0.8327916 
0.28363347 0.88670194 0.36511886 
0.10090148 0.9461682 0.30754608 
0.8252657 0.56421196 0.024523845 
0.20263468 0.71817786 0.66570246 
-0.054983497 0.55876815 0.8274993 
0.49949774 -0.1308451 0.85637707 
0.32880726 0.4734586 0.81714314 
-0.607163 0.36153442 0.70756346 
-0.460456 0.76588935 0.4487693 
-0.27881312 0.3829835 0.8806742 
-0.37453976 -0.37270862 0.8490043 
-0.9244243 0.18009196 0.33616468 
-0.8641655 0.50283015 0.019489711 
-0.60677034 0.73125815 -0.31159484 
0.030985773 0.28186718 -0.95895296 
0.917046 0.29566994 -0.26759282 
0.8576265 0.21149103 0.4687732 
0.7764957 -0.16324131 0.6086105 
0.86460954 -0.16571409 0.4743303 
0.98067725 0.0039201127 0.19559331 
0.6943452 -0.08424813 0.71469367 
0.07056487 0.49811515 0.86423486 
0.445955 0.84093744 0.3065101 
0.41137192 0.81117237 0.41565913 
0.44096065 0.89159614 0.10300576 
0.93259215 0.3533749 -0.07347195 
0.64702153 0.76237464 -0.012169069 
0.4638735 -0.1551076 0.8722174 
0.5336381 0.4283557 0.7292063 
0.61288667 -0.13122608 0.77919817 
-0.32508662 -0.26698115 0.90721536 
-0.45151648 -0.09657337 0.8870212 
-0.17472914 0.14693141 0.97359174 
-0.20673321 0.22486699 0.952206 
0.28669882 0.8898981 0.35480306 
0.8677565 0.41964102 0.2662708 
0.9238283 0.34898454 0.15732487 
0.9407477 0.22460699 0.25405833 
0.7190554 0.1180011 0.6848614 
0.881296 0.22658366 0.41470143 
0.5088983 -0.04491665 0.85965407 
-0.3365503 0.388451 0.8578111 
-0.5278003 0.04253778 0.8483027 
0.32928175 0.08403841 0.94048446 
0.4325532 0.07744738 0.8982759 
0.6157495 0.4979193 0.61067915 
-0.06878207 0.16537361 0.9838296 
0.14686723 0.2919586 0.9450874 
-0.36603215 0.2163255 0.90510976 
-0.0670127 0.6937846 0.71705806 
0.3353929 0.4001441 0.85287535 
-0.45863426 0.4593452 0.76069486 
-0.51702845 0.30346182 0.8003703 
-0.11423254 0.24660376 0.9623604 
-0.08027256 -0.06887256 0.9943908 
-0.19153231 0.97921 -0.066806555 
0.09875706 0.546679 0.8314982 
-0.35825354 0.33224642 0.872506 
-0.0503097 -0.04652841 0.9976493 
-0.43903875 0.15806971 0.8844541 
-0.17014511 0.40851942 0.89675117 
0.2907289 0.36839798 0.88304 
0.31995437 0.1133725 0.94062525 
0.33532465 -0.079864316 0.93871146 
-0.05848958 -0.19520217 0.97901744 
0.26151106 -0.38378084 0.8856209 
0.08775822 -0.30574337 0.9480609 
0.18610954 0.121243656 0.97501963 
0.37464532 -0.357578 0.8554408 
0.07942128 0.85162455 0.5181004 
-0.823716 0.44135264 0.35594934 
-0.5145262 0.85518533 -0.0626168 
-0.6201971 0.53749067 -0.5713662 
-0.49897352 0.80503285 0.32085446 
-0.07347151 0.93714046 0.34113008 
-0.33991677 -0.24208608 0.9087634 
-0.511238 0.7920799 0.33353448 
0.40069482 0.9144647 -0.05655067 
0.8956715 0.39283925 0.2084463 
0.02031121 0.8296795 0.5578705 
0.6633043 0.74783003 0.027886245 
-0.08162716 0.9964874 -0.018705314 
-0.055922043 0.869152 -0.4913732 
0.27650246 0.8490999 0.45008424 
0.41452387 0.7385903 0.53165257 
0.2541312 0.6279634 0.735581 
-0.33275685 0.68954307 0.64327544 
-0.5350797 0.5565925 0.63552696 
-0.054993153 0.9689738 0.24096785 
-0.26074934 0.7928661 0.5507933 
-0.18552125 0.78509104 0.59094334 
0.08548727 0.6521249 0.75327617 
0.53700167 0.7371465 0.41017598 
0.51749825 0.6928156 0.50219727 
0.26971725 0.9627757 -0.017765623 
0.2239086 0.26362374 0.938279 
0.050574616 0.8447704 0.53273386 
-0.32312107 0.8650088 0.38386548 
0.09751789 -0.0038612275 0.9952263 
0.46426135 0.45013186 0.76278627 
0.68347883 0.09830232 0.72332114 
-0.20307396 0.12919591 0.97060263 
-0.29334885 -0.04187011 0.95508814 
-0.61334425 0.7849351 0.08766817 
-0.7134473 0.2549887 0.6526667 
-0.45255357 0.69387174 0.56012255 
-0.2715624 0.7465755 -0.6073541 
0.056469884 0.9320057 -0.35801768 
-0.3682055 0.7321302 -0.57307076 
0.101835445 0.32973954 0.93856347 
0.16773538 0.116123274 0.97896904 
0.8187707 0.34163836 0.46140853 
-0.5567567 0.6830904 0.4726623 
-0.06490291 0.17945008 0.9816238 
-0.20458256 0.5422133 0.8149544 
-0.5075625 0.4150048 0.7550836 
-0.43362516 0.70925355 0.5558136 
-0.3882187 0.2034033 0.89884007 
0.03481058 0.4174162 0.9080485 
0.07528975 0.7709896 0.6323816 
-0.3904677 0.28621253 0.8749956 
0.2447483 0.18613428 0.9515527 
-0.56908435 0.4524109 0.6866349 
-0.36378205 0.31594202 0.8762667 
-0.53553516 0.08657774 0.8400634 
-0.33273673 -0.26195645 0.90590566 
-0.7197292 0.6427224 0.26248395 
-0.21115388 0.3460991 0.91412777 
-0.6124864 0.70924133 0.34905183 
-0.60710144 0.7681385 -0.2034478 
-0.4850867 0.8551501 0.18278186 
0.60527855 0.7281356 -0.32164657 
0.5099343 0.6250343 -0.59101546 
0.81294245 0.50937134 0.28225076 
-0.14009877 0.3437116 0.928566 
-0.52510846 0.71745205 0.45773774 
-0.793855 0.42285877 0.43701795 
-0.9276468 0.36510187 -0.078561865 
-0.2714542 0.44376564 -0.85404027 