# OOMMF: rectangular mesh v1.0
# Segment count: 1
# Begin: Segment
# Begin: Header
# Desc: Time (s) :  1.5699999999999986e-07
# Title: m
# meshtype: rectangular
# meshunit: m
# xbase: 2e-09
# ybase: 2e-09
# zbase: 5e-10
# xstepsize: 4e-09
# ystepsize: 4e-09
# zstepsize: 1e-09
# xmin: 0
# ymin: 0
# zmin: 0
# xmax: 1.024e-06
# ymax: 1.024e-06
# zmax: 1e-09
# xnodes: 256
# ynodes: 256
# znodes: 1
# ValueRangeMinMag: 1e-08
# ValueRangeMaxMag: 1
# valueunit: 
# valuemultiplier: 1
# End: Header
# Begin: Data Text
0.14433557 -0.93157643 0.33366537 
0.77770495 -0.32417044 0.5385987 
0.6899671 -0.18826033 0.6989303 
0.49827605 0.27834147 0.82112545 
-0.046463806 0.39615467 0.91700745 
-0.19236079 -0.13551678 0.97192216 
-0.6100666 -0.61428654 0.5004706 
-0.5788048 -0.78767467 -0.21107766 
-0.6960388 0.6199201 0.3622556 
-0.36952898 0.83062804 0.41654012 
0.01969315 0.43594748 0.8997566 
-0.6213879 0.5395097 0.56816053 
-0.8800818 0.2513188 0.40285847 
-0.45195463 -0.83131295 0.32350546 
-0.61578447 -0.20846713 0.7598361 
-0.38566428 0.29007742 0.87585294 
-0.3275819 0.6037117 0.72678906 
-0.5338035 0.36172527 0.7643355 
0.203291 0.21630141 0.95492744 
0.52825505 0.72885305 0.4355685 
-0.5515405 0.73723656 0.39023754 
-0.70514834 0.3779364 -0.5999416 
-0.13807748 0.9777735 0.1577776 
-0.356702 0.35586846 0.8637832 
0.31810135 0.34093127 0.884634 
-0.5800442 -0.26143342 0.771493 
-0.48238298 0.40933606 0.77443576 
-0.06537607 0.9673691 -0.24479185 
0.20099172 0.8548062 0.47844413 
-0.07590386 0.8515189 0.51880085 
-0.015404173 0.6081537 0.7936699 
0.08117256 0.5989465 0.7966643 
0.017861374 0.9704389 0.2406853 
0.029663106 0.7323459 0.6802865 
0.61266696 0.45641392 0.645233 
0.68788797 0.22820091 0.68900985 
-0.16055442 0.3797108 0.9110665 
-0.22094436 0.4210596 0.87971157 
-0.10313894 0.53692496 0.8373017 
0.23492177 0.721854 0.65095216 
0.520054 0.2064876 0.8287984 
0.09437013 0.59831274 0.795686 
-0.461137 0.6148204 0.6398035 
-0.7017727 0.712359 0.0077341613 
-0.6425598 0.61955875 -0.45084792 
-0.028496461 0.9891399 -0.14418808 
-0.4014085 0.8074928 0.43223462 
0.860976 0.2673285 0.4327307 
0.3511347 0.74203664 0.5710396 
0.4609198 0.5895701 0.66329485 
-0.30815244 -0.8040954 0.50840235 
-0.33064982 -0.039483663 0.94292724 
-0.71125597 0.1903542 0.67666847 
-0.95522135 0.29508916 -0.021787306 
-0.27288142 0.55347633 -0.78689253 
-0.019088138 0.031872995 -0.9993097 
0.4188705 0.5783075 -0.7000772 
0.08725274 0.7738348 -0.627349 
0.16489877 0.9448638 -0.28291506 
-0.22028616 0.9600908 0.17233588 
-0.6141906 0.7735985 -0.15593435 
-0.45408836 0.6166842 -0.64304316 
0.05650126 0.9374661 -0.3434606 
0.3889734 0.81877077 -0.42227268 
-0.2610851 0.94648737 0.18972696 
0.13272093 0.13733491 0.9815927 
-0.22071688 0.5934823 0.77399147 
0.82730865 0.5366053 0.16617808 
0.24721119 0.5543556 0.79471797 
-0.29934233 0.43232426 0.85058206 
-0.23727807 0.89620787 -0.3748474 
0.7291533 0.6172743 0.2954793 
-0.974272 0.22048244 0.046707194 
-0.52873063 0.73634803 -0.42217946 
-0.7473271 0.4953656 -0.442849 
-0.5817448 -0.4061591 -0.70470405 
-0.4356032 -0.5873444 -0.6821117 
0.3511658 -0.31939587 -0.8801528 
0.87437916 0.3944648 -0.28259262 
0.67104095 0.6937695 0.26151073 
0.63600254 0.5483445 0.5429725 
0.16386613 0.7508319 0.6398432 
-0.12358147 0.20307818 0.97133255 
-0.25358614 0.57764816 0.7758974 
0.60498273 -0.15285872 0.7814284 
0.36704907 0.81383437 0.45049813 
0.2532926 0.72696394 0.6382526 
0.30863196 -0.13836059 0.9410647 
-0.038833257 0.49358022 0.8688328 
0.23026349 0.9368146 0.26335767 
-0.082264565 0.91976136 0.3837599 
-0.5597109 0.82450783 -0.083129615 
-0.5584786 0.81141716 -0.17234834 
-0.34003544 0.3859838 -0.8575502 
0.5617692 0.8181393 0.12273363 
-0.19994769 0.9776787 -0.06453894 
0.15788741 0.8035414 -0.57392764 
-0.25732726 0.93515074 -0.24346603 
0.5626228 0.43483466 -0.7031177 
0.9208147 0.34624764 0.1794795 
0.48159707 0.7984943 0.36120796 
-0.054405056 0.976404 -0.2089864 
0.106016815 0.70096856 -0.70526844 
0.6433715 0.7378897 -0.20394081 
0.24087381 0.59165984 0.7693624 
-0.11326544 0.8474167 -0.518706 
0.20739257 -0.21889605 0.9534532 
0.23746327 -0.07182876 0.96873724 
0.11303544 0.47653136 0.8718606 
-0.0009112316 0.57659924 0.8170267 
-0.24656813 0.7001469 0.67007357 
-0.63101333 0.66703975 0.39608115 
-0.13753812 0.90810895 0.39550164 
0.40013352 0.91140676 0.09607816 
0.22821787 0.7707096 0.59491456 
-0.6141337 0.7629947 0.2016903 
-0.73349065 0.6796611 -0.007240662 
-0.46718147 0.11404412 -0.8767757 
-0.08336608 0.4188053 -0.90424126 
-0.24199437 0.8764489 -0.41626453 
-0.08199826 0.755512 -0.649983 
0.22514507 0.67573345 -0.70192164 
0.63956887 0.6922041 0.3343728 
0.18801214 0.91708964 0.35156515 
-0.11287451 0.86097085 0.4959723 
-0.32988954 0.8560541 0.3979249 
-0.32415578 0.8217488 0.46867055 
-0.47263727 0.6475919 0.59769464 
-0.34759283 0.79387003 0.4989484 
-0.2577103 0.8983542 0.3557319 
-0.2635304 0.80152965 0.5367513 
-0.13704331 0.98949975 -0.045928102 
-0.39154404 0.92011696 0.008841132 
0.024169778 0.84224653 -0.5385504 
0.03003768 0.99245477 0.11887509 
-0.7652156 -0.057803016 0.64117396 
-0.79164934 0.076656245 0.6061479 
-0.75305665 0.5850857 0.3009661 
-0.2820935 0.08038007 0.9560138 
0.16946189 0.23617348 0.9568202 
-0.6888242 -0.7061322 -0.16400827 
-0.48136583 0.87349176 -0.07279483 
0.18915938 0.9788379 0.07807091 
-0.1396681 0.98958707 -0.034788977 
0.13621095 0.69528383 0.70571035 
-0.5709934 0.68405414 -0.4539125 
0.9237371 0.35317564 0.14824612 
0.56286585 0.74570084 0.35652828 
0.3474958 0.82083774 0.45329046 
0.33756286 0.86818326 -0.3637434 
0.6595621 0.7066707 -0.25611383 
0.44877917 0.60726506 -0.6556115 
0.6391965 0.5115455 -0.5742379 
0.35761452 0.3609515 -0.8612932 
0.7430747 0.6608165 0.10564845 
0.47005504 0.2998872 0.83013004 
0.24508141 -0.045855988 0.96841747 
0.7927809 0.041551005 0.6080888 
0.5948986 0.6515293 0.4707497 
0.13998711 0.36486885 0.9204751 
0.4843629 0.8328372 0.26790798 
0.49077892 0.85932434 0.14386761 
0.5012831 0.8636846 -0.052574243 
0.38240203 0.5122863 0.76898086 
0.04224239 0.11319099 0.9926749 
-0.54170823 0.63837534 0.54683554 
-0.07895251 0.5889471 0.80430585 
0.9451884 0.32417163 0.039137255 
-0.2761627 0.8247848 0.49342087 
-0.42844212 0.81181306 0.39673296 
-0.24957268 0.7853577 0.566504 
-0.2729034 0.5059376 0.81826097 
-0.5102315 0.043281227 0.85894734 
-0.5470416 0.8371027 0.0021082365 
-0.92308974 0.36259586 -0.12817882 
0.2437413 0.5589118 -0.79259574 
0.057454288 0.9973593 0.04442449 
-0.53195596 0.8193586 -0.21371591 
-0.6184566 0.73496544 -0.27809575 
-0.1665493 0.41898495 -0.8925879 
-0.29912972 0.35220236 -0.88683426 
0.020849945 0.3920869 -0.9196919 
0.37516 0.72518384 -0.57737625 
0.4483414 0.62613964 -0.63791794 
0.2810504 0.82143676 -0.4962384 
-0.17470288 0.9416908 -0.28757152 
0.14550325 0.9865823 0.07405592 
-0.026703268 0.69695884 0.7166139 
0.42748475 0.5818824 0.6918596 
-0.33690843 0.27376097 0.9008595 
-0.59658974 0.2892012 0.7486277 
-0.4169533 0.83330065 0.3629875 
0.49209476 0.63543165 -0.5950374 
0.67796755 0.7140768 0.17451197 
0.49923888 0.54431415 0.6741533 
-0.6731858 0.69583285 0.25027487 
0.2372115 -0.37257186 0.8971738 
-0.35816905 0.42228478 0.8327007 
-0.4494139 0.51197207 0.73205996 
-0.2770096 0.9605425 -0.024976723 
0.26660392 0.96380234 0.002715008 
-0.18326244 0.9579927 0.22060147 
-0.37273037 0.92564994 -0.06514797 
0.0059071607 0.9974562 -0.071037866 
0.7696942 0.5824295 -0.26143196 
0.8554922 0.5075474 0.10261038 
0.8709247 0.47806436 0.113775216 
0.5810028 0.29383913 0.7590089 
0.6552957 -0.032565378 0.7546702 
0.21383247 -0.03645903 0.9761898 
0.23748757 -0.41441464 0.8785557 
-0.3651287 -0.23886044 0.8997927 
-0.24620526 -0.515319 0.82087106 
0.034978606 -0.39868408 0.9164211 
-0.34576318 0.06556684 0.9360283 
-0.46139714 -0.42740253 0.7774573 
0.8991995 -0.20191254 0.3881644 
0.06734207 0.41067874 0.9092899 
0.1259631 0.7571488 0.64098287 
-0.16895857 0.6419714 0.7478809 
-0.6698007 0.6546869 0.35036013 
-0.07690269 0.87958664 -0.46948197 
0.21674898 0.96138585 0.16957912 
0.36114883 0.9135545 0.18705578 
-0.43512836 0.89918107 -0.046225417 
0.9322966 -0.10077813 0.34737125 
0.931469 -0.06778606 -0.35744995 
0.7956373 0.3840266 -0.46849212 
0.33086282 0.65182906 -0.6823846 
0.8141291 0.50298417 0.29017383 
0.6114198 0.40419284 0.68028975 
0.5195877 0.40277126 0.7535277 
0.4050631 0.15110868 0.9017151 
-0.260828 0.05068863 0.9640537 
0.013626227 0.20271645 0.97914267 
0.6390071 0.3693986 0.67469597 
0.50827616 0.8071213 0.30035102 
0.5467216 0.77981275 0.3049389 
0.95625997 0.051085923 0.288023 
0.36819512 0.4159959 0.83149254 
0.1927928 0.31987175 0.9276384 
-0.43030494 -0.42368558 0.79707485 
-0.14687929 -0.20377631 0.9679368 
0.46013415 0.22301686 0.85938346 
0.05567587 0.5177035 0.8537466 
-0.49623585 0.36946946 0.7856477 
-0.12534268 0.7417304 0.6588819 
0.2670374 0.7933245 0.5471083 
-0.4512372 0.8190099 0.3544118 
0.35384992 0.9336632 -0.055347826 
0.58781236 0.8073841 -0.051064402 
-0.37501377 0.75896597 0.53229254 
0.20951283 0.85419226 0.47587815 
-0.76570076 0.4512167 0.45837307 
-0.83430576 0.34055582 0.43353865 
-0.05796336 0.87974024 0.47190842 
0.9138118 0.2679492 -0.3052069 
0.98134315 -0.022807736 0.19090687 
0.7669287 -0.39223212 0.5079119 
0.90218127 0.04687621 0.42880258 
0.48028275 0.55267614 0.6810856 
-0.8671024 0.1266413 0.48176298 
-0.35460046 -0.15994695 0.9212359 
-0.8115763 0.07912976 0.5788631 
0.093103476 0.7739709 0.6263392 
-0.4213365 0.5002305 0.7564689 
-0.4026062 0.43237665 0.8068202 
-0.6423498 0.36685622 0.67290664 
-0.89023626 0.21642968 0.40079626 
-0.903965 0.25591815 -0.34256852 
-0.6773065 0.093682244 0.72971207 
-0.6308434 0.51350653 0.5816767 
-0.6846814 0.022531537 0.72849417 
0.047227073 -0.27019846 0.96164566 
0.4759846 -0.07049722 0.8766235 
0.585675 0.33900198 0.73624897 
0.1852213 0.87827337 0.4408278 
0.0818204 0.9307907 0.35627812 
0.647376 0.65461254 0.39036748 
0.34662092 -0.046915077 0.93683136 
-0.047207847 0.33270994 0.94184685 
-0.8208972 0.10708555 0.560946 
-0.7144903 -0.07052466 0.6960818 
-0.59369457 0.6516569 0.4720912 
-0.5806766 0.7831327 0.22252664 
-0.71751845 0.67266476 0.18080245 
-0.39285633 0.8693642 -0.29978317 
-0.10238513 0.92663324 -0.36175707 
0.39868763 0.8518803 0.33962974 
0.5339134 0.33719218 0.77539545 
0.27216136 -0.011803221 0.9621793 
0.13528466 0.3242654 0.9362425 
-0.36501786 -0.024304168 0.9306833 
0.23010698 0.030340906 0.97269225 
0.019664386 -0.2134481 0.97675645 
-0.12283616 0.5146429 0.84856 
0.69921106 0.044445492 0.71353245 
0.03628034 0.9000031 0.43437126 
-0.27664727 0.79461277 0.5404229 
-0.5754777 0.60412014 0.5512389 
-0.6741827 0.2834473 0.6820084 
-0.3491681 0.6521512 0.6728897 
-0.5757084 0.50607175 0.6422237 
0.38664946 0.5442295 0.74452436 
0.56564665 0.48644027 0.6658978 
0.14554596 0.779015 0.60987866 
-0.26100716 -0.1675565 0.950684 
-0.10896559 -0.2524867 0.9614452 
-0.8537586 0.5185851 0.046540663 
-0.7125353 0.643196 -0.2803434 
-0.528477 0.74256194 -0.4114778 
-0.21342832 0.7806043 -0.5874567 
-0.52577937 0.56570286 -0.6352451 
-0.29324684 0.9126464 -0.28475067 
-0.28845876 0.957417 0.012011617 
0.0683934 0.8124647 0.578985 
-0.21398044 0.923645 0.31795022 
0.0335262 0.51607186 0.8558889 
0.35150006 0.8953375 -0.27352977 
0.776327 0.60096663 -0.1901459 
0.012980245 0.84830475 0.5293493 
0.29904842 0.6497937 0.698812 
-0.18965414 0.7266681 0.6602915 
0.06282435 0.8109179 0.5817778 
0.30553418 0.8415912 0.44539103 
-0.17613266 0.36702603 0.91338336 
-0.4050822 -0.00037544777 0.91428024 
-0.05830512 0.70119363 0.710583 
-0.80590874 0.55326414 -0.21073692 
0.010653742 0.9990264 -0.04281162 
0.27808437 0.0979084 -0.9555538 
-0.15379082 0.18876268 -0.9699057 
-0.41873044 0.25374112 -0.87194055 
0.1326462 0.5343433 -0.8347948 
0.2471643 0.96124774 -0.122117735 
0.5273985 0.77939874 0.33821344 
0.6789314 0.58107984 0.44877443 
0.44441935 0.6735561 0.59060454 
-0.18483117 0.67690873 0.712483 
-0.017659927 0.8545134 0.519129 
-0.07742477 0.43617693 0.8965239 
0.44857478 0.20207733 0.8706007 
-0.14329171 0.46904364 0.8714733 
0.24212238 -0.16551612 0.9560237 
-0.05487372 0.4552982 0.88864636 
-0.3035488 0.79895556 0.5191611 
0.12411963 0.7100878 0.69308716 
0.2883644 0.61644644 0.73269355 
0.6092411 0.52341706 0.5957012 
0.5348634 0.8392563 0.09782633 
0.60063404 0.7890904 0.12874487 
-0.09955786 0.9422125 0.3198809 
0.62036383 0.74894714 -0.23286684 
-0.14163394 0.93027014 -0.3384337 
0.59294933 0.801406 0.07848294 
0.90835947 0.41799337 -0.012830123 
-0.20640798 0.97771066 0.038440432 
0.3095788 0.9483031 -0.06987376 
0.43242654 0.80357057 -0.4090009 
0.84928447 0.3924655 0.35311025 
0.1122738 0.9651328 0.2364601 
-0.55516976 0.80525553 0.20820686 
0.26979986 0.2909291 0.9179153 
0.16901544 0.32654417 0.9299477 
0.15855055 0.072306484 0.9846997 
-0.09491734 0.060387578 0.99365187 
0.0910724 0.3642975 0.9268189 
-0.7437758 0.39721984 0.5376003 
-0.09372659 0.99559444 0.002684821 
-0.16682526 0.9645405 0.20452665 
-0.8021276 0.3529799 0.48166013 
-0.67541754 0.4456964 0.5875083 
-0.79918766 0.51668495 0.30714142 
-0.6698394 0.7338922 -0.112771586 
0.35438502 0.92781496 0.1164941 
-0.18456978 0.9763783 0.11233611 
0.884969 0.4641601 0.037218597 
0.4815069 0.81656045 0.31840265 
-0.12202536 0.52106154 0.8447513 
0.18803628 0.7664739 0.6141338 
0.03689782 0.6331195 0.77317417 
0.01833051 0.37531146 0.92671746 
-0.5460514 0.12428417 0.8284814 
-0.15131836 0.67591447 0.72127837 
0.1691116 0.88534087 0.43309677 
0.19196516 0.81578535 0.54556733 
-0.02301377 0.8145929 0.5795765 
0.7043154 0.7033074 -0.09642908 
0.15463872 0.96992314 0.18797868 
0.21403673 0.62907004 0.7473013 
-0.7407635 0.25250307 0.6225044 
-0.7789908 0.45535457 0.431075 
-0.24518068 0.80608696 0.53861874 
-0.07394364 0.96980447 0.2324043 
0.09094682 0.9924105 0.08276537 
-0.023314545 0.41746145 0.9083955 
0.06635472 0.2045245 0.9766099 
-0.3823119 0.3967632 0.83451575 
-0.023095366 0.7838427 0.62052983 
-0.19322397 0.9550787 0.22469816 
0.42361236 0.7016449 0.5729285 
0.18398844 0.5887784 0.7870758 
0.67852724 0.5863468 0.4424909 
0.98015153 0.15475191 -0.123914964 
0.69444406 0.47402662 0.5413375 
0.6148111 0.7609069 0.20743196 
0.3299615 0.7233162 -0.6065799 
0.38749087 0.65536237 -0.64834493 
0.7750218 0.47512493 0.41665056 
0.436364 0.6768131 -0.5928833 
0.9035658 0.2692534 -0.33327404 
0.75386953 0.5427579 -0.3702628 
0.6989417 0.69800985 0.15576541 
0.047030244 0.4854358 0.87300646 
0.48875532 0.8686955 -0.080539174 
0.792357 0.53704715 0.2893973 
0.5537131 0.7355256 0.3903894 
0.1342087 0.3055804 0.94266045 
0.2025439 0.87675714 0.43620294 
0.23669457 0.5944438 0.768513 
-0.008272087 0.2489132 0.96849054 
0.54754806 0.09713429 0.83111745 
0.13476953 0.82622397 0.5469837 
0.58260167 0.7936384 0.17525238 
-0.24203786 0.201058 0.9492067 
-0.18583861 0.5981197 0.7795621 
-0.68860096 0.46020642 0.5603918 
-0.44707757 0.49808294 0.7429907 
-0.8112842 -0.06326332 0.58121926 
-0.92596793 0.33228877 0.17935331 
-0.9346863 0.28780144 -0.20864294 
0.037062634 0.96114236 -0.27355424 
-0.36227307 0.8819146 0.301637 
-0.5628688 0.8245903 -0.05683005 
-0.3769691 0.8637168 -0.33449593 
-0.25549355 0.30890235 -0.9161346 
-0.30183706 0.6229723 -0.7216647 
-0.096584424 0.75645655 -0.64687324 
0.47400177 0.7358433 -0.48358762 
0.48442498 0.739709 -0.46707943 
0.2923511 0.85699403 0.4243728 
-0.012735987 0.44757187 0.89415723 
-0.41121358 0.69763047 0.58669853 
-0.9211119 0.030581396 0.38809505 
0.13333254 0.87158144 0.47177148 
-0.29008815 0.7332358 0.61499125 
-0.41853288 0.24355412 0.8749353 
-0.5412909 0.7210963 0.43246317 
-0.0083984975 0.96321356 0.26860586 
-0.10721006 0.9913181 0.0761223 
0.05713727 0.72736907 0.68386376 
-0.46449193 0.77808064 0.4228924 
-0.9164115 0.26692703 0.29822823 
-0.39906123 0.20168449 0.89446837 
-0.33686954 0.45779207 0.82276696 
-0.4922208 0.4429019 0.7493709 
-0.15351701 0.6408197 0.7521853 
-0.26621076 0.94868636 0.17066322 
-0.49088317 0.8708913 -0.024129197 
-0.4990635 0.8632838 -0.075344466 
-0.33768833 0.94081104 -0.029004881 
0.58113515 0.7127519 0.39276803 
0.43471792 0.54454213 0.7172826 
-0.0051993914 0.32198563 0.94673026 
-0.5930792 0.019283172 0.8049132 
0.66040754 -0.29299447 0.6913871 
0.5453649 0.5619825 0.6218945 
-0.099882215 -0.40697208 0.90796334 
-0.39347687 -0.3133595 0.86428106 
-0.5836439 0.017859265 0.81181335 
-0.32010508 0.061306182 0.94539636 
0.04135189 0.14032297 0.9892419 
-0.38375285 0.68542624 0.61880904 
-0.005044528 0.6757304 0.73713166 
0.22051032 0.78158855 0.5835192 
-0.34294418 0.38809717 0.85543543 
-0.6567749 0.58202994 0.47946632 
-0.4719932 0.8632182 0.17909998 
-0.39659226 0.571915 0.7180724 
-0.7511903 0.5264412 0.39821228 
-0.28934795 0.92808944 -0.23436682 
0.85670495 0.49570632 -0.14259066 
0.34269837 0.93576074 -0.08312428 
0.7480196 0.660593 0.06390417 
0.09832883 0.957007 -0.27289033 
0.7118171 0.6849523 -0.1554244 
0.37888896 0.7679256 0.5164624 
0.6057221 0.2620462 0.7512873 
0.19430187 0.4134461 0.8895555 
0.15086038 0.29221642 0.94437855 
-0.05211794 0.47826245 0.87666917 
0.27562764 0.27000833 0.9225643 
0.56085366 0.67024267 0.48602268 
0.6556877 0.7496897 0.08966091 
0.98419124 0.14408745 -0.102987744 
0.6342346 -0.046096202 0.77176535 
-0.40061525 0.25314 0.88058364 
-0.8571974 0.21585314 0.46756846 
0.06224368 0.053649176 0.99661803 
0.49825302 -0.09656486 0.86163753 
0.7602996 -0.06577627 0.64623386 
0.39021555 0.592105 0.7050841 
0.28752193 0.8128473 0.5065672 
-0.13598981 0.48687303 0.8628219 
0.079703994 0.61198634 0.78684187 
0.042218834 0.5549324 0.8308234 
0.21175689 0.74097127 0.637276 
0.19845171 0.63510877 0.7464944 
0.12358868 -0.5320736 0.83762974 
-0.69237643 0.24395601 0.67904377 
-0.45522416 0.40970266 0.79051554 
-0.52295834 0.8467872 0.09729301 
0.71183467 0.6215554 0.3270481 
0.46329674 -0.09235033 0.8813783 
0.7237886 -0.55893415 0.40462676 
0.6362947 -0.070306204 0.7682357 
0.92972344 0.046259634 0.36534157 
0.012239843 -0.2132181 0.976928 
-0.2213006 -0.32546768 0.9192915 
0.0043484247 -0.059397906 0.998225 
0.086217545 -0.45472682 0.8864481 
-0.8412098 -0.18134865 0.50939053 
-0.43742588 0.46118078 0.7719915 
-0.7360852 0.41321397 0.5361277 
-0.42314854 0.58784324 0.6894823 
-0.28719485 0.31473884 0.90468705 
-0.5341916 0.3330431 0.77699536 
-0.47307545 0.84497845 0.24942175 
-0.708553 0.611647 0.35191002 
-0.342335 0.5479676 0.76324195 
0.30528834 0.50213784 0.8091086 
0.5271375 0.03544844 0.84904027 
0.2743398 0.3535705 0.8942739 
0.008623361 0.5619881 0.82710034 
0.17621227 0.7505391 0.636899 
0.68512785 0.24963792 0.6843105 
0.2254888 0.74609196 0.62649953 
-0.8220505 -0.1585317 0.54690105 
-0.21453801 -0.8610121 0.46112 
-0.26405624 -0.6034696 0.75239533 
-0.79313123 0.42623612 0.43504685 
-0.7248378 0.68064797 0.10643588 
-0.080411434 0.670095 0.737907 
0.30031514 0.9500129 0.08535939 
0.29685536 0.9382815 -0.17749614 
0.76019907 0.41960335 0.4960145 
0.29681763 0.26520202 0.9173698 
-0.15935236 -0.7524303 0.6391053 
0.0029142953 -0.4510252 0.89250654 
0.2950741 -0.068886414 0.95298797 
-0.22690946 -0.19600435 0.95398873 
-0.36463067 -0.61564934 0.6985846 
-0.10477537 0.3346792 0.9364892 
-0.030303657 0.48270154 0.87526053 
0.03163569 0.32006073 0.9468687 
0.0927646 0.08340677 0.9921886 
0.22142722 0.36048728 0.906101 
0.28001827 0.8710703 0.4035175 
-0.07220091 0.9220733 0.380221 
0.69935656 -0.28494406 0.65552074 
-0.29545382 -0.059051763 0.95353025 
-0.25588155 -0.19786884 0.9462414 
-0.50876236 -0.076595575 0.85749286 
-0.32967022 -0.5820386 0.7433362 
0.16737247 0.15803604 0.973145 
0.26788414 0.7804365 0.5649398 
-0.31050983 0.936264 0.16429706 
-0.30590534 0.91053283 -0.27812204 
-0.5683843 0.8216741 -0.04231882 
-0.15312387 0.917167 0.3679101 
-0.35705844 0.38996053 0.8487874 
-0.12913692 0.26582864 0.95533186 
-0.25338805 0.50857973 0.8228859 
-0.41309774 0.28752258 0.8641072 
0.11533684 0.34972435 0.929726 
-0.01969855 0.9162991 0.40001005 
0.08231627 0.6892461 0.719836 
0.17649396 0.77785957 0.6031454 
0.5231856 0.4388645 0.73053056 
0.09009521 0.47663766 0.87447095 
0.121006496 0.5187709 0.8463063 
0.28487974 0.5214648 0.80431217 
0.8695954 0.13997261 0.47350967 
0.43285108 0.9013338 0.015405409 
0.09972703 0.9445931 0.31272763 
0.18258752 0.9726195 0.14378142 
-0.569837 0.7877781 0.23386207 
0.11678977 0.55931246 -0.82068866 
0.33325973 0.810376 -0.48190126 
0.85400313 0.06869351 -0.51571304 
0.7957792 0.53686696 0.2801952 
0.45770666 0.8733741 -0.1665001 
0.59733814 0.38801178 0.70187896 
0.6726937 0.66206735 0.3303788 
-0.39166862 0.7140814 0.5802444 
0.090729624 0.98950857 0.11243184 
0.11919222 0.7860877 0.6065142 
0.07557112 -0.49035686 0.8682392 
0.64633435 -0.6649691 0.3742568 
0.8076034 -0.059952848 0.58667064 
-0.2643789 0.67694914 0.68690884 
0.035821542 0.5282748 0.8483176 
0.1472149 0.1950863 0.9696748 
0.15147506 0.13361351 0.97938895 
0.42932737 0.1253337 0.89441013 
0.3507507 0.89265877 0.2830803 
-0.015079299 0.5216611 0.85301954 
-0.39353263 0.4200783 0.81772023 
0.3157452 0.8348004 0.45101365 
0.04553657 0.79350984 -0.60685146 
0.042907044 0.75236297 -0.65735006 
0.74745715 0.5403088 0.38648972 
0.09619912 0.6616218 0.7436413 
-0.53719777 0.8235663 0.18209127 
-0.057675924 0.7898951 0.6105238 
0.3538577 0.6957245 0.6251018 
-0.024728043 0.7316695 0.68121094 
0.0023707682 0.41461483 0.9099939 
0.28390247 0.1428589 0.9481513 
0.10828437 0.6956673 0.710156 
0.63915235 0.4034791 0.6547434 
0.39501834 0.12867488 0.9096172 
-0.09800289 0.7740302 0.6255179 
-0.15617917 0.7455238 0.64792156 
0.12035289 0.48379365 0.86686724 
-0.2792033 0.20846367 0.93733054 
-0.625068 0.2718114 0.7317162 
-0.5569496 0.066814914 0.8278544 
-0.9699095 0.08480575 0.22821832 
-0.3673317 0.8850558 -0.28590864 
0.50358665 0.8599984 0.08248148 
0.7064263 0.6870362 0.17012705 
0.8195487 0.511558 0.2581632 
0.5755482 0.53640485 0.6172635 
0.65273815 -0.29768783 0.6966455 
0.39700046 0.13944049 0.90716434 
0.5052811 -0.23306333 0.8308866 
-0.067194335 -0.07633108 0.9948158 
-0.02017169 -0.10565514 0.9941982 
-0.348385 0.25760525 0.9012589 
-0.4000007 0.7933685 0.45887464 
-0.19494134 0.58867323 0.78451383 
0.11942933 0.8773765 0.4647013 
-0.017232299 0.9885163 -0.15012881 
0.34264916 0.83501184 0.43051937 
0.3049002 -0.056860052 0.95068544 
-0.35760313 0.21849495 0.90795374 
-0.26996356 0.67043203 0.6911155 
0.23986548 0.15027587 0.95910466 
-0.20415767 0.4365357 0.87621707 
0.31415358 0.4451199 0.8385559 
0.56737053 0.16203654 0.8073629 
0.39840728 0.13826738 0.906727 
-0.15110835 0.5365653 0.8302192 
-0.1845438 0.6574489 0.73055094 
0.62401366 -0.06817576 0.77843374 
0.5165533 0.416529 0.74811524 
0.88743854 0.3766754 0.26564708 
0.8580585 0.18924358 0.4774123 
0.08795287 0.7030967 0.705634 
0.08065475 0.47675237 0.8753296 
0.7405205 0.4207223 0.5240442 
0.23838393 0.9198206 -0.3116139 
0.45178398 0.80151135 -0.39175355 
0.85690075 0.39366388 -0.33279097 
0.80531824 0.4417289 -0.39539617 
0.54765666 0.83446014 -0.061224103 
0.51510483 0.8239661 -0.23610768 
0.53106946 0.49054027 0.69089484 
0.12265475 0.84192467 0.52547 
0.019237207 0.9431886 0.33170053 
0.8300308 0.4309843 0.35397956 
0.48957714 0.7608406 0.4259529 
0.61306906 0.5278407 0.5878185 
0.0071865427 0.8497496 0.52713764 
0.1311931 0.22529452 0.9654174 
0.568137 -0.12866792 0.81281304 
0.117947675 0.3935835 0.911691 
0.25555643 0.81969917 0.5126249 
-0.53950316 0.3904659 0.7459711 
-0.40861636 0.5103169 0.75670964 
-0.5418584 0.18286824 0.8203346 
-0.7909866 0.3163998 0.5236711 
-0.2793155 0.25918108 0.9245583 
-0.453038 -0.2720317 0.84897316 
-0.9250926 0.28935912 0.24591678 
-0.86633193 0.4200644 0.27021292 
-0.17636162 0.8568934 0.48438662 
-0.6926625 0.44361913 0.568701 
-0.43725365 0.8128914 0.38472965 
-0.55839825 0.7644326 -0.32223317 
-0.32682884 0.5281451 -0.7837384 
-0.39136928 0.8842497 -0.25481883 
0.41022313 0.7094084 -0.5731114 
0.4646801 0.66535074 -0.58427805 
0.28989395 0.77910846 -0.5558341 
0.6829015 0.7293427 -0.04128988 
0.519173 0.5869261 0.6212707 
0.038330216 0.34624082 0.9373624 
-0.7326883 0.331568 0.59433204 
-0.67077506 0.19703206 0.71501 
-0.3871578 0.25971526 0.8846791 
-0.35447505 0.2838698 0.8909351 
-0.573762 0.283386 0.7684333 
-0.31537816 0.14179575 0.9383127 
-0.46200955 0.50171494 0.7313203 
-0.16582459 0.8780671 0.4488882 
-0.741234 0.20152035 0.64028263 
-0.74351174 0.36287126 0.56170714 
-0.529208 0.6594933 0.53386104 
-0.8293432 0.32522407 0.45433396 
-0.58533233 0.42958888 0.6876332 
0.35960624 0.4571434 0.81345147 
-0.20486371 0.32337248 0.92382956 
-0.7995596 0.5147309 0.30944562 
0.17998873 0.7891504 0.58723575 
0.48179507 0.5921717 0.645915 
0.5586292 -0.30694324 0.7705318 
0.5058332 -0.16417342 0.8468648 
-0.28198364 -0.033746425 0.9588255 
-0.6309875 0.4901206 0.6013622 
-0.49340868 0.26216435 0.8293478 
-0.20457298 0.8293869 0.51987237 
-0.3335913 -0.16910246 0.92742723 
0.18939064 -0.062281296 0.9799247 
-0.29817066 0.40841678 0.8627225 
-0.10666236 -0.0076180445 0.9942661 
-0.6451 0.07025376 0.7608617 
-0.23477682 0.7257541 0.64665365 
-0.33103028 0.55872035 0.76042795 
0.00293968 -0.22625612 0.9740634 
-0.74764365 -0.23649679 0.6205629 
-0.35907072 0.93206304 0.048237313 
-0.1426572 0.971413 0.18975186 
-0.8010588 0.5930441 -0.08126123 
-0.5600251 0.7875935 -0.25703818 
-0.044055622 0.66983396 -0.7412028 
0.18175314 0.82882106 -0.52917045 
-0.28888595 0.8949198 0.3400933 
0.38103056 0.883312 -0.27308553 
-0.17234364 0.9849513 -0.012985673 
0.64745456 0.75855637 0.0734505 
0.48376197 0.42848796 0.7631333 
0.7203605 0.15523984 0.67600405 
0.6145958 0.521447 0.5919165 
0.7960882 0.09233272 0.5980955 
0.3312858 -0.097573526 0.9384717 
0.103947386 0.6388065 0.76231307 
0.2573833 0.7899098 0.55659366 
0.2785125 0.83529574 0.47403783 
0.997766 0.0135049485 -0.06542654 
0.8060378 -0.25939476 0.53199404 
0.027797556 -0.3562516 0.93397653 
-0.09599385 0.20445734 0.97415733 
-0.16261244 0.12556782 0.97866744 
-0.14511149 0.4771794 0.86674255 
0.5970831 0.44477642 0.66758204 
0.35085824 0.71630496 0.6031632 
0.5235854 0.3579871 0.77311295 
-0.09197589 0.57801247 0.810828 
-0.4616485 0.4117255 0.7857245 
0.014563322 -0.004039494 0.99988586 
0.15264982 -0.3210962 0.9346632 
-0.39407519 -0.0026890794 0.91907424 
0.11130337 -0.36586764 0.9239872 
0.07571221 0.5958853 0.7994926 
-0.22739221 0.76193243 0.6064254 
-0.29580104 0.8957584 0.33184132 
0.2885394 0.15188095 0.9453451 
0.16625015 0.33947042 0.92580813 
0.1635502 0.17136352 0.97153795 
-0.53441554 -0.1912884 0.8232915 
0.72371215 -0.3856938 0.57225966 
-0.20575784 -0.4855702 0.8496384 
-0.8497169 -0.43674502 0.29535592 
-0.45762527 0.17198496 0.8723533 
-0.5205804 -0.087843806 0.8492818 
-0.581697 -0.18522143 0.7920364 
-0.059465237 -0.1430296 0.98793036 
-0.13991691 0.9254974 0.35196275 
-0.63377875 0.68285185 0.3633703 
-0.42010638 0.7863207 0.45300147 
-0.52222747 0.6330505 0.5714242 
-0.26692748 0.8617572 0.4314212 
-0.13861401 0.9832461 -0.11837758 
0.39738998 0.9161551 0.052355696 
0.25035164 0.6256747 0.73882025 
-0.24562615 0.50516915 0.8273283 
0.0743008 0.67014027 0.7385063 
-0.39042142 0.44850042 0.80400157 
0.096260086 0.6254743 0.7742841 
-0.108032994 0.26225936 0.9589312 
-0.21054384 -0.37964034 0.9008576 
-0.33471286 -0.14475274 0.9311359 
-0.49750006 -0.3638728 0.7874582 
-0.26861617 -0.9584185 0.0963294 
-0.5952123 -0.5735029 0.56286484 
-0.3839547 -0.44275123 0.8102778 
0.23384817 0.6526315 0.72068524 
0.15958147 0.7949436 0.58531904 
0.070694335 0.96961886 0.23418288 
-0.15631376 0.32575628 0.9324425 
-0.13289443 0.48101515 0.86658156 
0.010248519 0.48941955 0.87198836 
-0.13617077 0.017445896 0.9905318 
-0.3082994 0.3985113 0.8637941 
-0.27689555 0.27412218 0.9209701 
-0.48944673 -0.68397164 0.5409481 
0.14367968 0.30172306 0.942507 
-0.015555888 -0.13657889 0.9905071 
-0.54854894 0.4564897 0.7005079 
-0.11401568 0.05070466 0.9921842 
0.41573542 0.14325547 0.89813256 
-0.09465548 0.77402717 0.6260371 
-0.2417168 0.73491645 0.6336172 
0.051044203 0.3609131 0.9312015 
-0.30809033 0.4263913 0.8504533 
-0.46363345 0.067389734 0.88346064 
-0.3876656 -0.4444462 0.8075785 
-0.50440437 -0.06079458 0.86132467 
-0.2064156 -0.26319396 0.942402 
0.1550252 0.34959674 0.9239856 
0.05229189 0.7036787 0.70859146 
-0.35685372 0.7816322 0.51157284 
-0.8308211 0.4308042 0.35234085 
-0.045479793 0.50819695 0.8600393 
-0.32449293 0.58069104 0.7466608 
-0.15032783 0.002604629 0.98863286 
-0.30632752 -0.1301642 0.942985 
-0.5147643 0.8529751 0.086320624 
0.17437868 0.9799219 0.096671365 
0.1813072 0.9737088 -0.1379088 
-0.15843281 0.9586788 0.23629236 
-0.54035807 0.76233757 0.35616678 
0.11255599 0.59013516 0.79941964 
-0.07593056 0.39517793 0.9154612 
-0.5398114 0.52618945 0.6570604 
0.61662084 0.39891428 0.6787092 
0.5306403 0.46293294 0.7100099 
0.31083566 0.94761765 0.07349855 
0.2514892 0.82108384 0.5124203 
0.52083945 0.85323304 0.026829258 
0.20540823 0.97100794 -0.12227508 
0.23721619 0.9534603 -0.18612361 
0.8102489 0.58605325 0.0061984514 
0.6770362 0.35820144 -0.6428948 
0.56195366 0.73330986 0.38270733 
0.41693476 0.6953454 0.585372 
-0.30004513 0.3706909 0.8789546 
0.40951085 0.88356787 0.22717538 
-0.35797417 0.932385 -0.050127726 
-0.07223285 0.8526999 0.51738316 
0.43176043 0.53706306 0.7246697 
0.6615798 0.1948523 0.72411656 
0.92658013 0.14463043 0.34717628 
0.4352994 0.025469597 0.8999255 
-0.016375419 0.3288312 0.94424677 
-0.2755571 0.7140878 0.64354247 
0.38005337 0.028063836 0.9245388 
0.010343012 -0.19160928 0.9814169 
0.3855747 -0.58528876 0.7132807 
-0.005304552 0.14048292 0.9900689 
0.130391 0.104290605 0.9859624 
-0.40233624 0.23292913 0.8853641 
-0.25974697 0.74556184 0.6137337 
0.13932139 0.733103 -0.6656949 
0.19731942 0.8851793 -0.42133462 
0.20660429 0.7554035 0.6218363 
-0.3571241 0.650009 0.6707837 
-0.077645496 0.3658317 0.9274365 
-0.27859727 0.8660071 0.41522944 
-0.6516463 0.53830916 0.5343971 
-0.5798162 0.34551597 0.7378563 
-0.21134903 -0.80144554 0.5594789 
0.15000403 -0.47564676 0.8667521 
-0.2610208 0.72008556 0.6429191 