# OOMMF: rectangular mesh v1.0
# Segment count: 1
# Begin: Segment
# Begin: Header
# Desc: Time (s) :  1.8999999999999972e-07
# Title: m
# meshtype: rectangular
# meshunit: m
# xbase: 2e-09
# ybase: 2e-09
# zbase: 5e-10
# xstepsize: 4e-09
# ystepsize: 4e-09
# zstepsize: 1e-09
# xmin: 0
# ymin: 0
# zmin: 0
# xmax: 1.024e-06
# ymax: 1.024e-06
# zmax: 1e-09
# xnodes: 256
# ynodes: 256
# znodes: 1
# ValueRangeMinMag: 1e-08
# ValueRangeMaxMag: 1
# valueunit: 
# valuemultiplier: 1
# End: Header
# Begin: Data Text
-0.2399834 0.27239975 0.931776 
-0.42065904 0.5414376 0.7279363 
-0.22680451 0.8890324 0.3977199 
-0.19023679 0.275794 0.9422036 
-0.25824344 -0.22279412 0.9400389 
0.5760816 -0.15593685 0.80238 
-0.7798479 -0.44271243 0.44254163 
-0.2516564 -0.20547521 0.94575316 
0.48696032 0.63201964 0.602844 
-0.57187337 0.81866854 0.052371886 
-0.31334656 0.84658784 0.43023595 
-0.8201442 0.07188268 0.5676235 
-0.7478023 -0.20223266 0.6323715 
0.42965683 -0.45665732 0.7790116 
0.42635962 -0.90168864 -0.07193875 
0.040400498 0.029477708 -0.9987487 
-0.01318568 -0.79619384 -0.604898 
0.73631316 -0.6569891 -0.16188993 
0.7490875 -0.5616488 -0.35131004 
0.88422966 -0.39056525 0.2561187 
0.9171282 -0.3426569 0.20362289 
0.85567313 0.48078918 0.19148207 
0.15070815 0.82949054 0.5378034 
0.18206395 0.983283 0.0027065126 
-0.006263327 0.8853784 0.4648288 
0.10351282 0.33310303 0.9371913 
0.0941638 0.8627822 0.4967295 
-0.14757444 0.0139086 0.9889532 
0.1939483 -0.4573155 0.86789787 
0.6034222 0.44663933 0.66060203 
-0.2760755 0.8486962 0.4511067 
0.1766954 0.9671389 0.18281434 
-0.13150224 0.9794843 0.15270096 
-0.66721815 0.53361535 -0.5196871 
0.15728007 0.7987894 0.58068806 
0.289901 0.80335766 0.52016723 
-0.03235793 0.94983786 0.31106427 
0.22064538 0.9406947 0.25769964 
0.0106594525 0.89650285 0.44290978 
-0.35739306 0.8338698 0.42063218 
0.5748719 0.81602764 0.060176346 
0.87028664 0.3978051 0.29043487 
0.5111744 0.71983635 0.46961313 
0.096192636 0.42750603 0.8988803 
0.26937994 0.16491556 0.9488084 
-0.08505111 0.7703595 0.6319118 
-0.10494295 0.7071858 0.6991962 
0.3766495 0.5219192 -0.7653336 
0.74917454 0.08366753 -0.65706724 
0.72052264 0.2094217 -0.66105205 
0.8138579 -0.57056963 0.109934665 
0.8749794 0.47582614 -0.08944612 
0.8863551 0.30581102 0.34764132 
0.478193 -0.76681376 0.42816857 
0.7195968 -0.27726135 0.63663703 
0.61946404 0.29154265 0.7288808 
0.41992176 0.8754627 0.2392296 
0.38523182 0.7578461 0.52656037 
-0.66167575 0.6924646 0.28753784 
-0.1378504 0.8948412 0.42456636 
-0.3789945 0.7119273 -0.59120446 
0.13462381 0.9592029 0.24860895 
-0.43310377 0.89752305 -0.08290731 
-0.018081455 0.9863512 -0.16365963 
0.34166482 0.8573808 0.38491976 
0.53889185 0.7778891 -0.32324016 
0.6278247 0.7476612 0.2164233 
0.7010636 0.6457606 -0.3024948 
0.8436456 0.17467453 0.5076919 
-0.14402965 -0.09608953 0.98489714 
0.3370574 0.42038456 0.8424186 
0.52845347 0.12665164 0.8394619 
0.4468131 0.28478613 0.848089 
-0.6389906 0.3448036 0.6876056 
-0.17941448 0.43759876 0.8810891 
-0.93890214 -0.016882256 0.34377 
-0.96463937 0.2402828 0.108328454 
-0.8686836 0.48254824 0.1119654 
-0.8657091 0.18759058 -0.46406627 
-0.5600215 0.5982129 -0.57316434 
0.22957747 0.9197868 -0.3182555 
0.61253524 0.56094724 -0.55690116 
0.17669271 0.12848762 -0.9758436 
-0.061382677 0.46470314 -0.88333637 
0.64465564 0.4696194 -0.6032221 
0.6084903 0.47580448 -0.6350982 
-0.06868885 0.47257018 -0.8786122 
0.2596727 0.85219765 0.45423502 
0.29954097 0.4197133 0.85680574 
-0.7039431 0.29970682 0.6439254 
-0.93478894 0.14424774 -0.3245954 
-0.9912764 0.08137645 -0.10367805 
-0.74563015 0.6521546 -0.13685814 
-0.47452837 0.8515616 -0.22285843 
-0.06270083 0.9142244 0.40032792 
0.4398885 0.8862218 0.14528893 
-0.1766697 0.74759763 0.64022315 
0.22912139 0.6823882 0.6941541 
-0.2713515 0.77725554 0.56766385 
-0.54068124 0.71322507 0.44606477 
-0.40399668 0.8218277 0.4017288 
-0.49931687 0.675596 -0.5424507 
-0.9597965 -0.2787689 -0.032842416 
-0.79140484 0.38312414 -0.47633442 
-0.6870248 0.57820016 -0.44009268 
-0.34145147 0.77901804 -0.52587247 
-0.1686301 0.85409117 -0.49202877 
0.61695445 0.35564312 -0.70205784 
0.6711651 0.04133384 0.7401547 
0.62987673 0.43319342 0.64466965 
-0.29872522 0.010510453 0.95428133 
-0.05130904 0.45382392 0.8896131 
-0.054589525 0.76132375 0.6460698 
-0.7184335 0.5429781 0.43477362 
-0.43612581 0.88052166 0.18567713 
-0.41330767 0.8447883 0.3398669 
-0.18152548 0.5833311 0.7916902 
-0.65219265 -0.30086362 0.6957915 
-0.61025596 -0.16526963 0.77477336 
-0.05451119 -0.12624545 0.9905002 
-0.30934057 0.23896575 0.92043674 
-0.88664275 0.4482908 -0.11357769 
-0.8261879 0.5346023 0.17780355 
-0.97765934 0.0706396 0.1979707 
-0.8783218 -0.47303647 0.06919013 
-0.91742414 0.39547133 0.04399341 
-0.34722975 0.4862819 -0.8018488 
-0.24318835 0.96679956 0.078473955 
-0.49817523 0.7061212 -0.50320405 
-0.34554973 0.8988672 -0.2695056 
0.23501208 0.9498599 0.20624131 
0.6123851 0.7245293 -0.31629393 
0.22247012 0.9465792 0.2334416 
0.18899456 0.8251195 0.53240854 
-0.38715062 0.11690287 0.91457546 
-0.375567 -0.28854215 0.88073426 
-0.9672434 0.020618914 0.25301236 
-0.4101268 0.8596125 0.30473316 
0.8448708 0.45258453 0.2852379 
0.5331783 0.57751745 0.6182188 
-0.117267065 0.45526695 0.88259864 
-0.37308377 0.89901286 -0.22931316 
-0.6337296 0.77214044 0.04675538 
-0.4740088 0.5951449 -0.64893633 
-0.36476246 0.124456495 -0.92274535 
0.8299763 -0.16087379 -0.53409654 
0.92566496 -0.30672088 0.22151028 
0.5980289 0.7080232 0.37558588 
0.15875451 0.9428466 0.29298025 
0.26252303 0.9240539 0.27785984 
0.56303287 0.783685 -0.26235846 
0.42865685 0.17328092 0.8866945 
-0.49204513 0.61103696 0.6201012 
0.054332186 0.9235247 0.37967104 
-0.14210702 0.63509446 0.75925016 
-0.776627 0.18722974 0.60149455 
-0.3117025 0.60228133 0.7349142 
-0.14587204 0.9761653 -0.16069432 
-0.34891298 0.5999346 0.7199571 
-0.07815093 0.807145 0.5851575 
0.092329845 0.9025348 0.4206022 
0.27600428 0.64010704 0.71699697 
0.43156415 0.39500535 0.8110015 
0.31833568 0.33640075 0.8862827 
0.31360102 -0.026601238 0.9491822 
0.20068817 0.0053326697 0.97964066 
0.4849988 0.10474595 0.86821926 
0.72361696 0.18198217 0.66577846 
0.33167621 0.0035923983 0.9433865 
-0.015291333 0.5778395 0.81600726 
-0.27827945 0.49946606 0.8204232 
-0.526844 -0.003852798 0.84995335 
-0.23020269 0.26910836 0.93519384 
0.16723737 0.2913331 0.94188994 
-0.9868236 0.11122682 0.1175069 
-0.4955061 0.7084255 0.50260025 
-0.09341236 0.49964616 0.8611782 
0.6042744 0.5534036 0.5732338 
-0.15006778 0.23735827 0.9597607 
-0.541721 0.6955808 0.47191715 
-0.24501833 0.586338 0.772123 
0.61502117 0.28632545 0.73468816 
0.3201338 0.35490277 0.87838393 
0.67342436 -0.11389407 0.7304299 
0.123823486 -0.43429005 0.892222 
0.22847064 0.023174798 0.973275 
-0.49506673 0.25229725 0.8314175 
-0.440873 0.29080144 0.8491559 
0.67298746 0.698831 0.24232875 
-0.28144047 0.954137 -0.10204832 
0.0142281875 0.95064807 -0.30994478 
-0.02454615 0.99965835 -0.0089895725 
0.008689375 0.9461113 0.3237249 
0.2170498 0.93676156 -0.2745308 
-0.6113553 0.6877676 -0.3914338 
0.06863746 0.17283498 0.9825564 
-0.66116935 0.61789286 0.4255157 
-0.8902806 0.12959985 0.4365826 
-0.92096055 0.24964665 0.29917935 
-0.9781093 0.17893973 -0.10622035 
-0.85549194 0.448859 -0.2581845 
-0.19198127 0.9328001 -0.30500355 
-0.08321408 0.884245 -0.45955026 
-0.29630986 0.78343314 0.54629016 
-0.65586084 0.7289747 -0.19606742 
-0.4721067 0.73275006 -0.4900945 
0.35838732 0.6042766 -0.7116237 
0.4799937 0.70115286 -0.52724826 
0.35362124 0.9353189 -0.011432587 
0.54083633 0.84111327 0.0049589085 
0.06577637 0.98925143 -0.13059576 
0.23752053 0.87564594 -0.42050964 
0.1927725 0.35995388 -0.9128374 
0.45345116 0.73361605 -0.5061518 
0.8892736 -0.4220999 0.17613678 
0.8224132 0.2720901 0.4996035 
0.740637 0.61929953 0.26062435 
0.470563 0.57578003 0.66861635 
-0.078793004 0.96664554 0.24369688 
-0.31729776 0.83932656 0.44142166 
0.05326088 0.8851033 0.46233708 
0.34199506 0.86042976 0.3777567 
0.4640242 0.4509736 0.7624333 
0.2717878 0.6097524 0.74453574 
0.09135152 0.90510225 0.41526484 
0.20779952 0.83851844 0.5036926 
0.4260769 0.8709142 -0.24488175 
0.6483463 0.7574497 0.07692267 
0.27303958 0.7431378 -0.61089754 
0.25390524 0.8698013 -0.4230578 
0.13517754 0.98966587 0.047839645 
0.12946482 0.7134525 0.6886395 
0.684429 0.67085475 0.28550124 
0.72892773 0.6758037 0.10933338 
0.64511913 0.52647364 0.553757 
0.14234598 0.32431436 0.93517804 
-0.08317595 0.91264325 0.40020517 
-0.5425942 0.59244305 0.5954853 
-0.11428841 0.46552634 0.87762374 
0.103608 0.8330887 0.54334944 
-0.7129744 0.57910067 0.39536056 
-0.21967958 0.8606642 0.45934534 
-0.5509208 0.29869795 0.7792727 
-0.67401755 -0.12928657 0.72731376 
-0.66314316 0.45360845 0.5953828 
-0.92019707 0.37226853 -0.1210519 
-0.62066674 0.74440116 -0.2462515 
-0.4665812 0.84554887 -0.2595169 
-0.21593297 0.53144175 -0.8191109 
-0.29771513 0.9198715 -0.2553474 
-0.12779158 0.93075657 0.34258053 
0.4000687 0.9064833 -0.13502987 
-0.58811337 0.5797444 0.56393194 
-0.3540934 0.92099375 0.1624448 
-0.3784908 0.16106711 0.9114835 
-0.6708384 0.74137276 -0.01850001 
0.43218505 0.20326035 0.8785792 
0.4024976 -0.03700585 0.9146728 
0.12030491 -0.23732363 0.9639524 
0.11943479 0.20147926 0.9721839 
-0.45867544 0.07496381 0.8854363 
-0.01351986 -0.36408916 0.931266 
-0.9781723 0.0050093946 0.20773529 
-0.53296363 0.039344907 0.84522295 
0.25903836 -0.12284446 0.9580232 
-0.017418426 0.18103902 0.98332167 
-0.20858994 0.33327058 0.9194678 
-0.899812 0.06535987 0.43135425 
-0.7527727 -0.6548687 0.06693492 
0.16949046 -0.4749513 0.86353594 
0.19524233 -0.9690586 -0.15101668 
0.40652347 -0.8953781 -0.1817597 
0.3953582 -0.71860886 -0.5720955 
-0.30436522 -0.47606817 -0.8250582 
0.5595171 0.5188528 -0.6463223 
0.53428626 -0.20280042 0.8206158 
0.46694836 0.8591708 -0.20924816 
0.9296953 0.35981008 0.07876227 
0.3270804 0.6880311 0.64778996 
0.4756543 0.7752446 0.41563067 
-0.115675166 0.8595399 0.49780566 
0.55422604 0.610561 0.56572855 
-0.29499197 0.42968306 0.8534356 
-0.19539519 -0.1556839 0.9682889 
0.5366595 0.42955402 0.72627825 
0.72726464 0.4765497 0.4939499 
-0.22651187 0.6428949 0.73169565 
-0.6919455 0.38677672 0.6096026 
-0.42212585 0.8617116 0.2815368 
-0.6321316 0.7500836 -0.1943813 
0.12678954 0.7655498 0.6307599 
-0.06750117 0.41423604 0.90766305 
-0.22371502 0.18575996 0.9567889 
-0.097798534 0.99487334 0.025739145 
0.09385463 0.8820586 0.46169695 
0.013288874 0.52449477 0.85131 
-0.18497975 0.8690272 0.45888355 
0.2794676 0.40258214 0.8716798 
-0.6862504 0.414432 0.5977513 
0.24991365 0.47859573 0.8417182 
0.23434561 0.07968214 0.9688824 
0.18116613 0.8552799 0.48546368 
-0.18913774 0.7157926 0.67221117 
-0.6253197 0.42801395 -0.65251774 
0.15745774 0.4729695 -0.8668951 
-0.12357173 0.2675937 -0.9555751 
0.949129 0.024958739 -0.31389695 
0.9336017 -0.08739941 -0.34748995 
0.92134786 0.14819175 0.35938478 
0.72762126 -0.3019089 0.61596954 
0.41186178 -0.4818484 0.7734288 
0.93777394 -0.08999526 0.33538172 
-0.2735023 0.54592085 0.7919387 
0.40794566 0.82751095 0.38575372 
0.5338688 0.8455661 -0.0014650543 
-0.27512684 0.71352357 0.6443519 
-0.42849556 0.73435384 0.5264181 
-0.23004049 0.68709123 0.6891931 
-0.2683741 0.94583136 -0.18269767 
-0.5010545 0.2821814 0.81811863 
0.54981333 0.6835311 0.4800945 
0.80114067 0.19103542 0.5671675 
0.5996744 0.44404915 0.66574097 
0.104583085 0.49634114 0.86180496 
-0.12486922 0.19830813 0.97215307 
-0.15223725 -0.4479165 0.8810192 
0.63253534 0.33522266 0.69822985 
-0.5598289 0.037446138 0.82776177 
-0.32525378 0.2559807 0.9103208 
-0.57583106 0.7175151 0.3919065 
-0.6645753 0.7062901 0.24391392 
-0.9198331 0.39035317 -0.03913443 
-0.7172183 -0.48827633 0.4971762 
-0.37049246 0.9080799 0.19525962 
-0.24412371 0.72248995 -0.6468477 
-0.14183892 0.60846215 -0.78080446 
0.46992436 0.41386023 -0.7796736 
-0.49134642 0.48636365 -0.7225158 
-0.26385197 0.18436903 -0.9467789 
-0.1885889 0.46760258 -0.8635867 
-0.01704548 0.82187873 -0.5694075 
0.45536652 0.8863191 -0.08414187 
-0.03787444 0.88187224 -0.46996498 
0.46122363 0.87534523 0.1450635 
0.30718568 0.8625593 0.40203044 
-0.26907426 0.21976095 0.93771225 
-0.858504 0.5080339 -0.06980384 
-0.5580054 0.6820403 0.47270626 
-0.5986608 0.4746309 0.64523697 
-0.701344 0.29620555 0.64836633 
-0.8521231 0.28346208 0.4399269 
-0.54308635 0.82611597 0.1502986 
0.036393896 0.48068166 0.87613964 
-0.18042773 0.27259937 0.94505847 
-0.31715906 0.81447333 0.4858429 
-0.39425117 0.7939827 -0.46277145 
-0.5300542 0.7809743 0.3303357 
-0.60547894 0.65228987 0.455975 
-0.90403175 0.34108052 -0.2576639 
-0.843703 0.42266262 -0.3309407 
-0.29854327 0.9505475 0.085624285 
-0.6838255 0.4371255 -0.58421236 
-0.27254602 0.78288496 -0.5592941 
0.9082595 0.23873624 0.3436126 
0.6302219 -0.58730257 0.5078348 
0.40287012 0.842629 -0.35731235 
0.8679506 -0.16554357 0.4682489 
-0.08131447 0.15966003 0.98381746 
0.17346083 0.50317705 0.84659564 
-0.34436738 0.08370624 0.935096 
-0.055973966 0.79212624 0.60778534 
-0.45099714 -0.033585373 0.89189327 
-0.55421454 -0.5385547 0.6346693 
-0.19292505 0.1957683 0.9614857 
-0.70814466 -0.38673553 0.5907341 
-0.5650956 0.18233734 0.8046243 
-0.45224035 0.72865725 0.5143319 
-0.80382645 0.5299389 0.27023646 
0.06576894 0.6104649 0.7893081 
-0.803493 0.31054127 0.5079006 
-0.53403 0.8331026 -0.14405613 
-0.39703634 0.9152575 -0.06830755 
0.5748572 0.7872363 -0.22315548 
0.2205488 0.8497021 0.47892025 
-0.32403368 0.9430311 0.07546329 
-0.13697055 0.93821704 0.31778583 
-0.4296673 0.5071345 0.74712825 
0.07839442 0.9870664 0.13983671 
-0.07850391 0.9967148 0.019919394 
0.15442806 0.72665435 0.6694218 
-0.12533975 0.21132794 0.9693454 
-0.7897529 -0.16519424 0.5907632 
-0.81931514 0.012483541 0.57320774 
-0.014700354 0.5283335 0.8489097 
0.2687652 0.9155948 0.29908425 
0.2549787 0.4238941 0.8690798 
-0.7245038 0.45873433 0.5144484 
-0.32438043 0.93485177 0.14432462 
-0.67662805 0.6239825 0.39092258 
-0.5230271 0.55989337 0.64262134 
-0.016764414 0.9598256 0.28009605 
0.4160036 0.73770684 0.53172326 
0.75235355 0.6110457 0.24614528 
0.27034843 0.7008624 0.6600786 
0.28997287 0.95703214 -0.0022747626 
-0.26983958 0.78207016 0.561741 
0.69325906 0.66410583 0.2799203 
0.25776693 0.31539583 0.9132808 
-0.47102064 -0.025633093 0.88174975 
0.13672951 0.32022232 0.9374235 
0.66372013 0.41171637 0.6244721 
0.056127526 0.39582863 0.9166076 
0.12003253 0.47283083 0.8729395 
0.47777465 0.30667597 0.82321405 
-0.15246017 0.21802557 0.96396095 
-0.76854634 0.39528352 0.50307816 
-0.46030504 0.8808259 0.110748194 
0.66043705 0.28086516 0.6963748 
0.34559608 0.04036641 0.9375148 
0.734653 0.1401115 0.66381764 
0.031760592 -0.19110191 0.9810563 
0.41420978 -0.4779067 0.7746195 
0.68536156 -0.501211 0.52826816 
0.8910088 -0.15637575 0.42620423 
0.39783746 -0.37893313 0.8355447 
0.34846953 -0.040586397 0.93644106 
0.22125122 0.043365516 0.9742523 
0.3208665 -0.4927993 0.80882245 
0.15362653 0.13355853 0.97906137 
-0.27261725 -0.02358775 0.9618334 
-0.75366217 0.35078916 0.555824 
-0.40905097 0.44031355 0.7992505 
-0.05645889 0.16434172 0.9847864 
-0.17639902 0.36531666 0.914017 
-0.7306332 0.36808696 0.57505405 
-0.15977211 0.1842611 0.96980447 
-0.31240857 0.670946 0.6724823 
-0.18796863 0.2307541 0.9546834 
0.17862812 -0.195384 0.9643221 
0.45164543 -0.82111114 0.34898838 
0.48066834 -0.61585766 0.62424135 
-0.0002051472 -0.29256928 0.9562444 
-0.4879439 -0.2681863 0.83065444 
-0.8680678 -0.054323375 0.4934646 
-0.18026705 0.38191432 0.90644646 
-0.6827139 0.7111444 0.16785537 
-0.8672708 0.4854577 -0.11032735 
-0.5581739 0.760213 0.33244243 
-0.36717495 0.9069298 0.2065453 
-0.1451418 0.9820992 0.120062985 
-0.14655004 0.9842386 0.09898233 
-0.16178378 0.36430013 0.91712135 
-0.72161585 0.2362906 0.6507206 
-0.81507486 0.46957383 0.3393426 
-0.7852609 0.3680618 0.49789134 
-0.32296214 0.86937976 0.37399775 
-0.20732175 0.7116689 0.67122656 
0.16784072 0.85980093 0.48225692 
-0.47289935 0.75212055 -0.4589999 
-0.8450448 0.4193475 0.33173338 
-0.7366114 0.6521348 -0.17923142 
0.2713169 0.88820815 -0.3707741 
0.01699213 0.87424964 0.48517916 
0.20034905 0.8609619 -0.4675521 
0.89748883 0.2521806 -0.36182687 
0.32351306 0.91162866 -0.25352037 
0.1383296 0.83991903 -0.5247866 
-0.58883756 0.79309136 0.15580922 
-0.020179106 0.95575815 -0.29346082 
0.6565745 0.40250704 -0.6378856 
0.86112624 0.48845655 -0.14096728 
0.5842597 0.6839682 0.43683884 
0.8151053 0.44137806 0.37521836 
0.30289578 0.8637244 0.40278333 
0.24506852 0.7433173 0.6224314 
-0.36905903 0.49854288 0.78437907 
-0.49007434 0.8520381 0.18400604 
-0.7132951 0.61068356 0.34391245 
-0.10331703 0.67447084 0.7310367 
-0.28279653 0.1456665 0.94805455 
0.0764062 0.77568066 0.62648356 
0.37592208 0.868199 0.32390308 
0.91079473 0.24176237 0.33467016 
0.29015934 0.6745153 0.6788495 
-0.22431682 0.9325981 -0.2827415 
0.0049763834 0.9258906 -0.37775898 
-0.18114279 0.8816306 0.43579212 
-0.22634293 0.95032007 0.21368371 
0.0497526 0.9006955 0.43159285 
0.09100198 0.54390645 0.834197 
0.12864101 0.9397772 0.3166549 
0.35799643 0.93254393 0.04690934 
0.48561242 0.44416273 0.7529276 
0.23332699 0.71619445 0.6577416 
0.35945445 0.8901131 0.28016302 
0.081233956 0.77278197 0.62945145 
-0.601662 0.47070816 0.64531916 
-0.36073518 0.5699875 0.7382306 
-0.68294567 0.4039632 0.60860413 
-0.7870392 0.14910807 0.5986117 
-0.8611752 0.27126452 0.4298756 
-0.7539476 0.49473387 0.4322054 
-0.83847725 0.54162717 -0.05996588 
-0.9537245 -0.039556157 -0.29806867 
-0.7058862 0.53136265 0.46837866 
-0.3687247 0.6825968 0.6309547 
0.0044875867 0.95931774 0.2822932 
-0.088369824 0.80202746 0.59071374 
-0.05613027 0.4719033 0.8798617 
0.08034858 0.5153912 0.85317993 
-0.076200634 0.42442062 0.90225303 
0.3556656 0.36341715 -0.86106336 
0.52124566 -0.07479911 -0.85012245 
0.64451015 0.37120378 0.66844183 
-0.34322703 0.15925524 0.92565274 
-0.3247182 0.02680432 0.945431 
0.0374591 0.11685003 0.9924429 
-0.49428758 0.111747704 0.8620861 
-0.34114328 0.908614 0.24091904 
-0.06827494 0.52882606 0.8459797 
0.4468803 0.45871666 0.7680345 
-0.5078355 -0.33669707 0.7929301 
-0.83452564 0.18005168 0.5207192 
-0.87133867 -0.46680346 -0.15120721 
-0.79793775 -0.501358 0.33456764 
0.17009184 -0.98129886 0.09011816 
0.4916421 -0.7710092 0.40476292 
0.6876618 -0.7235689 -0.05974308 
-0.16837096 -0.40438604 -0.89895666 
0.10788011 -0.31302106 -0.9435994 
0.8812696 0.10146449 0.461594 
0.18421158 -0.12454669 0.9749638 
0.3281322 0.7936641 0.51227605 
0.7968847 0.5348331 0.28094187 
0.7176147 0.12110858 0.6858294 
0.6231714 0.33526513 0.7065797 
0.05745433 0.7517347 0.6569581 
-0.31877437 0.75655544 0.5709701 
-0.27263305 0.6187529 0.7367606 
0.41697848 0.49076265 0.7650366 
0.6674333 0.43146256 0.60693735 
0.23329772 0.3399214 0.91105753 
-0.645212 0.6905133 0.32694495 
-0.8643981 0.37993696 0.32933858 
-0.6414677 0.6538098 0.40131292 
-0.5055864 0.8571495 0.098373204 
0.37960064 0.9154949 0.13331403 
0.032436848 0.99270594 0.11611556 
-0.3431361 0.8431184 0.41401583 
0.33323425 0.9269228 0.17253743 
0.098379 0.8433509 0.528281 
0.6026397 0.6730899 0.4286904 
-0.025327664 0.5613894 0.82716423 
0.5660956 -0.47753173 0.671937 
0.71719825 0.44812277 0.5336784 
0.4454721 0.500319 0.74245244 
0.09097597 0.53584474 0.8394009 
0.08576397 0.7142229 0.69464403 
-0.5831806 0.81010747 0.060219225 
-0.51379377 0.7708794 -0.37651157 
-0.5870907 0.80684334 0.06579112 
-0.2761452 0.7646003 -0.58234894 
0.6241488 0.30925578 -0.7174951 
0.778333 0.05884287 -0.6250883 
0.6948093 0.60059655 0.39563102 
0.84166265 0.26289162 0.47169054 
-0.06721 0.076450706 0.99480563 
0.65960675 0.54134357 0.5214079 
0.28739506 -0.3774988 0.88028336 
-0.4015625 0.29416555 0.8673029 
-0.57495165 0.69261825 0.43555778 
-0.1992347 0.5938581 0.77951145 
-0.5478237 0.46272022 0.6969787 
-0.54569674 0.6164516 0.5676289 
0.076552786 0.9815472 0.17522807 
-0.54925156 -0.029128602 0.83514935 
-0.041730277 -0.033600383 0.9985638 
0.36526346 0.516726 0.7743235 
0.6233857 0.47101733 0.62412584 
-0.46373868 -0.003232582 0.88596624 
-0.36246175 -0.3033793 0.8812392 
0.08835261 -0.21291792 0.9730673 
0.56778085 0.24907723 0.78459257 
-0.8511613 0.27780634 0.4453631 
-0.75202686 0.42923364 -0.5002141 
-0.37979454 0.65432197 0.6539258 
-0.80201507 0.5717133 0.17296147 
-0.5583938 0.8287366 0.037312113 
-0.6692801 0.276177 -0.68977565 
-0.99568695 0.019267052 -0.0907549 
-0.4135599 0.55466807 -0.7220191 
0.1827708 0.8709325 -0.45614836 
0.62569207 0.75733584 -0.18695442 
0.068353206 0.80695325 -0.5866467 
0.21958892 0.6988852 -0.680691 
0.2592819 0.6604571 -0.7046768 
0.0686514 0.9523696 -0.29711807 
0.045590475 0.9681334 -0.24625078 
-0.07459047 0.99653417 -0.03682167 
0.81330997 0.5795427 0.05154764 
0.8153732 0.10895476 0.5685907 
-0.3022964 0.726229 0.6174208 
-0.9606864 0.20528665 0.18692029 
-0.75706077 0.60912025 -0.23628676 
-0.6338638 0.7697645 -0.07536083 
-0.9636305 0.17610209 0.20100865 
-0.7122819 -0.2838869 0.6419213 
-0.5458268 0.75357115 0.3663382 
0.25503793 0.7297485 0.634368 
-0.035375934 0.92341185 0.3821771 
-0.5202137 0.8335453 0.18595707 
-0.4049834 0.914165 -0.017053956 
0.3920608 0.91612905 -0.08364213 
-0.36306828 0.90141165 0.23587856 
-0.6270426 0.58556783 0.51373917 
-0.80153644 0.57396936 0.16762634 
0.020938685 0.81613696 0.5774791 
-0.25536203 0.7388012 0.62366915 
-0.05043502 0.6314315 0.77378976 
0.5447033 -0.51792455 0.6595851 
-0.31656444 -0.29133537 0.902724 
-0.13132355 -0.29780242 0.94555163 
0.28891116 -0.0984085 0.9522847 
0.081338376 0.05985562 0.9948876 
0.10026844 0.52256334 0.84668404 
0.13891785 0.014321308 0.99020034 
-0.08217093 0.8170809 0.57063717 
-0.6585185 0.31774223 0.68219745 
-0.9327265 -0.061151735 0.3553617 
0.010450933 0.066146255 0.9977553 
-0.5106713 -0.24318083 0.82466847 
-0.7549531 -0.09128404 0.6493944 
-0.4023432 0.59057355 0.6995304 
-0.74338573 0.64055145 0.19253972 
-0.37961876 0.6528669 0.6554803 
-0.21802281 0.36158115 0.9064906 
-0.47565752 0.8253885 0.30411154 
-0.21113808 0.9517007 0.22290453 
0.10920697 0.34652743 0.9316612 
-0.04807067 0.9151384 0.40026373 
-0.014307287 0.8434715 0.5369835 
0.10276948 0.9472026 -0.30371964 
0.21366768 0.97187674 -0.099003665 
-0.34843403 0.8257653 -0.44351488 
0.19982162 0.9767233 0.07799319 
0.12169278 0.8916414 0.43608108 
0.16586891 0.7273394 0.66593164 
-0.20815915 0.49233827 0.84514666 
0.15293664 -0.40304047 0.902313 
-0.52699494 0.25807086 0.80973804 
0.11151544 0.13429439 0.98464686 
0.35564208 0.35693735 0.86377925 
-0.3361499 0.5599242 0.75728995 
-0.2970509 0.62234706 0.7241857 
-0.75026286 0.42192212 0.50900626 
-0.5099394 0.48072085 0.71335083 
0.26660672 0.41209692 0.87126184 
0.52202266 0.4174966 0.7437667 
0.70777595 0.5513249 0.44169453 
-0.18804611 -0.12895907 0.97365713 
-0.41702095 0.07087887 0.906129 
-0.3403522 0.27363577 0.8996021 
0.59364426 0.49199763 0.6368084 
0.82168895 0.188701 0.5377912 
0.38710117 -0.66945827 0.6340176 
0.09063387 -0.47031677 0.8778312 
0.42601123 0.362735 0.82881707 
0.1907068 0.87985146 0.43530717 
0.4737683 0.5984525 0.64606375 
0.5134351 -0.2039649 0.8335364 
-0.022598227 0.09885847 0.99484485 
0.20960602 0.408284 0.8884647 
-0.19113208 0.8115661 0.5521131 
0.5080246 0.46755213 0.723399 
0.73900074 0.53475 0.40978104 
0.19721833 0.07732912 0.9773051 
-0.16379574 -0.5433068 0.8234008 
0.42183858 -0.67357385 0.6069188 
0.7077437 -0.3545526 0.61105764 
-0.038026534 -0.3369199 0.9407651 
-0.32219806 -0.34498534 0.8815746 
-0.5624486 0.13636816 0.81550926 
-0.36425194 -0.80965775 0.46019003 
0.28553268 -0.61381274 0.73600614 
0.17355162 0.005904396 0.9848071 
0.29807222 -0.3579398 0.884891 
0.051442143 -0.35009265 0.9353015 
-0.73038656 -0.046129934 0.68147457 
-0.52534527 0.7623131 0.37800947 
0.3690541 -0.0015570631 0.9294067 
-0.5047661 0.75088626 0.42588845 
-0.24313633 -0.22714493 0.9430217 
-0.52044904 -0.016061513 0.8537417 
-0.042218335 -0.23552923 0.9709499 
0.04414816 -0.41012567 0.91095984 
0.27327734 -0.50167876 0.8207544 
0.2291356 -0.697877 0.6785755 
0.48145145 -0.32673618 0.81329453 
-0.06163513 0.036795825 0.9974203 
-0.5167529 0.19626608 0.8333344 
0.07034483 0.9585048 0.27626094 
-0.23582165 0.53808147 0.809232 
-0.6070369 0.78423464 -0.1283838 
-0.25261724 0.3748505 0.8920043 
-0.6944106 0.5365928 0.47943935 
-0.7068683 0.68809116 0.16391401 
-0.5651014 0.7535963 -0.33578715 
0.094584934 0.94709915 -0.30668727 
-0.4735032 0.8700305 0.13726528 
-0.9137639 0.38818964 -0.11976813 
-0.114739425 0.99153614 0.060753543 
-0.43988535 0.8821181 0.16842954 
0.1385072 0.5333667 0.8344673 
-0.4506106 0.11600349 0.88515157 
-0.5239556 0.6961074 0.49082085 
-0.7973771 0.5574075 0.23127212 
-0.6107536 0.78495044 0.1040814 
-0.24346639 0.9379785 0.24682075 
-0.35091433 0.9292367 0.115664855 
-0.79265434 0.5085547 0.33626065 
0.067953795 0.8855739 -0.45950106 
-0.22124317 0.8253966 0.5193958 
0.48737168 0.60312885 0.63143057 
-0.115870334 0.94552547 0.3042297 
-0.035610814 0.9678964 -0.24881437 
0.49000996 0.87099224 0.035536084 
0.43398824 0.17088996 0.88456255 
-0.2890187 0.78611135 0.5463491 
0.51710886 0.5857472 0.62409836 
0.24909595 0.96431655 -0.0896927 
-0.5532914 0.6316944 0.54298335 
-0.5436114 0.19293259 0.81686217 
-0.16820511 0.7352388 0.6566057 
-0.25164044 0.36002976 0.89836276 
-0.33346477 0.2694404 0.90343964 
-0.643 0.4519516 0.6182966 
0.19087596 0.9800912 0.05465974 
0.14019036 0.82471377 0.54789954 
0.030257255 0.6100378 0.7917944 
0.36463028 0.9240095 0.115114525 
0.110010184 0.9827839 -0.14843681 
-0.2147703 0.9583622 0.18819016 
-0.46895808 0.87680274 0.10627948 
-0.5196005 0.8269897 -0.21471737 
-0.32728714 0.6749715 0.6612841 
0.0137339765 0.9774464 0.21073678 
0.01247992 0.6270288 0.77889615 
-0.2659042 0.6377124 0.72292316 
-0.31891587 0.6309934 0.70720583 
0.15460256 0.7749455 0.6128276 
-0.09523851 0.7503327 0.65416396 
-0.054527294 0.9913527 0.11935952 
-0.14844018 0.7231251 0.6745782 
-0.61136067 -0.13884667 0.7790762 
-0.38044125 0.2903049 0.8780589 
-0.710653 0.39262405 0.5837968 
-0.38794026 0.91947407 0.063795924 
-0.6156435 0.77808774 -0.12474982 
-0.69599634 0.5766035 0.42792252 
-0.84357 0.16763665 -0.510184 
-0.6045751 0.1319473 0.78554374 
-0.30722004 0.39413622 0.8661828 
0.1384509 0.41340902 0.899958 
0.45730364 0.56952345 0.68302006 
-0.8288451 0.41889754 0.37086496 
-0.96972406 -0.14198329 0.19868582 
-0.92472416 0.3805531 -0.008042891 
0.3624359 0.55804914 -0.74647266 
0.9837362 -0.17953128 0.0056221657 
0.6886622 -0.018629499 0.724843 
-0.13435745 0.48531443 0.8639549 
0.30942154 0.29926953 0.90260524 
-0.06776555 0.40238252 0.9129602 
-0.2737916 0.1060626 0.9559231 
-0.37652293 0.6779528 0.6313562 
-0.5885575 0.48009622 0.6504674 
-0.37636307 0.25851056 0.8896759 
-0.5560745 -0.23497859 0.79722404 
-0.99807036 0.023659999 0.05740974 
-0.94472736 -0.2972552 -0.13830987 
-0.6852534 -0.1114889 0.71972084 
-0.36290655 -0.88202304 -0.30055666 
-0.01090709 -0.8578356 -0.5138085 
-0.096169494 -0.47584727 -0.87425447 
0.2469719 0.13861665 -0.95905703 
0.96875244 -0.08516088 -0.23295157 
0.82163674 -0.36055663 0.44148847 
-0.10994394 -0.78816223 0.60556805 
0.7811557 0.44552156 0.43738595 
0.74556905 0.074376196 0.6622651 
0.79719734 0.010775343 0.6036226 
0.81893957 0.11949311 0.56130165 
0.5452724 0.5174087 0.65951973 
-0.19182985 0.6782455 0.70935494 
-0.071822025 0.5236037 0.8489293 
0.13530952 0.8494184 0.5100783 
0.30628335 0.8821944 0.35766417 
-0.51227117 0.4157688 0.7514751 
-0.35687453 -0.36835304 0.85846174 
-0.26630074 0.2855512 0.9206219 
-0.15788248 0.23400776 0.9593297 
0.43157142 0.40424538 0.8064315 
0.4139324 0.5886878 0.69433916 
0.3115028 0.6033932 0.73408633 
0.2888334 0.87305766 0.3928684 
-0.44164824 0.3827208 0.81146276 
0.07441487 -0.33994305 0.9374974 
0.05383438 -0.22626612 0.9725768 
0.09657507 0.15061818 0.9838636 
0.4966904 -0.16126496 0.8528143 
0.7460613 -0.1884542 0.6386529 
0.26314136 -0.017083164 0.96460605 
0.14830862 -0.057183854 0.9872865 
0.029244192 0.03826159 0.99883974 
-0.33182517 0.035742085 0.9426636 
-0.33778313 0.8812736 0.33054402 
-0.7366899 0.6343914 0.2341701 
-0.11759962 0.94806147 -0.29555026 
-0.036126424 0.707127 -0.7061632 
0.8050231 -0.0197474 0.5929148 
0.1718794 0.14270061 0.9747277 
0.42964002 0.16497084 0.88780296 
0.54625237 0.3311881 0.7693653 
0.5418169 0.49806738 0.6770255 
0.37346265 -0.06992835 0.92500585 
-0.5764105 0.25979158 0.77476406 
-0.4161252 0.38102403 0.8256274 
0.28867382 -0.16690505 0.94276726 
0.23067111 -0.42822334 0.8737366 
0.20304158 0.8569498 0.47372055 
-0.26463962 0.12873994 0.95571536 
-0.67213583 0.022623088 0.74008226 
0.33270812 0.41295993 0.84780276 
0.33663663 0.2311481 0.91282326 
0.6112531 0.17709656 0.77136666 
0.12605146 0.09381572 0.98757774 
-0.96101636 -0.2646332 0.08010487 
-0.16489393 -0.891907 0.4210842 
-0.30617553 -0.4832307 0.8202101 
-0.32001576 -0.3375004 0.8852589 
-0.2898028 -0.06320502 0.9549972 
-0.5184701 0.36474368 0.77340215 
-0.5366467 0.12790401 0.8340569 
-0.76175535 -0.27564076 0.58630294 
-0.6616597 0.58879673 0.46424663 
-0.54671544 0.68876415 0.47613692 
-0.025894802 0.83036673 0.55661535 
-0.25055727 0.9623234 -0.10561642 
0.40819314 0.81780905 -0.40566853 
0.16515858 0.9209284 0.35300648 
0.21154678 0.9630938 -0.16642785 
-0.534704 0.7447772 0.3992475 
-0.48445043 0.864196 0.13591573 
-0.48686883 0.87186116 0.05307571 
0.022455504 0.90354836 -0.42789736 
0.6606607 0.48652902 -0.5716791 
0.19093513 0.1233147 0.9738261 
-0.52610743 -0.7025064 0.47926587 
-0.62104076 -0.6748183 0.3986587 
-0.350047 0.34763592 0.869837 
-0.94507307 0.326723 0.009433049 
-0.73089975 0.53239125 0.427019 
-0.61077595 -0.6639515 0.4314178 
-0.8338887 0.4256733 0.35132894 
0.3467252 0.75709605 0.5537033 
-0.65960497 0.2573014 0.7061992 
-0.25464395 0.84817004 0.46450403 
-0.30801272 0.94869626 0.07143902 
-0.57456326 0.7418705 0.34569532 
-0.7982357 0.54151577 0.263781 
0.6291297 0.77536273 -0.05484929 
0.353729 0.4065923 0.842353 