# OOMMF: rectangular mesh v1.0
# Segment count: 1
# Begin: Segment
# Begin: Header
# Desc: Time (s) :  2.0799999999999964e-07
# Title: m
# meshtype: rectangular
# meshunit: m
# xbase: 2e-09
# ybase: 2e-09
# zbase: 5e-10
# xstepsize: 4e-09
# ystepsize: 4e-09
# zstepsize: 1e-09
# xmin: 0
# ymin: 0
# zmin: 0
# xmax: 1.024e-06
# ymax: 1.024e-06
# zmax: 1e-09
# xnodes: 256
# ynodes: 256
# znodes: 1
# ValueRangeMinMag: 1e-08
# ValueRangeMaxMag: 1
# valueunit: 
# valuemultiplier: 1
# End: Header
# Begin: Data Text
0.7491989 -0.6622939 0.008242719 
0.7984679 -0.2673504 0.539419 
0.16675238 -0.43370432 0.88549095 
-0.22048518 0.44237858 0.8693029 
-0.49598068 0.4437196 0.7464022 
-0.7363453 0.6762489 0.021981493 
-0.5456175 0.837892 -0.015447115 
0.035460476 0.07774174 -0.9963427 
0.4802813 0.06376391 -0.87479377 
0.59283483 0.07622054 -0.80170894 
0.8219533 -0.22918968 -0.52140665 
0.7706732 0.26151055 -0.5810982 
0.9289682 0.3478101 0.12667416 
0.71164644 0.5992149 0.3667437 
0.9507924 0.309293 0.018217823 
0.5760522 0.27967486 0.7680793 
0.74752176 0.4091435 0.5232714 
-0.0027960185 0.78707236 0.6168545 
-0.6726751 0.6959851 0.2512231 
-0.48838207 0.085949056 0.868387 
-0.77000034 -0.34542084 0.53645504 
-0.9216716 0.26684338 -0.2816311 
-0.5325719 -0.121495016 -0.83761936 
-0.56004494 -0.33058184 -0.75964826 
-0.059566114 -0.16439417 -0.9845946 
-0.10314957 0.5111725 -0.85326606 
0.3222554 0.93622184 0.14014317 
0.038210064 0.9818265 -0.18589441 
0.58958673 0.28829905 0.7545007 
-0.15651616 0.21784806 0.96335095 
-0.5124581 0.70818996 0.48564777 
-0.5563733 0.19605424 0.80747235 
-0.44810158 -0.46651983 0.76260364 
-0.88494396 0.058365457 0.46202564 
-0.22019826 -0.02608014 0.9751065 
-0.9212635 -0.042189624 0.38664407 
-0.9125568 0.22031581 -0.34453017 
-0.99264485 0.065110065 0.102063164 
-0.68254364 0.2458058 0.68826866 
-0.45405483 0.3157559 0.8331461 
-0.23785588 0.4528817 0.8592571 
0.1751447 0.10813388 0.97858644 
0.1740132 -0.28303707 0.94319105 
0.5357953 -0.43129092 0.72588676 
0.7475073 0.35194302 0.5633552 
-0.021843921 0.7774569 0.6285569 
-0.30853203 0.7546978 0.5789985 
0.7077472 0.62901455 0.32161242 
0.99423456 -0.06874886 0.08228842 
0.659939 -0.50579375 0.55556583 
0.9820751 0.031390004 0.18585818 
0.56518567 0.72082317 0.40122223 
0.44642884 0.32479122 0.8337938 
0.2446909 0.12036548 0.9621011 
-0.66332805 0.5347113 0.52352625 
-0.084705785 0.6319792 0.77034235 
-0.5474972 0.68963325 0.47397563 
-0.04059383 0.9820787 0.18404843 
0.5557011 0.6539946 0.51331025 
0.70505685 0.6938672 0.14643481 
0.38304457 0.8243424 0.416817 
0.050452825 0.77107006 0.63474834 
-0.15460154 0.7077468 0.68934244 
-0.1555648 0.91316634 0.3767318 
0.44586256 0.6006099 0.66368246 
0.08543513 -0.001431079 0.9963428 
-0.6824578 -0.42130193 0.5972907 
-0.21310496 -0.8977453 -0.3855384 
-0.8022076 0.28601938 0.5240762 
-0.5618179 0.55946374 0.6093941 
-0.5532258 0.5026261 0.66431034 
-0.43271556 0.637382 0.6375748 
-0.12094206 0.9513496 0.2833849 
0.10327399 0.62145865 0.77661043 
-0.3781981 0.83113796 0.40764692 
-0.60651296 0.78656894 0.1159798 
-0.47479743 0.6861778 -0.5511148 
-0.54307026 0.821493 0.17385028 
-0.73942286 0.6669083 -0.09212624 
-0.7681495 0.5981243 0.22845922 
-0.78992724 0.39734387 0.46704704 
-0.38481742 0.4649313 0.79734224 
-0.594219 0.40133116 0.6970202 
-0.837949 0.37986287 -0.3918491 
-0.3061233 -0.0008799662 -0.95199156 
-0.07986459 0.70222837 -0.70745814 
-0.19074535 -0.26071814 -0.9463838 
0.021637194 -0.39983442 -0.916332 
0.65285593 -0.44344002 -0.6141174 
0.91512316 -0.21321242 0.34218428 
0.75773203 0.38568377 0.5263937 
0.010962363 0.4744278 0.8802262 
-0.64512473 0.3421283 0.6832001 
-0.9228768 0.22466199 0.3127707 
-0.33276 0.35225832 -0.87474847 
-0.5816034 0.8115847 0.055386584 
-0.5129742 0.49416327 -0.7018975 
0.32792985 0.05181098 -0.94328034 
0.8458418 -0.48168275 0.22920163 
0.497294 -0.8282347 0.25831357 
0.9699438 -0.22105716 -0.10169913 
-0.034119964 -0.14818192 0.9883714 
0.4557909 -0.035826858 0.8893657 
0.53622866 0.3439028 0.7708371 
0.31917486 -0.35109562 0.88026094 
-0.41532955 -0.11081541 0.9028961 
-0.7060775 0.3375751 0.62249315 
-0.25548923 0.7760406 0.57661617 
-0.84340477 -0.1946825 0.5007667 
-0.9803544 -0.15818177 0.11782987 
-0.13469467 -0.26020676 0.9561118 
-0.7840057 0.34513023 0.5159652 
-0.53574187 0.29491174 0.7912065 
-0.6555378 -0.0015706599 0.7551608 
-0.91047454 0.11051651 -0.39852524 
0.10649147 0.38536844 -0.9165974 
-0.04922618 -0.8642428 -0.50066084 
0.9986131 -0.031593286 -0.042115886 
0.9131571 -0.06589541 0.40224606 
0.36846766 0.5180028 -0.77194875 
0.52264297 0.6773096 -0.5177801 
0.3554567 0.75142276 -0.55589056 
0.39853558 0.89926475 -0.18025643 
0.62790793 0.7757098 -0.06329308 
-0.62400925 0.7173219 0.3099386 
-0.48105612 0.4164925 0.7714397 
-0.71665376 0.63750786 -0.28282708 
-0.83592165 0.5429283 -0.08039782 
-0.6539981 0.45353603 -0.60546815 
-0.0790844 0.3017389 -0.9501049 
0.43587267 0.26761 -0.8593021 
0.24807239 0.7321228 -0.63439447 
0.4818538 0.65321755 -0.5840581 
0.75466704 0.60992044 0.24181557 
0.23830716 0.72987807 0.64069325 
0.44266933 0.44537494 0.7782578 
0.1317431 0.13735113 0.9817222 
0.40425712 -0.61067235 0.6809226 
0.6006961 0.13961464 0.78719246 
0.115689136 0.8249133 0.55329394 
0.3611732 0.76062065 0.53945357 
0.099574745 0.2374085 0.966293 
-0.5801493 0.30686578 0.7544935 
-0.12404387 0.9722915 0.19814754 
-0.59721595 0.772793 -0.21476535 
-0.08624561 0.8761533 -0.47425425 
-0.3694261 0.7095552 -0.60004646 
0.17194098 0.5045213 -0.84610564 
0.031583738 0.6571954 -0.7530582 
0.7788434 0.19182864 -0.597164 
0.68397 -0.21683511 -0.69653976 
-0.49168524 0.06917545 0.86802095 
-0.1808197 0.76659566 0.61614555 
-0.22843277 0.97110975 -0.06902462 
-0.63406926 0.5486688 0.54490256 
-0.949044 0.31389725 -0.02800103 
-0.4285582 0.86781174 -0.2514768 
-0.9888159 -0.08758247 0.12071722 
-0.8958781 -0.44033533 0.05922249 
-0.31197193 0.53231794 -0.7869633 
0.23199186 0.90399486 -0.35912845 
0.48567697 0.87316406 0.04126208 
-0.3247837 0.89274424 0.31228733 
-0.30247137 0.8179625 0.48933458 
-0.74972504 0.65358055 0.10365709 
0.40914503 0.48721346 0.77150726 
-0.029151566 0.51019585 0.8595642 
-0.32667154 0.3665063 0.87118244 
-0.4248392 -0.16769435 0.8896012 
-0.6887186 0.23840304 0.6847122 
-0.8250375 0.56130207 0.06521798 
-0.33742577 0.4167525 0.84407425 
-0.47464192 0.119976416 0.87196374 
-0.9739872 -0.025349217 -0.22518086 
-0.87456375 -0.24356121 0.41930434 
-0.39755198 0.29604366 0.86851066 
-0.7712856 0.56534785 -0.29240456 
-0.7055522 0.40255314 -0.5832213 
-0.7346022 0.05415499 -0.6763334 
-0.1953902 -0.4133025 -0.88938403 
0.8843681 0.031333923 -0.46573743 
0.81484896 0.5698346 0.106348 
0.6760256 0.6921021 0.25295094 
-0.12582491 0.7423356 0.6581079 
0.0470111 0.89311874 0.4473578 
-0.33923754 0.93937695 0.049890347 
-0.044693377 0.7363824 0.6750878 
-0.16915968 0.979858 -0.1061291 
0.9727898 0.1805605 -0.14518219 
0.73111963 0.2575 0.6317894 
0.13323541 0.8703066 0.4741465 
0.22589721 0.8034574 0.5508418 
-0.66545796 0.43685535 0.60524637 
0.02863338 0.76715577 0.64082164 
-0.6624686 0.43235496 0.61172265 
-0.9743468 -0.10019525 0.20151746 
-0.029719219 -0.4133236 -0.91009915 
0.10750954 -0.6023353 -0.79097027 
0.7347882 0.44676426 -0.51038027 
-0.25794476 -0.44011393 -0.86009556 
0.24629073 0.59953713 -0.7615091 
0.641739 0.7556006 0.13129695 
0.16624065 0.9789209 0.11865076 
0.063193075 0.8095691 0.58361334 
-0.025562024 0.7228661 0.6905151 
-0.3341762 0.2663307 0.90409863 
-0.8319968 0.013345157 0.55462 
-0.9158106 0.18290518 0.3575426 
-0.12333382 0.3438241 0.93089944 
0.3922898 -0.041812897 0.9188909 
0.48222935 0.025155475 0.8756837 
0.32258818 0.4876563 0.81125104 
-0.120871946 -0.26306823 0.95717555 
-0.46128047 -0.17952308 0.86890274 
-0.6669759 -0.03794799 0.74411225 
-0.061491262 -0.48796222 0.8706962 
-0.74896544 -0.20892794 0.6288083 
-0.9924986 0.06982578 -0.10035417 
-0.2477952 -0.1516693 -0.9568668 
-0.11979174 -0.6884941 -0.7152803 
0.3061362 -0.4555676 -0.835906 
0.27006873 -0.21208861 -0.9391919 
0.6716377 -0.040010773 -0.7397986 
0.2640863 -0.9188186 -0.29331005 
0.21697716 -0.9417373 -0.2570055 
-0.022062682 -0.955863 0.2929834 
0.9362698 0.13579369 -0.32397366 
0.679842 0.5834223 0.4443347 
0.56424326 0.39020273 0.7275791 
0.15995504 0.56705207 0.8080015 
-0.04248628 0.7812863 0.62272537 
-0.018282134 0.7151208 0.6987619 
0.07376247 0.931752 0.35552397 
-0.39984685 0.9137803 -0.071611814 
-0.64226085 0.7440152 0.18423492 
-0.90133333 0.25872418 -0.34736148 
-0.7478599 0.6563765 0.09937595 
0.62147105 0.71608245 0.31780443 
0.83643055 0.022681301 0.54760337 
0.6963543 0.19784084 0.6898911 
0.44929525 0.36155626 0.8169522 
-0.46302634 0.38848826 0.79667026 
-0.13828187 -0.0069368426 0.99036866 
0.7992609 0.34577265 0.491552 
-0.28794822 0.5123795 0.8090446 
-0.7912383 0.58942425 0.16285284 
-0.43988582 0.8647055 0.24245596 
-0.77187526 0.4861338 -0.40973482 
-0.7345349 0.6753561 0.065974966 
-0.9234899 0.21090735 0.32044402 
-0.9758713 -0.16873547 0.13857666 
-0.9962289 -0.0851673 0.016571162 
-0.9683334 0.2245987 0.10902276 
-0.26050293 0.9166398 0.30316627 
-0.36522517 -0.531817 0.7640557 
-0.5921502 -0.7943255 0.1356654 
0.8417795 -0.20476954 -0.4994767 
0.7010491 0.6400367 0.3144572 
0.50743395 -0.10238563 0.85558635 
0.13380125 0.7249781 0.6756508 
0.2648997 0.7423196 0.61545914 
-0.30086797 0.8551319 0.42217028 
-0.40744358 0.8443205 0.34801266 
-0.50280297 0.38808796 -0.7723839 
-0.9227009 -0.07515336 -0.37812057 
0.9243887 0.2697406 -0.26971388 
0.7938641 0.59467626 -0.12704381 
0.7284257 0.6715691 -0.13561359 
0.09602609 0.53208816 0.8412261 
0.61762315 0.5997633 0.5087491 
0.36716732 0.77182955 0.5191025 
0.43639046 0.7579089 0.48490977 
0.27436435 0.4660549 0.8411403 
0.07875393 0.25386146 0.96402913 
-0.2186065 0.33792138 0.91543454 
-0.61480796 -0.16357447 0.77152747 
-0.72998434 -0.02156973 0.6831235 
-0.8813479 0.4144176 0.22690086 
-0.34892854 -0.12429073 -0.92887074 
-0.53741044 0.17372862 -0.82523245 
0.0053540417 0.0901587 -0.9959131 
0.38970348 0.6846199 -0.6159763 
0.48427698 0.6444835 -0.5917068 
0.65460193 0.5471931 -0.5216092 
0.10832203 0.8612674 0.49647248 
-0.17329241 0.7287246 0.66251814 
-0.75765586 0.2550942 0.6007367 
0.0039187707 0.09538637 0.9954327 
-0.685641 -0.0802689 0.7235008 
-0.016775632 -0.11475249 0.99325246 
-0.86258376 -0.33856636 0.3759283 
-0.8311729 0.15835355 0.53298753 
-0.2618433 -0.26521763 0.92795354 
-0.88216186 0.10802985 0.45838857 
-0.88505274 0.108440526 0.45268366 
-0.03160226 -0.56935805 0.82148206 
0.7573845 -0.024933595 0.65249294 
0.24710265 -0.89787394 0.36436614 
0.3340776 -0.9409992 0.05396931 
0.6300394 -0.5007133 0.5935794 
0.48408672 0.12344545 0.8662686 
0.3700954 -0.60354614 0.7062305 
0.51599 0.58292687 0.6276549 
0.36673665 -0.06730022 0.9278874 
0.5921615 0.11750077 0.7972067 
0.79492325 -0.16884553 0.58274204 
0.7450453 0.334444 0.577109 
0.45821807 0.37505123 0.80583674 
-0.36374086 0.0062538823 0.9314793 
-0.47353646 -0.22451225 0.8516793 
-0.68914795 0.33818394 0.64086413 
-0.4771756 0.51408887 0.7127525 
-0.49472913 0.3770794 0.78297776 
-0.6165065 0.56154794 0.5518911 
0.2837325 -0.28348577 0.9160413 
0.45636383 0.29435584 0.83969444 
-0.39186737 0.60765755 0.69079113 
0.1807463 0.51255596 0.8394148 
-0.495557 0.67244625 0.549763 
-0.29512864 0.79478127 0.5303035 
0.057393204 0.5609745 0.82584125 
-0.278501 -0.04431897 0.95941293 
-0.10468802 -0.34631827 0.9322576 
-0.3567898 -0.5127225 0.78090763 
-0.73424983 -0.58906853 0.33745444 
-0.27369463 0.24653435 0.9296839 
-0.45063365 0.4515886 0.77006304 
0.3934906 0.45391136 0.7994559 
0.33148697 -0.13846602 0.93324363 
0.21536975 0.5187329 0.82736456 
-0.08998018 0.66637 0.7401721 
-0.20446916 0.45585737 0.8662484 
-0.64862424 0.6442929 -0.40518308 
-0.371289 0.86603725 -0.33484936 
-0.46997333 0.88075256 -0.0583111 
-0.5262827 0.8267566 0.19874601 
-0.3404184 0.44415167 0.828761 
-0.78704035 0.27676883 0.55133176 
-0.6881564 0.6175505 0.38088334 
-0.63908106 0.5630544 0.5239706 
-0.8820759 -0.014718628 -0.47087738 
-0.25322407 0.07503712 -0.9644931 
0.52296376 0.8120684 -0.25894746 
0.30561683 0.89867616 -0.31461024 
0.72860956 -0.4810028 -0.4876109 
0.9796919 -0.09023486 0.1790575 
0.62926215 0.09549754 0.7713037 
-0.5513547 -0.3909269 0.7370103 
-0.22581205 0.3094723 0.92370766 
-0.47189456 0.7913397 0.38871202 
-0.5482136 0.8319631 -0.085436165 
-0.39277682 0.91919386 0.028445587 
-0.4132127 0.5948204 -0.68952453 
0.12470503 0.9504181 0.2848755 
0.8776201 0.38442716 0.28635433 
0.93472296 0.26987496 -0.23121536 
0.67156464 0.69850516 0.24716714 
0.14137003 -0.055380866 0.9884066 
0.8076375 0.14022923 0.57276297 
0.3335081 0.16717376 0.92780674 
-0.02180545 0.3322299 0.94294643 
0.15846941 -0.333868 0.92920387 
-0.2745518 0.10981039 0.9552816 
-0.63622326 0.16368394 0.7539413 
-0.9233134 0.30931315 0.22763562 
-0.7820885 0.10501097 0.6142559 
-0.2895058 -0.43295977 0.85365814 
-0.59298664 0.020274354 0.80495703 
-0.96394145 -0.23834926 0.11834894 
-0.99709356 0.019866822 0.07355067 
-0.94338644 0.06344722 -0.3255712 
0.107798 -0.31780493 -0.9420084 
0.18161158 -0.36141944 -0.91454536 
0.93799347 0.009957728 -0.34650975 
0.7288562 0.6777189 0.09729252 
0.70869917 0.405938 -0.5770268 
-0.10130053 0.9939752 0.041850086 
0.2625325 0.35442084 -0.8974757 
0.9288023 0.1946858 0.31531557 
-0.23634224 0.95980203 -0.15140189 
-0.24629739 0.96882486 0.026756523 
-0.59465456 0.79394287 0.12665218 
0.13136964 0.7954388 -0.59162414 
-0.35143268 0.48657164 -0.7998394 
-0.24041483 0.41214564 -0.8788269 
0.38714832 0.23009986 -0.8928439 
0.38829687 0.32187247 -0.8634951 
0.76524544 0.25740013 -0.59003776 
0.54938316 0.7771605 0.30691987 
0.86964864 0.49003845 0.059778966 
0.71872133 0.0013620872 0.6952969 
0.79072803 0.2952732 0.5362491 
0.843923 -0.38382915 0.3747923 
0.87968475 -0.3520494 0.31971243 
0.90011626 -0.3171791 0.29864404 
0.40681368 0.8379773 0.36372608 
0.043583713 0.30554125 0.95118093 
-0.32396722 0.0071031195 0.94604164 
-0.7615574 0.17976646 0.6226672 
-0.7265049 0.49568546 0.4759061 
-0.7044906 0.6998792 -0.11773761 
-0.9475763 0.28657165 -0.14133649 
-0.21349709 0.5584674 -0.8015817 
-0.30151054 0.4439869 -0.8437815 
-0.058920305 0.96373695 -0.26026833 
0.5379493 0.57246774 -0.61878204 
-0.02946237 0.9225434 -0.38476726 
-0.2259262 0.53840095 0.81183857 
-0.64071363 0.7177335 -0.27266222 
-0.9672123 -0.12392197 -0.22168395 
-0.9586218 0.2751088 -0.073208205 
-0.84349537 0.38189363 -0.37772065 
-0.2905317 0.93619466 -0.19781543 
-0.7042221 0.7018085 -0.10740622 
-0.7695208 -0.102737166 -0.63030374 
0.0531201 0.7724219 -0.6328845 
0.595717 0.7513207 0.28396896 
-0.08917111 0.95945895 0.26737055 
-0.2718944 0.6868845 0.67399055 
0.039590742 0.62133074 0.78254765 
-0.34134203 0.343404 0.87496245 
0.11117208 0.41422307 0.9033605 
-0.53055996 0.781035 0.329379 
0.77750325 0.33157057 0.5343684 
-0.74661446 -0.2929389 0.5972887 
-0.9420516 0.21666218 0.256118 
-0.37237796 -0.24601789 0.89487976 
0.08942822 -0.39123443 0.9159358 
-0.46453103 0.6322921 0.62001425 
-0.9212777 0.12976788 -0.3666166 
-0.9131851 -0.22214776 0.34167728 
-0.9751189 -0.04184621 -0.21769749 
-0.8971421 0.39784595 -0.19197601 
-0.4044921 0.90493494 -0.13220838 
-0.11763275 0.7291894 -0.6741257 
-0.181511 0.77076465 -0.6107174 
0.5803611 0.4804528 -0.65753037 
0.6832196 0.7199281 -0.12212545 
0.23338868 0.92135125 0.31087232 
-0.19196872 0.3580723 0.9137463 
-0.06445958 0.56191987 0.82467633 
-0.25563157 0.55467576 0.7918253 
-0.31729776 0.53453624 0.783322 
-0.19551091 0.59498096 0.7795982 
0.20043801 0.056582756 0.9780711 
0.3922319 0.32710966 0.8597404 
0.43552738 0.5427314 0.7181634 
0.4861658 -0.32710585 0.81033605 
-0.13046685 0.15772168 0.97882706 
-0.5542512 0.017306628 0.83216953 
-0.7484199 0.4137097 0.5183744 
-0.7609924 0.48242554 0.43376982 
-0.13387775 0.5563881 -0.82006663 
-0.16988866 0.3712823 -0.9128458 
0.67324007 0.5907654 -0.44468427 
0.33169052 0.29471588 -0.8961718 
0.7547327 0.5767105 -0.31270376 
0.9497651 0.19866012 -0.24182755 
0.72230417 0.6780126 0.13629255 
0.6609207 0.31527555 0.68101776 
-0.28321555 0.66373837 0.6922718 
-0.5614534 0.12924474 0.817353 
-0.65703 -0.07887996 0.7497264 
-0.5783368 -0.31399775 0.7529489 
-0.2969257 0.028427958 0.95447737 
-0.19015816 0.47088367 0.8614572 
-0.14597416 0.92090863 0.36141238 
0.018296815 0.13067278 0.9912567 
-0.20989211 0.23430716 0.9492342 
-0.6229324 -0.49269444 0.6076244 
-0.4681504 -0.4553208 0.75730985 
-0.6794233 0.12899221 0.7223192 
-0.6619863 -0.6692893 0.3373811 
-0.7995726 -0.57370305 -0.17761937 
-0.3555666 -0.41123742 -0.8393189 
0.32132176 -0.3049027 -0.8965416 
0.5496389 -0.18803887 -0.8139647 
-0.36011204 -0.30088723 -0.8830551 
0.2527383 -0.06263621 -0.96550506 
0.95754033 0.13706288 -0.2536343 
0.99421644 -0.106686264 -0.012319927 
0.6839276 -0.58955306 -0.4297329 
0.99271625 0.12027156 -0.0070225364 
0.52942777 0.23228155 0.8159361 
0.31998026 -0.08307234 0.9437752 
0.97585213 -0.076733716 0.20451061 
0.7531557 0.12180482 0.64646745 
0.44316906 -0.097642936 0.8911045 
0.17050412 0.81436825 0.55473673 
0.4193551 0.8938394 0.15872152 
-0.011462195 0.9458471 0.32440996 
-0.20234972 0.9790804 -0.021363193 
0.40538475 0.039736908 0.9132822 
-0.14605173 0.45873648 0.87648714 
0.20606716 -0.21072148 0.9555798 
0.6609477 0.0599203 0.7480359 
0.7258787 0.27519393 0.63037175 
-0.09057 -0.5624852 0.8218318 
-0.15982369 -0.14087214 0.9770422 
0.41136423 0.38465846 0.8263277 
-0.66494954 -0.11551966 0.7379007 
-0.6924757 0.14521675 0.70667505 
-0.6015561 0.4430817 0.6646871 
-0.2319326 0.8057324 0.5449796 
-0.27634627 0.94985175 0.14633666 
-0.70676655 0.12863167 0.6956544 
-0.706875 0.70402503 0.068384804 
-0.647931 0.56671154 0.50894356 
-0.72585803 0.5260734 0.44314435 
-0.14536574 -0.11712064 0.9824213 
-0.712703 -0.6235224 0.32136327 
-0.59256834 -0.16053692 0.789361 
0.7095301 0.15077952 -0.68835497 
0.884176 0.33304563 -0.32758743 
0.61057824 0.052251376 0.7902304 
0.24490887 0.3845455 0.890025 
-0.33205238 0.086159915 0.93931776 
-0.7246137 0.13364433 0.6760727 
-0.6992565 0.5949297 0.3963572 
-0.8836373 0.4358375 -0.17097005 
-0.56265503 0.79653573 -0.22124675 
-0.46607816 0.7390936 -0.48632476 
0.47562695 0.8526563 0.21623215 
0.51255774 0.75629807 0.40656832 
-0.058787487 0.5907779 0.8046897 
-0.07952483 0.6187838 0.78152573 
0.09927592 0.5112718 0.8536659 
0.16307068 0.07929933 0.9834224 
0.020301534 0.81107527 0.58458936 
0.038222887 0.31130895 0.9495398 
0.18636075 0.02234989 0.9822272 
-0.4324319 0.17720942 0.8840812 
-0.81522375 0.14150244 0.5615936 
-0.86464745 0.39251095 0.31356037 
-0.94344336 0.28726268 -0.16551371 
-0.12565523 0.9474031 -0.29434356 
0.11492792 0.98330116 -0.14110418 
0.24661708 0.94950736 0.1939481 
-0.105762035 0.8577004 0.5031546 
0.07930958 0.9218883 0.37925205 
0.19855618 0.69385576 0.6921991 
-0.6702023 0.5607245 0.4862274 
-0.69997627 0.36209399 0.6155658 
-0.9237942 0.18493089 0.33526832 
-0.71807384 0.33999884 0.60726494 
-0.93480885 -0.14658499 0.3234893 
-0.9044238 -0.3898409 0.1733257 
-0.8542586 0.243437 0.4593263 
-0.7528231 -0.041110802 0.6569378 
-0.7816633 -0.42116088 0.46002832 
-0.53566366 -0.7634595 0.36082414 
0.25814155 -0.83284664 0.48962182 
0.6343609 -0.7706501 0.060702696 
-0.39986932 -0.5725261 0.7157642 
0.24864076 -0.84346026 0.4761856 
0.5326552 -0.8319061 0.15559828 
0.511517 -0.80796 0.29249126 
0.67368805 -0.5834499 0.4535755 
0.27403057 0.19585033 0.94156784 
0.55483264 -0.06969632 0.82903755 
0.824149 0.33609173 0.45587352 
0.6582887 0.6142474 0.43515074 
0.6782924 0.51216567 0.52688307 
0.81698895 0.028786432 0.5759344 
0.25307223 -0.26929682 0.9292114 
-0.3589076 0.6820945 0.6371283 
-0.77426594 0.0043944 0.6328451 
-0.87819207 0.25890818 0.4021757 
-0.80765635 0.23042877 0.54276514 
-0.6311522 0.2888784 0.7198584 
0.02704249 0.30831334 0.9509005 
0.39387086 0.20741627 0.8954575 
-0.28046077 0.25475362 0.92544174 
-0.6520303 0.7526024 0.091903634 
-0.12490541 0.9919276 0.021873852 
0.17910947 0.54523295 0.8189267 
-0.040790696 0.682171 0.7300541 
0.16229539 0.54183507 0.8246666 
0.34283796 0.24234392 0.9075966 
-0.14803827 0.18764691 0.9710167 
-0.31441885 -0.7009736 0.6401382 
-0.27490526 -0.12934941 0.9527308 
0.46124724 0.17944443 0.8689366 
0.03559117 0.3431249 0.93861526 
0.2729675 -0.08547311 0.9582187 
0.7097754 0.5411315 0.4509941 
0.5269597 0.29539746 0.79690266 
-0.27173486 0.7255423 0.6322567 
-0.76098174 0.6288178 0.15967217 
-0.33506 0.65086555 0.68125534 
0.09844588 0.9612323 0.25756723 
-0.045614075 0.6881869 0.72409827 
0.3873054 -0.011685261 0.92187744 
-0.15712854 0.13613875 0.9781497 
-0.22862646 0.5021531 0.8340098 
-0.73602724 0.2792364 0.61667734 
-0.67430556 0.681198 0.2850989 
-0.45378277 0.73841184 0.4988278 
0.2538364 0.5177976 0.81697786 
0.6531052 0.7486328 -0.11402891 
0.72374725 0.6839208 0.09188242 
0.9602243 0.13868856 0.24235284 
0.38199568 -0.043129113 0.9231572 
0.75571907 0.16291213 0.6343094 
0.39794698 0.41958317 0.815836 
-0.27186885 0.2968916 0.9153921 
0.44551933 0.6993606 0.55893403 
-0.41525635 0.81269175 0.40877172 
-0.7788525 0.222361 0.5864678 
0.097780444 0.430591 0.8972349 
0.9420974 0.19835843 -0.27038184 
0.89684075 -0.22398753 0.38145286 
0.61720985 0.65693766 0.43299544 
0.32609922 0.51336086 0.79380095 
0.7179261 0.06697447 0.6928901 
0.38721833 -0.4805489 0.7868513 
-0.19672944 -0.14901544 0.96906763 
-0.2097682 0.5372768 0.81690323 
-0.52739644 0.11539204 0.84174687 
-0.2431562 0.49401888 0.83475775 
-0.95789665 0.051155817 0.28251934 
-0.88798326 -0.40429527 0.21915996 
-0.70280194 -0.41401684 0.5784976 
-0.9547889 -0.22793207 0.19085407 
-0.9310726 -0.36172712 0.047510974 
-0.9478696 -0.31581667 0.042464506 
-0.9730122 0.030279495 -0.22875842 
-0.24460393 0.2067917 -0.9473152 
0.10077513 0.15206078 -0.9832202 
0.6619557 -0.15956905 -0.7323609 
0.82874894 0.53157747 -0.17493035 
0.6694472 0.7399504 -0.06568072 
0.7022586 0.70121294 -0.12301809 
0.63666916 0.70479333 0.31291983 
0.6598102 0.7380702 0.1410778 
0.24244265 0.96700716 0.078223184 
-0.7028545 0.70263124 0.11092759 
-0.5284513 0.15047495 -0.8355217 
0.017614853 0.42756173 -0.90381455 
0.4443319 0.62170124 -0.64502466 
-0.6402771 0.7580409 -0.12417414 
0.14133865 0.6542404 -0.74296224 
0.29033944 0.4864594 -0.82405114 
0.846559 0.32882023 -0.41858712 
0.81707543 0.08172941 0.57070833 
0.45128614 0.70718086 0.54427576 
0.37091514 -0.3144489 0.87380993 
0.57530826 0.3021049 0.7601007 
0.39605242 0.3760384 0.8376978 
-0.281401 0.777647 0.5622086 
0.69933534 0.28394273 0.6559776 
0.33244812 0.15067329 0.931008 
0.6329682 0.24234636 0.73526835 
0.24185474 0.013050698 0.97022474 
-0.36447424 0.23336242 0.9014991 
0.054287806 0.50091 0.86379516 
-0.9388163 0.3430065 -0.031155026 
-0.49063915 0.84345293 0.21877038 
-0.12358905 0.85895073 -0.49692 
0.066062674 0.94307065 0.32596546 
-0.041388292 0.9964407 0.07343736 
0.382869 0.89085144 -0.24453017 
-0.4269456 0.90308005 0.046518836 
-0.6537619 0.3758848 0.65673894 
-0.71066135 0.70340866 -0.013295587 
-0.88318676 0.14852816 -0.44488254 
-0.8686889 0.19563487 0.45508984 
-0.5908025 0.6570013 0.4682967 
-0.30659166 0.84485644 0.43842795 
-0.5426613 0.7654411 0.34585923 
-0.74445343 0.035150293 0.6667485 
-0.52672255 0.5331537 0.6620502 
0.4766471 0.6793515 0.5579329 
0.405754 0.8210192 0.4016111 
-0.15517704 0.7942219 0.58747923 
-0.3081492 0.37399748 0.87473994 
-0.5640673 0.7318221 0.38244563 
-0.45049846 0.5590657 0.696058 
0.16318063 0.6261545 0.76243216 
-0.022306059 0.49183246 0.8704041 
-0.5141126 0.3681766 0.77468336 
-0.8226751 0.41257364 0.391138 
-0.4510612 0.37712103 0.80890274 
-0.8372014 0.24788712 0.48748922 
-0.71550816 0.5044224 0.48332816 
-0.67602545 0.7304808 -0.09688854 
-0.7640705 0.640284 -0.078947246 
-0.6447211 0.714711 0.27115119 
-0.49943823 0.5963288 0.6284533 
-0.24722596 0.92888486 0.27577573 
-0.48883685 0.72881407 0.47944617 
-0.7615359 0.61219054 0.21280487 
0.38873515 0.85134214 -0.35228077 
0.76126933 0.5452233 -0.35099924 
-0.13104495 0.9874339 0.08832692 
0.50223017 0.6299568 0.59238446 
-0.13180462 0.776985 0.6155663 
0.044481598 0.3379091 0.940127 
0.25165996 0.41247857 0.8755163 
0.08766597 0.59046626 0.8022869 
0.5463914 0.4227716 0.72299427 
0.4834896 0.46357492 0.7425202 
0.0075343843 0.05009288 0.9987162 
0.4401196 0.3447464 0.8291229 
0.82547915 0.32715282 0.45995143 
-0.26986334 0.040499434 0.96204656 
-0.21951567 0.9750959 -0.031636737 
0.1197983 0.9434971 0.30896872 
-0.44369036 0.8665636 -0.22848703 
0.30181023 0.65444183 -0.69326514 
0.4145464 0.71759856 0.559646 
0.4322213 0.26233217 -0.8627669 
0.80248964 0.07760689 -0.5915976 
0.98057157 -0.09947708 0.16906747 
0.9654284 -0.25733045 0.04158122 
0.6104639 -0.15467677 0.776794 
0.07641149 -0.20259537 0.9762768 
-0.34681433 0.15458114 0.9251079 
-0.2430246 -0.36553586 0.8985113 
-0.2699669 -0.51436 0.8139728 
0.09454504 0.0011536413 0.99552 
-0.14138009 0.64841795 0.7480414 
-0.6881358 0.19054519 0.70011556 
-0.442753 -0.12006855 0.88856816 
-0.38731408 0.43647987 0.8120795 
-0.54512 -0.7510578 0.37250042 
-0.6771504 0.07940008 0.7315483 
-0.8258748 -0.10493781 0.5540026 
-0.851902 -0.52369815 0.0018052877 
-0.81725055 0.0852684 -0.5699394 
-0.06070948 0.27747133 -0.95881385 
0.5122464 0.8020648 -0.3070763 
0.16702619 0.87610734 -0.45225906 
0.13353565 0.8038758 -0.57961357 
0.31434968 0.20180571 -0.92760915 
0.6593086 -0.09175109 -0.74625325 
0.4700798 0.8431632 -0.26096126 
0.8147571 0.31083536 -0.4894409 
0.9280151 0.28845543 -0.23575732 
0.9139226 0.14950693 0.3773503 
0.7632117 -0.2565098 0.5930519 
0.17420198 -0.24930543 0.95262825 
0.33480653 -0.033857133 0.94167846 
0.789407 0.49860072 0.35809776 
0.2008868 0.41944173 0.8852758 
-0.16591723 0.74556416 0.64544994 
-0.19696397 0.5596224 0.8050019 
0.42583615 0.70291543 0.5697135 
0.57354665 0.004917327 0.8191582 
0.33377096 0.7049479 0.6258158 
0.67614573 0.64491695 0.3562431 
0.2989629 -0.47045788 0.83023536 
0.6559353 -0.58010685 0.48293385 
0.83548886 -0.3319578 0.43790686 
0.19720386 -0.18400289 0.9629401 
0.70692605 -0.17264256 0.6858938 
0.85740286 -0.30120116 0.4172986 
0.0790228 0.010567764 0.9968169 
-0.1977462 0.3458001 0.9172343 
0.14463943 0.18687785 0.97167706 
-0.111321434 0.26463714 0.9579013 
-0.3584854 0.098728925 0.92829996 
-0.3064917 0.6421684 0.7026255 
0.13874803 -0.094396286 0.9858187 
-0.7765248 0.22068731 0.5901749 
-0.6371904 0.20384927 0.743259 
-0.36623758 -0.40703654 0.8367744 
-0.8112009 -0.14599429 0.56624985 
0.5923312 0.45055142 -0.6679426 
0.89705807 -0.041465413 -0.43996316 
0.89433956 0.29758087 0.33406964 
0.25542042 0.55995274 0.7881709 
-0.32226434 0.10821551 0.9404441 
-0.20782053 0.79946136 0.56362426 
-0.635979 0.7679729 -0.07581847 
0.01121527 0.9620203 -0.2727476 
-0.615192 0.61206186 0.49690962 
0.3504981 0.7276697 0.5896168 
0.28785786 0.23036613 0.9295534 
0.19435777 0.5671739 0.8003368 
-0.17338546 0.15018825 0.97333497 
-0.21875747 0.2534913 0.9422778 
0.20652327 0.63258564 0.74644727 
0.17170957 0.19874994 0.96489084 
0.18841635 0.422565 0.8865316 
-0.06193541 0.7950379 0.60338956 
-0.27023646 -0.3578357 0.8938266 
-0.22681014 -0.59252906 0.77295965 
-0.2127933 0.061241087 0.97517616 
-0.25544327 0.5860786 0.76893485 
-0.7770045 0.62371266 -0.08512744 
-0.80903184 0.5856494 0.04982416 
-0.7430499 0.4303368 -0.5125301 
-0.49292073 0.8236216 -0.28049403 
0.44706473 0.71302533 -0.54011846 
0.70174366 0.7103544 0.05433698 
0.23677292 0.50550157 0.82970285 
0.1838008 0.3515121 0.9179632 
-0.72803134 0.26241305 0.6333323 
-0.9329918 0.2937641 0.20791551 
-0.94296014 0.32243133 0.08285115 
-0.8321632 0.55289376 -0.042579006 
-0.89752644 0.36827177 0.24253325 
-0.9906948 -0.01839616 0.13485372 
-0.8283676 -0.52773136 0.18790129 
-0.6072541 -0.6396446 0.471272 
-0.2788069 -0.7993753 0.5322273 
0.21642892 -0.97198576 0.09166339 
0.48081833 -0.42797974 0.7652759 
0.2305774 -0.9409195 0.24800132 
0.43572915 -0.8500446 0.295913 
0.99825466 0.04521156 0.037996132 
0.8879911 -0.34903064 0.29941538 
0.8473851 -0.35884196 0.3913708 
0.51311225 0.10042367 0.85242647 
0.43356767 -0.017936522 0.90094256 
0.17348136 0.56590974 0.8060089 
0.7060241 -0.12567672 0.6969472 
0.8179494 0.42755714 0.38490745 
0.8461054 0.3301451 0.4184615 
0.41300142 0.7495851 0.5172545 
-0.4105605 0.63423705 0.6551211 
-0.17542419 -0.10429804 0.97895265 
-0.5789553 0.35791257 0.73260456 
-0.94142574 0.22882615 -0.24770193 
-0.17331733 0.02792003 0.98447025 
0.38323253 0.16310067 0.9091376 
-0.06451193 0.37828568 0.92343825 
0.2280121 0.3319869 0.9153116 
-0.08765229 0.3610501 0.928418 
-0.81106424 0.43764666 0.38812408 
-0.27879342 0.47962964 0.8320034 
-0.30689916 -0.27219743 0.9119876 
0.10095347 0.69227314 0.71453923 
0.15038195 0.7449885 0.6499058 
0.26353914 0.65615946 0.7071082 
0.060057838 0.1931464 0.97933024 
0.27344143 0.28003907 0.9202217 
0.14681178 0.21008344 0.9665978 
0.5805248 0.4617972 0.6706223 
0.67815775 -0.04151982 0.7337426 
0.860496 0.26319584 0.43620482 
0.65611523 0.1164933 0.7456153 
0.14764616 -0.049447525 0.98780346 
-0.026553806 0.61170495 0.79064023 
-0.37158695 0.10120036 0.92286605 
-0.4682423 0.6475216 0.60121965 
-0.25693956 0.3914994 0.88357824 
0.4372164 0.6510871 0.62042516 
-0.27713543 -0.26361024 0.923962 
-0.16605441 0.27734426 0.94631183 
-0.105703175 0.22931257 0.96759635 
-0.31415713 0.8665131 0.3878921 
-0.74284655 0.5182547 0.42378184 
-0.22806971 0.90208495 0.3663702 
0.8395095 0.3573207 0.40932372 
0.64930546 0.3877288 0.6542698 
0.91253424 0.24142765 0.3301426 
0.4912027 0.3832337 0.7822096 
0.27430177 0.6492924 0.7093504 
0.92967814 0.042561993 0.3659057 
0.035186905 0.034529325 0.99878407 
0.103427604 0.54986256 0.82882684 
0.18073426 0.17836396 0.96722364 
-0.10997416 -0.28804317 0.9512817 
-0.572936 -0.050195035 0.8180617 
0.6796029 -0.25777242 0.6867993 
0.50526285 0.040673774 0.8620064 
0.5227751 0.2672301 0.8095025 
0.23084188 -0.12941517 0.9643463 