# OOMMF: rectangular mesh v1.0
# Segment count: 1
# Begin: Segment
# Begin: Header
# Desc: Time (s) :  2.2899999999999955e-07
# Title: m
# meshtype: rectangular
# meshunit: m
# xbase: 2e-09
# ybase: 2e-09
# zbase: 5e-10
# xstepsize: 4e-09
# ystepsize: 4e-09
# zstepsize: 1e-09
# xmin: 0
# ymin: 0
# zmin: 0
# xmax: 1.024e-06
# ymax: 1.024e-06
# zmax: 1e-09
# xnodes: 256
# ynodes: 256
# znodes: 1
# ValueRangeMinMag: 1e-08
# ValueRangeMaxMag: 1
# valueunit: 
# valuemultiplier: 1
# End: Header
# Begin: Data Text
0.015069185 0.8939767 0.44786006 
-0.07683184 0.8167763 0.5718159 
0.02235316 0.78381985 0.620586 
0.16824478 0.9330252 0.31805325 
-0.534091 0.43457022 0.7251866 
0.45235577 0.03662614 0.8910852 
-0.6386666 -0.176521 0.7489629 
-0.5421808 0.58288777 0.60521233 
-0.74817485 0.65371567 -0.11353514 
-0.6534012 0.52699196 0.54345775 
-0.6953451 0.7147004 -0.0754893 
-0.24855061 0.9073292 -0.3390817 
0.321454 0.8971392 0.30299956 
0.2961511 0.8796715 0.372119 
0.54272956 0.83871704 0.044702988 
0.7154208 0.67001635 0.19811963 
0.3674497 0.67407763 0.64078087 
-0.5169852 0.85381955 0.060980406 
-0.5065146 0.8514274 -0.13606836 
-0.2711806 0.95348537 0.13163117 
-0.5146068 0.84345686 0.1541443 
0.3810899 0.5259598 -0.76035315 
-0.061472457 0.98506075 -0.16086212 
0.6176104 0.6014118 0.50681484 
0.38899022 0.8221663 0.4156072 
0.16980389 0.58911955 0.790003 
0.6878077 0.6182337 0.38040483 
0.49765003 -0.2989173 0.8142438 
0.54870826 0.04170921 0.83497286 
-0.31201348 -0.02449435 0.94976187 
-0.11655934 0.18131964 0.97649235 
0.17633489 0.5236977 0.83345467 
-0.08686699 0.99369174 0.07092899 
-0.1421678 0.862236 0.48614532 
-0.27188486 0.923499 0.27060705 
-0.049546342 0.70418733 -0.7082834 
0.046658028 0.8419503 -0.5375339 
0.0818021 0.29428247 -0.9522113 
0.09233466 0.15808319 -0.9830992 
0.6110384 0.19342788 -0.7676053 
0.680018 0.46844205 -0.56403697 
0.9186281 0.3843423 -0.09167058 
0.2717854 0.8137977 0.513679 
0.53572667 0.27224338 0.79929996 
0.36513984 -0.5724679 0.73413455 
0.26669642 -0.20181714 0.94241333 
0.032184206 0.013354804 0.9993928 
0.07574548 0.84744817 0.52544665 
0.2693947 0.90540063 0.32814077 
0.09750026 0.75277185 0.65102106 
0.6539466 0.64625263 0.39333376 
0.5839979 0.32119456 0.74550694 
0.40555528 -0.46340334 0.7878973 
0.8849494 -0.06506535 0.4611195 
0.61935824 -0.3261267 0.71416867 
0.9505504 -0.12728861 0.28328717 
0.7906877 0.11678627 -0.60097766 
0.7412452 0.2163041 0.6354276 
0.043620918 0.52828646 0.8479449 
0.42418194 0.01622755 0.90543157 
0.6000765 -0.3263757 0.7303336 
0.64971966 -0.5646096 0.50899935 
0.40700346 -0.88852775 0.2118177 
0.7653393 -0.59597737 -0.24303672 
0.7931141 -0.4327255 0.42862415 
0.16169629 0.31099164 0.9365567 
0.35010192 0.63939816 0.68454266 
0.7352282 0.57648206 0.35652205 
0.15088755 0.983343 -0.10133827 
0.08642964 0.42638525 0.9004031 
0.059568845 0.615073 0.7862167 
-0.47419545 0.7437217 0.4711865 
-0.55313796 0.3624912 0.75009245 
-0.7700482 0.63441634 0.06739178 
0.18263881 0.6891879 -0.70118695 
0.6926151 0.41417706 -0.5905437 
0.80519366 0.47508946 0.35489866 
0.14852567 0.9149858 0.3751549 
-0.4293663 0.8543013 -0.29294017 
-0.5480106 0.8220361 0.15472898 
-0.056916703 0.89913785 0.4339489 
-0.80484307 0.34625402 0.4820124 
-0.8226862 0.5061593 -0.25882453 
-0.82392776 0.122069746 -0.5533915 
-0.8481555 0.24553059 -0.46941158 
-0.782448 -0.008897571 -0.62265253 
-0.16378742 -0.32757977 -0.93051875 
-0.6837044 -0.47161645 -0.5568898 
-0.26977962 -0.4439505 -0.85447466 
-0.4970943 -0.3858058 -0.7772074 
-0.33006504 -0.37604585 -0.8658214 
0.060513746 -0.26196957 -0.9631771 
0.8907553 0.15132064 -0.42855242 
0.40266338 0.12578613 -0.90666425 
0.1727955 0.21179387 -0.9619174 
0.31999964 0.7192645 -0.61665136 
0.17344627 0.81758636 -0.5490619 
0.4127515 0.89714766 0.1573612 
0.17392479 0.46664193 0.8671767 
0.2199494 0.7054111 0.6738082 
0.092534676 0.875723 0.47386345 
-0.6762965 0.65368706 -0.33958277 
0.1519508 0.98368824 0.09627337 
-0.09071976 0.9425363 -0.32155162 
0.67737436 0.73396665 0.04956783 
0.39914492 0.757277 -0.51692843 
-0.10225978 0.9272294 -0.36026186 
-0.032707512 0.85108 -0.5240164 
0.750326 0.6430124 0.15344736 
-0.12638143 0.71658236 0.6859574 
-0.08365153 0.752011 0.65382105 
-0.5493423 0.75235325 0.36357644 
0.27465576 0.7714251 -0.5739927 
0.6892692 0.6641544 -0.2894943 
0.44983855 0.87825257 -0.16222773 
-0.5004026 0.80242634 -0.32512942 
-0.018798983 0.95460665 -0.29727563 
0.8310759 0.5391319 -0.13656385 
0.8867639 -0.18938965 -0.42164126 
0.2103395 0.5857716 0.78270614 
-0.24075536 0.6879026 0.6847093 
-0.15823455 0.91784346 0.36404014 
0.37928826 0.7459252 0.54748166 
0.4754728 0.7703492 0.42483845 
0.18361853 0.93721783 0.29649124 
0.09412595 0.99007475 -0.104366906 
-0.22372063 0.81220955 -0.53876233 
-0.33780473 0.32994005 -0.88149166 
-0.61999923 0.7403619 0.25974074 
-0.47875276 0.8634018 0.15916423 
-0.1903291 0.8711792 -0.45257235 
0.36386043 0.8854403 -0.28913873 
-0.1337635 0.36672696 -0.92066205 
0.50838596 0.6208442 -0.59673804 
0.374775 0.9263872 0.036750544 
0.65690446 0.6947503 0.29291397 
-0.051878687 0.7711368 0.6345523 
-0.06679258 0.4620209 0.88435036 
-0.0017694755 0.62621695 0.77964693 
0.30717167 0.9461185 -0.10249658 
0.22880007 0.8512443 -0.47226438 
-0.16174479 0.13375807 -0.9777256 
0.22307609 0.53378606 -0.8156652 
0.4108128 0.70084304 -0.5831397 
0.70874184 0.6668657 0.23016354 
0.19363771 0.06118875 0.97916317 
0.11231595 0.026806768 0.9933109 
-0.226983 0.80153877 0.5531857 
-0.49864224 0.23736797 0.8336741 
-0.5228044 -0.08147438 0.8485503 
-0.77506036 0.56583285 0.28127334 
-0.65349144 0.5066844 -0.5623344 
-0.3636597 0.88108134 0.30240262 
-0.004087988 0.86924154 0.4943708 
-0.18659164 0.61246294 -0.768162 
-0.3898401 0.84136176 0.37434646 
-0.83989304 0.52200556 -0.14862648 
-0.35192537 0.93589664 -0.015688803 
-0.35712156 0.9201572 -0.16054593 
-0.8872915 0.4546115 0.07773152 
-0.81712097 0.5720678 0.0710757 
-0.63151264 0.10090818 0.7687714 
-0.6676211 -0.13224854 0.7326612 
-0.80435055 -0.5182768 0.29053295 
-0.6197949 0.22859414 -0.7507323 
-0.3269117 0.038497865 -0.94427043 
-0.2521661 0.37718537 -0.8911473 
0.32972836 0.67027223 -0.6648417 
-0.12554118 0.63906354 -0.75883937 
-0.3343264 0.75093323 -0.56949574 
-0.057054695 0.35905755 -0.9315699 
0.7968252 0.5988879 -0.08001878 
0.11261652 0.84182155 0.5278769 
-0.53610855 -0.20484519 0.81891763 
0.02269851 0.88434875 0.46627486 
0.9586269 0.28175104 0.04063035 
0.9317305 -0.17506222 0.31816903 
0.855581 -0.0060709785 0.5176335 
0.8019781 0.3874927 0.45462134 
0.4538184 -0.03546453 0.8903882 
0.6504417 0.4239224 0.6302503 
0.55059016 -0.21646126 0.8062228 
-0.33016375 -0.0405557 0.94305205 
-0.6697657 0.64404845 -0.36961547 
0.32471985 0.9239611 -0.20212144 
0.1295828 0.96611816 -0.22321305 
0.24766935 0.9389546 0.23879735 
0.825605 0.073505566 0.55944014 
0.17929612 0.068196565 0.9814287 
-0.32590917 0.4082418 0.8527144 
-0.5140787 0.7684806 0.3809997 
-0.1876003 0.9061595 0.37905297 
0.18216373 0.91806453 0.35209918 
0.17818055 0.871933 0.4560535 
0.3751494 0.88310146 -0.28177106 
-0.12623411 0.47748634 -0.8695239 
-0.21531206 0.42515215 -0.8791396 
-0.34662417 0.12591274 -0.9295148 
0.31524977 0.535387 -0.78356767 
-0.24557619 0.6308699 -0.73599964 
0.64373606 0.52897304 -0.5529841 
0.78776795 0.5187293 -0.33217728 
0.81749827 0.48576936 -0.30939424 
0.9100731 0.36094078 -0.20368813 
0.6744708 0.54828477 0.4944421 
0.15274398 -0.076784596 0.98527837 
-0.34109595 0.32365784 0.8825527 
-0.27643588 0.44247165 0.85311323 
-0.4311015 0.89093447 0.14278449 
0.8537103 0.4836831 0.19294924 
-0.1319635 0.99114484 -0.014753276 
-0.14779404 0.96827894 0.20147666 
-0.7462124 0.35547736 0.5628525 
-0.7059434 -0.63165206 -0.3204054 
-0.643219 -0.13299821 0.75404304 
-0.7121929 0.15034518 0.68569505 
-0.64775854 0.57978946 0.4942196 
-0.44903392 0.7534981 -0.48021802 
-0.94293654 0.33268797 0.013769557 
-0.9854984 0.10165501 -0.1358642 
-0.7561438 0.4481591 -0.4768648 
0.7449087 0.59411114 -0.30355063 
0.7758205 0.6172219 0.13091916 
0.89404017 -0.10251071 -0.43610063 
0.6011754 0.23378922 0.76415366 
0.2860199 0.95816153 -0.010915301 
-0.37695992 0.4183683 0.82635915 
-0.3641545 0.37986043 0.85035145 
-0.08300404 0.6682723 0.7392716 
-0.50106704 0.68968123 0.5227539 
-0.7809828 0.46590552 0.41593033 
-0.89127314 0.061171163 0.44932216 
-0.29829 0.8119399 0.50177354 
-0.58093673 0.234786 0.77935106 
-0.91251415 0.22277623 0.34305775 
-0.971208 0.16540667 -0.1714522 
-0.8308214 -0.55345505 -0.058510005 
-0.5100528 -0.74240285 -0.43437803 
-0.30357462 -0.92663664 -0.22178173 
-0.13249967 -0.6994554 -0.70228636 
0.31859812 -0.7209822 -0.61536974 
0.44706893 -0.83742714 -0.31439632 
0.65759796 -0.75162464 0.05123839 
-0.23094526 -0.9497653 0.21121128 
0.40295547 -0.33852848 0.850309 
0.5471011 0.8049657 0.22958797 
0.8381308 0.2822104 0.46679133 
0.7881902 0.008730268 0.6153698 
0.6358033 0.035823565 0.7710194 
0.6124245 0.15651932 0.7748793 
0.26947644 0.1921844 0.9436353 
0.3739838 0.23815364 0.8963365 
0.034014676 0.870926 0.4902356 
-0.7289484 0.6817428 -0.062137373 
-0.44044027 0.87275356 0.21050823 
-0.27884957 0.9510171 0.13345228 
0.4370989 0.8623936 0.25538585 
-0.35347575 0.92796624 0.118040875 
0.44909832 0.89311826 -0.025503617 
0.75641006 0.65197945 -0.05259898 
0.24592538 0.56719244 0.7860111 
0.07998106 0.43366522 0.89751744 
-0.097266704 0.04863633 0.9940693 
-0.35996488 0.25231153 0.8982006 
-0.44593394 0.47189385 0.7605649 
-0.6862978 0.49944 0.5287298 
-0.79159135 0.609393 0.044981014 
0.59400517 0.7738229 -0.21989994 
0.42291608 0.45122793 0.78583425 
0.48632917 0.8555282 0.1776391 
0.8570761 0.50571436 -0.09835455 
0.6792012 0.45589232 0.57519394 
0.35973665 0.5655379 0.7421296 
-0.053322714 0.40897357 0.910987 
-0.7187895 0.5820807 0.38016278 
-0.4796208 0.8480239 0.22543178 
0.17165016 0.825935 0.5369986 
0.36863342 0.8391933 -0.3998301 
0.6793424 0.6450404 -0.3498811 
0.58182144 0.7476597 0.32013896 
0.19858456 0.48968646 0.8489825 
-0.117573895 -0.62545586 0.77135044 
-0.11860383 0.78724045 0.6051328 
0.32721734 0.13350551 0.9354706 
-0.042843208 -0.42542988 0.90397674 
0.46116763 -0.17089045 0.8707015 
0.17855014 0.6339939 0.7524437 
0.414584 -0.19730924 0.88836324 
0.013842613 0.9894559 0.14417161 
0.17284983 0.95498395 0.24109894 
0.050461516 0.8745575 0.48228925 
-0.32604003 0.94505864 0.023708643 
-0.7793139 0.5051093 0.3708564 
-0.631521 0.741379 -0.22702093 
-0.037193164 0.42072943 -0.90642345 
0.47602567 0.8794315 -0.00016294015 
0.6881736 0.7027697 -0.18036637 
0.21059549 0.8866259 0.4117573 
0.69792545 0.43075845 0.57214266 
0.116434984 -0.13090347 0.984534 
0.85945755 -0.31698102 0.4010685 
0.5553207 -0.05171067 0.8300271 
0.5718509 -0.0478068 0.81896347 
0.38384122 0.45456228 0.80376565 
0.5245359 0.29870066 0.7972705 
-0.47716796 0.48576173 0.7323567 
-0.019410152 0.3563716 0.9341427 
-0.43378398 0.44523162 0.78332657 
0.05246033 0.17453511 0.98325247 
0.23054372 0.19951332 0.95238864 
0.22242783 -0.7161939 0.66150755 
-0.3874256 -0.21964416 0.8953535 
0.8172062 0.40803978 0.40703496 
0.8178887 0.5718212 0.063865766 
0.1936231 0.50926006 0.838549 
0.5066133 -0.25451505 0.8237506 
-0.046155397 -0.4232984 0.9048139 
-0.2531623 -0.6677299 0.70003265 
0.6925473 -0.6239144 -0.36208975 
0.6987647 -0.7044151 0.12460909 
0.7428468 -0.6694577 0.0022805799 
0.9021143 -0.16428144 0.39900076 
0.37274542 -0.63039786 0.6809254 
0.7470691 0.45074293 0.48858848 
-0.10561997 0.3971629 0.91165024 
0.069860965 -0.0038232144 0.9975495 
-0.31372198 -0.31502885 0.8957318 
-0.80411446 0.41724235 0.42344886 
-0.75870717 0.4418034 0.47872034 
-0.8419041 0.5389673 0.02667696 
-0.32857856 0.94264936 -0.058721423 
-0.1543159 0.76579696 -0.62429297 
0.75815946 0.58632666 -0.28533375 
0.48731628 0.4238427 0.76346606 
0.51648897 0.67297316 0.5294774 
-0.0398177 0.28036973 0.9590659 
0.054993425 0.8316752 0.55253255 
-0.6653506 0.5877883 0.46023214 
-0.7215278 0.38906035 0.5727389 
-0.68215626 -0.27748904 -0.6765078 
-0.8250049 0.0047036186 -0.5651062 
-0.76598185 0.07513893 -0.63845587 
-0.88854814 -0.44065332 -0.12769875 
-0.44496632 -0.5982718 -0.6663901 
-0.26719394 -0.55043787 -0.790965 
-0.59253335 -0.67832303 -0.43449074 
-0.29507816 -0.22889094 -0.9276519 
0.13929965 0.31746164 -0.93798393 
-0.044712946 0.75837004 -0.65028906 
0.3873383 0.62109536 -0.68132937 
-0.024740497 0.5643554 -0.8251613 
-0.6363966 0.63331085 -0.4403598 
-0.15811498 0.9700124 0.18459608 
-0.34163094 0.5593842 0.7552335 
-0.16188231 0.4387177 0.8839236 
-0.34787768 0.9059569 0.24129476 
-0.654783 0.32979286 0.6800705 
-0.6288986 0.5976013 0.49735227 
-0.22732288 0.8060418 0.54646224 
-0.23937929 0.7590385 0.60544044 
-0.31898114 0.7189482 0.6175473 
0.21832135 0.9627662 -0.15942775 
0.1688177 0.9406719 -0.29434174 
0.26433167 0.7939639 -0.5474945 
0.48551306 0.2804988 0.82800823 
-0.5302282 0.75625515 0.38332292 
0.15065575 0.45949805 0.87530816 
-0.24903208 0.85125744 0.4618917 
0.1690086 0.983277 0.06784142 
0.36234474 0.9307497 -0.049104303 
-0.03329774 0.9433147 -0.33022523 
-0.13167298 0.614887 -0.777545 
-0.18672818 0.5271956 -0.82897377 
0.69280416 0.48760015 -0.53128964 
0.66828144 0.31090492 -0.6758241 
0.9374316 0.08078651 0.3386676 
0.319768 0.65131503 0.6881404 
0.35991263 0.6393991 0.6794349 
0.6002663 0.7821831 0.16694313 
0.4370043 0.8601586 0.26297244 
0.425035 0.58586484 0.6900056 
-0.59822065 0.7547096 0.26934293 
-0.39457434 0.91469556 -0.08742505 
-0.6865302 0.7236577 0.07068141 
-0.580101 0.46481633 0.668901 
-0.8936395 0.2443691 0.37642038 
-0.34639335 0.91028935 -0.22668305 
-0.253715 0.82211614 -0.50966054 
0.012102004 0.2705256 -0.96263677 
0.03334639 0.9337331 -0.3564134 
0.43032902 0.7796656 0.45490512 
0.78456116 0.6147834 -0.080655575 
0.497864 0.6744411 0.5452161 
-0.8522823 0.43734327 0.28695986 
-0.4428421 0.849178 -0.28772846 
-0.19715701 0.87017715 -0.451576 
-0.13102958 0.5633234 -0.81578064 
-0.01778142 0.5878535 -0.808772 
0.29893902 0.4782894 -0.82575715 
0.9445934 0.31414464 -0.09516547 
0.99637336 -0.017975744 -0.08316836 
0.37335765 0.21764319 0.90179574 
0.26867223 -0.028418245 0.96281236 
0.5324492 0.6640829 0.52487314 
-0.26414427 0.5866962 0.7655164 
-0.22906663 -0.3871519 0.89310795 
-0.1350656 -0.20573336 0.96924263 
-0.16595715 0.90329736 0.39561626 
0.12875643 0.5723786 0.8098177 
-0.26535827 0.9015653 0.34170896 
-0.45954126 0.8644785 -0.20371227 
0.3190802 0.86725897 0.38216445 
0.1104298 0.6671788 0.7366667 
-0.29780516 0.4123863 0.86095864 
0.18528682 0.96463966 0.1874543 
-0.9445722 0.14404538 0.29501572 
-0.81357825 0.57268375 -0.10061695 
-0.81921655 0.42599407 -0.38394457 
-0.73671925 0.6722505 0.07296672 
-0.9801893 0.0052800872 0.19799267 
-0.9725778 0.22632568 -0.053563323 
-0.3922672 0.5862786 -0.7088046 
-0.0007726109 0.31271908 -0.9498454 
-0.4018068 0.5669922 -0.7190766 
-0.1573241 0.90309083 -0.39959487 
-0.06111323 0.9927569 0.1034356 
-0.22976816 0.88275194 0.40982407 
0.28225222 0.5153957 0.8091359 
0.85063696 0.49954453 0.1639274 
0.55282694 -0.6476193 0.52437735 
0.9908735 0.12784584 0.0427232 
0.95862657 -0.14100105 0.24729316 
0.9622952 -0.18611954 0.19836259 
0.37893796 -0.06940443 0.92281586 
0.30747393 0.4465294 0.8402805 
0.20297393 -0.24119014 0.9490148 
-0.10585176 -0.43108746 0.8960798 
-0.23672533 0.041519336 0.9706891 
-0.65845025 0.18777965 0.7288224 
-0.67281926 0.7235828 0.15408507 
0.4086839 0.2888232 0.86577064 
0.30368915 0.8875272 0.3465087 
-0.08645077 0.9723526 0.21692522 
-0.59833914 0.60337377 0.52719116 
-0.31563666 0.20196864 0.92713666 
-0.29466933 0.22784787 0.9280385 
-0.084549576 0.7937994 0.60227406 
0.26507974 0.86857677 0.41869694 
0.17176725 0.8033887 0.5701427 
-0.041517973 0.8371574 0.545384 
-0.30239594 0.716514 0.6286211 
0.38348493 0.67208767 -0.6334331 
0.24905445 0.09045837 -0.9642558 
-0.28326085 0.3467149 -0.89417684 
-0.1959896 0.15221186 -0.9687206 
-0.14690232 0.7369724 -0.65976626 
0.8601865 0.18651675 -0.4746482 
0.36112 0.5790023 -0.73099166 
0.535035 0.8393244 -0.09629236 
0.76106805 0.6230196 0.18061599 
0.76559156 0.17958376 0.61775345 
0.43735936 0.16262804 0.88445973 
-0.23336272 0.29645908 0.926096 
-0.28447026 0.61697906 0.73376673 
-0.7389997 0.43906677 0.51097935 
0.48743165 0.8601402 0.15023053 
-0.09631949 0.7990087 0.59355503 
-0.34672418 0.20266396 0.91581094 
-0.5308288 -0.26651242 0.80448246 
-0.96507084 -0.09715153 0.24331038 
-0.33871502 0.008571939 0.9408501 
-0.5075285 -0.07007623 0.8587806 
-0.8308508 -0.15475664 0.534544 
-0.7301723 0.6831127 0.014338521 
-0.65496475 0.4657042 0.59509736 
-0.16602743 0.96944386 0.18059206 
-0.088049725 0.8722692 0.48103395 
0.19701804 0.87923163 -0.43374598 
0.31636804 0.94770885 -0.04194474 
0.9057606 0.27828562 0.31961688 
0.0163409 0.46854103 0.8832907 
0.07941558 0.46399975 0.88226837 
-0.25986916 0.18477027 0.94780165 
0.28434458 -0.059928298 0.9568473 
-0.48486334 0.11126984 0.86748284 
0.3467857 0.42057666 0.8383644 
-0.41960862 -0.32374975 0.8480063 
-0.6353219 0.10132603 0.7655712 
-0.3287648 0.42265186 0.84455866 
-0.7273281 -0.4756391 0.49473354 
-0.84109086 -0.3007195 0.44959325 
-0.8962841 -0.21806864 -0.3861618 
-0.878408 -0.44581553 -0.1721856 
-0.63405144 -0.7568305 -0.15870206 
-0.5924656 -0.5197852 -0.6154737 
-0.42454463 -0.8427565 -0.33094332 
-0.5539143 0.09530365 -0.8271012 
-0.106943406 -0.9923176 -0.06220082 
0.3232135 -0.92322123 -0.20783557 
0.23963112 -0.960563 -0.14105165 
0.88688654 -0.28418007 -0.3642446 
0.7850978 0.3277898 0.525524 
0.31466007 0.29252997 0.9030035 
0.6391618 -0.5060032 0.5791658 
0.6358552 -0.37411854 0.67507297 
0.77251655 -0.24316242 0.58659214 
0.38156563 0.046186928 0.9231872 
0.040422525 0.14532329 0.9885581 
-0.18576309 0.47250655 0.86152744 
-0.56698656 0.7079538 0.4211029 
-0.6818331 0.59155726 0.43030643 
-0.7371079 0.64853287 -0.18994002 
0.46828964 0.8117606 0.34892642 
-0.49324173 0.859094 -0.13663879 
0.7218689 0.67842567 -0.13654305 
0.8358026 0.41386217 0.36076593 
0.1405647 0.23502305 0.9617722 
0.47522938 0.46032164 0.74984074 
0.35576358 0.03868654 0.93377495 
0.14698294 -0.30221456 0.94184 
0.104819305 -0.43860725 0.8925451 
0.18706036 0.478132 0.8581365 
-0.41644114 0.81474745 0.40343952 
0.5553098 0.81908053 -0.14400756 
0.7145258 0.23604818 0.658585 
0.7639016 -0.4455323 0.4668569 
0.6839313 0.47498885 0.5537361 
0.94431233 -0.14190677 0.2968782 
0.90907073 -0.27365375 0.31417218 
0.36375424 -0.26379475 0.8933618 
0.14516126 0.61862224 0.7721623 
0.13607424 0.99065053 -0.0097603295 
0.24521685 0.96587133 0.08343412 
0.29957068 0.37314516 0.8780775 
0.60552967 0.26293954 0.7511303 
0.42987052 0.32064012 0.8440387 
0.40598315 0.09469043 0.9089617 
0.770711 -0.6319305 0.08166062 
0.8536945 -0.4544239 0.25437114 
0.6113083 -0.41077098 0.6764388 
0.22852328 -0.29896078 0.92649865 
0.3341676 -0.38089684 0.86211926 
0.3030979 0.6722624 0.6754222 
0.080542184 0.61105376 0.787481 
0.44992062 0.13289641 0.8831252 
0.26180658 0.67419326 0.69059455 
0.07367723 0.7748204 0.62787354 
0.38145483 0.82924706 0.40846235 
-0.76932704 0.6367255 0.052121 
-0.7480501 0.56046486 0.3553875 
-0.19708744 0.9037131 -0.3800781 
-0.22787653 0.9231019 0.30976662 
0.7899533 0.59722584 -0.13890685 
0.49415404 0.8618203 0.11435825 
0.62626904 0.5946406 0.5041723 
0.704938 0.124092504 0.69832915 
0.9748214 0.046147943 0.21815991 
0.78813344 0.49477708 0.3661167 
0.80674344 0.43536052 0.39953268 
0.82067764 -0.113951355 0.55991364 
0.43223643 -0.49666384 0.7526597 
0.291208 -0.5261419 0.7989822 
0.27856243 0.09361172 0.95584506 
-0.3548805 0.26236978 0.89734167 
0.48512247 -0.36009297 0.7968622 
-0.03266204 -0.35508084 0.9342649 
-0.67851067 -0.6199878 0.39400312 
-0.25141874 -0.371106 0.89390665 
0.083913445 0.27539468 0.95766187 
0.0067920266 -0.16267644 0.9866562 
0.23434643 0.18138677 0.9550815 
0.12806587 -0.6027304 0.78760105 
0.17214228 -0.4380555 0.88231194 
0.052142244 -0.18289492 0.98174876 
0.7756339 -0.2732975 0.568947 
0.88778263 -0.18784954 -0.4201842 
0.92357945 -0.28860745 0.25240192 
0.7703552 -0.21859232 0.59897447 
0.35341218 -0.39945474 0.84589344 
0.5263476 -0.4502213 0.7212899 
0.7165568 -0.30462945 0.62749296 
0.64818585 0.0800948 0.7572582 
-0.11462485 0.7195576 0.68490744 
-0.45295352 0.49011752 0.7447268 
-0.41724578 0.4536523 0.78746796 
-0.62933886 0.7368231 0.24703123 
-0.4051145 0.8850157 0.22941132 
0.074317686 0.99563926 0.0563858 
0.93078995 0.35519165 -0.08642453 
0.6790179 0.35231146 0.6440585 
0.37845197 0.67024255 0.6383958 
0.19446784 0.39990875 0.8956871 
0.3462562 0.111076824 0.93154097 
-0.16390936 0.59591967 0.7861383 
-0.7154937 0.18126549 0.67469376 
-0.899851 0.031480946 -0.43505988 
-0.6919003 0.089873135 -0.71637756 
-0.7975119 -0.34686363 -0.49361968 
-0.26246014 -0.15113337 -0.95303375 
0.17907219 0.17679416 -0.96782076 
0.22650819 0.006005461 -0.97399074 
0.21785884 -0.1098107 -0.96978307 
0.69088244 -0.4881336 -0.5332984 
0.8219985 0.35354736 -0.44645575 
0.821621 0.5697989 -0.016378157 
0.57353234 0.7950179 0.19750261 
0.28802052 0.9568341 -0.038893934 
0.2683376 0.9593429 -0.08750004 
-0.060982823 0.82771796 0.55782074 
-0.3942947 0.58839333 0.7059215 
-0.42656848 0.29056856 0.8565099 
-0.48997605 0.4296408 0.75850666 
-0.06673053 0.7666031 0.6386446 
-0.27802074 0.40969053 0.8688258 
0.105361156 0.9321834 0.346314 
-0.360779 0.74946517 0.55510414 
-0.1726197 0.9081501 0.38140005 
0.11303238 0.9913105 0.067284964 
-0.42138594 0.90688115 0.0006450673 
-0.08119484 0.9958903 -0.040124677 
-0.075732805 0.4458184 0.89191395 
-0.43047288 0.37627232 0.82043415 
-0.60104376 0.018877916 0.7989932 
-0.81599134 0.0067146816 0.5780252 
0.39285848 0.69869626 0.5979012 
0.18804695 0.974873 0.119419135 
-0.1463653 0.9477813 0.28335103 
-0.12481664 0.9906813 0.054510795 
-0.5884763 0.68021506 -0.43703923 
0.36487335 0.7500847 -0.55157983 
0.6547072 0.7448413 -0.12872471 
0.80794126 0.01827001 0.5889797 
0.76269776 0.36644202 0.5329282 
0.66813827 0.5869999 0.4571897 
0.51553863 0.71844673 0.46696275 
0.167023 0.9358192 0.31039628 
0.24576846 0.61143607 0.7521594 
-0.12841253 0.9656882 -0.22573525 
-0.5061003 0.8263641 0.24695152 
-0.24393655 0.9696275 -0.017820945 
-0.27854106 0.8407581 0.46426374 
-0.34839457 0.9118229 0.21725607 
0.16901368 0.79415023 0.58374643 
0.008819082 0.9844962 0.17518401 
-0.28589728 0.9546148 -0.08350703 
-0.061630968 0.98902714 0.13426484 
0.27529 0.958496 0.07416899 
0.5967912 0.7548123 0.27221084 
0.013090428 0.9973232 -0.0719384 
-0.2555143 0.87974435 0.40095204 
0.028097678 0.9975575 -0.06395007 
0.33309746 0.9183485 0.2137338 
-0.37698463 0.86180925 -0.33936313 
-0.18606822 0.9545667 -0.23276857 
-0.013676567 0.98498297 0.17210943 
0.7705614 0.49470085 -0.4018786 
0.76406807 0.32454303 -0.55755883 
0.96210074 0.25965 -0.083331116 
-0.14526094 0.11070085 0.9831809 
0.27266622 0.7255401 0.6318581 
-0.16625929 0.5240634 0.8352936 
-0.042585887 -0.025418969 0.9987694 
0.12929326 0.44688627 0.88519824 
-0.29318437 0.17727317 0.9394771 
-0.07260742 0.33470333 0.93952215 
0.004416491 0.5634952 0.82610756 
-0.25202388 0.9529959 0.16817518 
-0.15665522 0.35097325 0.9231885 
0.2863614 0.5397137 0.7916478 
-0.29753613 0.88355106 0.36167654 
-0.480479 0.5951035 0.64419854 
-0.38314712 0.8467063 0.3691706 
-0.46177652 0.87756026 -0.12903614 
-0.46671462 0.8094632 0.35629603 
-0.9330756 0.2645401 -0.24369743 
-0.9312283 0.12315282 -0.34299746 
-0.7734543 0.6338073 0.007532493 
0.7593629 0.50484765 -0.41048372 
0.18230547 0.98140424 -0.06008739 
0.29628056 0.87432027 0.38442433 
-0.21639422 0.8718087 0.43945783 
-0.14431174 0.8735455 0.4648574 
0.032536823 0.45831436 0.8881944 
0.5331393 -0.121674396 0.83723223 
-0.45147842 0.3318667 0.8282704 
0.74781215 0.45419002 0.4842401 
0.75916284 -0.0406873 0.6496279 
0.3319873 -0.17707762 0.9265139 
-0.06172628 -0.26906112 0.9611431 
-0.07482181 0.104532845 0.9917029 
0.36448047 -0.40477836 0.83863497 
0.5423064 -0.6039982 0.5840292 
0.22941239 -0.17073709 0.95823735 
-0.0051964526 -0.1940687 0.98097426 
-0.40978256 0.6262726 0.66322017 
0.07729019 0.4524508 0.8884338 
0.26229295 -0.045153037 0.9639314 
0.1094995 0.43316457 0.8946387 
-0.6040985 0.042251676 0.7957889 
-0.26557612 0.27695557 0.9234528 
0.0932991 0.5795155 0.80960304 
-0.02790868 0.3791362 0.9249199 
-0.55531 0.3379929 0.75986284 
0.057834666 0.70133114 0.7104857 
0.012634161 0.0913855 0.9957355 
-0.021374246 0.31126714 0.9500821 
-0.6936532 0.61687917 0.3718944 
0.2687818 0.95545036 -0.12194758 
-0.063871525 0.5428177 -0.8374183 
-0.50150394 0.7980578 -0.33406216 
-0.21692799 0.92708886 -0.30569354 
-0.19836259 0.9797279 0.028028619 
0.38160628 0.76799285 -0.51435757 
-0.19898859 0.88712937 -0.41641948 
0.36055487 0.93177265 0.042426072 
0.7152443 0.39399812 0.5772271 
0.93329364 0.06854361 0.3525123 
0.04396532 -0.012588437 0.99895376 
-0.25418624 0.35889903 0.8980985 
-0.1725336 0.84269017 0.5100053 
-0.08609552 0.39667916 0.913911 
0.574027 0.69309974 0.43601114 
0.5986469 -0.08536283 0.7964516 
-0.41058794 -0.22721712 0.8830572 
-0.41475335 -0.80817455 0.41813096 
-0.6874575 0.24712935 0.68288314 
-0.42636096 0.089508764 0.9001137 
-0.7673153 -0.20434256 0.6078416 
-0.9709155 0.0040849694 0.23938759 
-0.58786064 -0.60780555 0.5338467 
0.3499938 0.38639745 0.8533472 
-0.11840001 0.6746388 0.72859037 
0.36641857 0.8830504 0.2931884 
-0.16605788 0.8040581 0.57088995 
0.22683987 0.7633279 0.6048753 
0.06354938 0.9868099 0.14888877 
0.17257905 0.75695103 0.6302711 
0.010064952 0.09730368 0.9952039 
-0.1400871 -0.30467018 0.94209963 
-0.00875669 0.05837313 0.9982565 
-0.7590081 0.37359545 0.5332292 
-0.11641225 0.34348723 0.9319146 
0.4791608 -0.114495076 0.8702276 
-0.36444992 0.3703532 0.8544091 
-0.42037308 0.3857571 0.8212661 
-0.86218613 0.46121886 0.20955294 
-0.97941315 -0.07042753 -0.18918249 
-0.7960506 0.15052707 -0.5862124 
-0.35691735 0.19514506 -0.91352534 
-0.67773306 -0.718005 -0.15857756 
-0.5504828 -0.6761457 -0.48968938 
-0.74310654 -0.29337522 -0.60143465 
-0.30607194 -0.41035724 -0.85902673 
0.014441352 -0.83305377 -0.5530035 
0.25948557 -0.9594264 -0.11030999 
0.678961 -0.720245 0.14233455 
0.48378816 -0.6697527 -0.5633652 
0.53634065 -0.5838418 0.60948133 
0.8409328 0.080695175 0.5350892 
0.91421765 0.042843502 0.4029524 
0.94344383 -0.25797644 0.2082352 
0.7527502 -0.100061 0.6506574 
0.20097603 -0.12654945 0.9713876 
0.5064266 0.0018425417 0.8622811 
0.2931783 0.5465359 0.7844394 
-0.5791769 0.5643889 0.58823407 
-0.7831587 0.06893115 0.6179895 
-0.9583286 0.06850454 -0.27733308 
0.7467675 0.17270377 0.64227074 
0.404996 0.2606731 0.8763719 
0.37755305 0.8491789 0.36925468 
0.5218264 0.6488085 0.5538455 
-0.062711254 0.40813103 0.9107669 
0.14775796 0.26745734 0.9521735 
-0.07092753 0.35775435 0.9311182 
0.2580579 -0.2637951 0.92941827 
0.5359593 -0.741361 0.4038954 
0.1693856 -0.44321054 0.8802687 
0.14093481 0.12059849 0.9826461 
-0.22236033 0.5489983 0.80570275 
0.2551588 -0.36448902 0.8955679 
0.059333082 -0.284303 0.9568968 
0.60839087 -0.3380839 0.71802497 
0.5070538 -0.38452077 0.7713886 
0.73819727 -0.43524086 0.51539326 
0.411499 -0.2573845 0.8743123 
0.40861234 0.6400221 0.6506979 
0.3094558 0.7436796 0.59260267 
0.54142606 0.7988427 0.2621225 
0.6052342 -0.2929792 0.74017215 
0.52411383 -0.3819633 0.7611891 
0.1973755 -0.21399282 0.95668703 
0.30151197 0.37146604 0.878125 
0.42430478 -0.36788198 0.8274227 
-0.26533696 -0.6314184 0.7286338 
0.4444101 -0.5402181 0.7146077 
0.25625497 -0.12015173 0.95911264 
0.8455372 -0.37746593 0.37760606 
0.6236221 0.78114355 0.030171013 
0.13242206 0.9570195 0.2580271 
0.2106508 -0.23279428 0.9494384 
-0.09343724 0.38125598 0.9197355 
-0.034969337 0.39832973 0.91657555 
-0.47512907 0.6831029 0.5546376 
-0.71812916 0.48584527 0.49824184 
-0.19781594 0.36608762 0.9093122 
-0.04661749 0.81842947 0.57271284 
0.7383704 0.5219414 0.42706722 
0.6635428 0.56094545 0.4950265 
0.4919156 0.30344775 0.81605065 
0.55502903 -0.10204943 0.8255476 
0.03703721 -0.60667056 0.7940901 
0.2627967 -0.82921225 0.49330017 
0.46357596 -0.88070595 0.097233534 
0.9461255 -0.32344297 -0.015203305 
0.8300832 0.21716917 0.5136142 
0.5046193 -0.21498549 0.83614624 
0.9056661 -0.30734283 -0.29207745 
0.836861 -0.46689507 0.28578445 
0.19148022 0.13992773 0.9714709 
-0.3622121 -0.008543757 0.9320566 
-0.049407013 -0.016011612 0.9986504 
-0.6434586 0.18465628 0.7428749 
0.4274403 -0.3002818 0.8527166 
0.054817427 -0.44272587 0.89497983 
0.41528478 -0.698971 0.58221835 
-0.35640118 -0.74191135 0.5679311 
0.77175844 -0.2941886 0.56377476 
0.51731914 -0.18175246 0.8362698 
-0.2934684 0.31978583 0.9008959 
0.5316256 -0.63749 0.5576566 
0.6816532 -0.6997422 0.21379851 
0.020217994 -0.69309723 0.7205605 
0.3731725 -0.40502483 0.8346839 
-0.34400198 -0.586269 0.73345166 
0.67689395 -0.66569364 0.31411248 
0.8159239 -0.3435014 0.46505365 
0.11011324 -0.46446958 0.8787167 
-0.3046409 0.05921713 0.95062464 
0.09073676 -0.31780753 0.9438036 
0.0536046 -0.2797646 0.9585711 
-0.39208928 0.6884799 0.6101324 
-0.8027447 0.479691 0.35425633 
0.31969798 0.70121884 0.6372483 
0.44548842 0.32862377 0.8327945 
0.62836164 0.6126556 0.4793901 
0.15368666 0.9122037 0.3798222 
-0.42112207 0.6525287 0.6299703 
-0.50494176 -0.181135 0.8439336 
-0.94978875 0.22257149 -0.21991672 
-0.69676656 -0.3816439 -0.607342 
-0.59099287 -0.80466616 -0.056920886 
-0.88445336 -0.18544142 -0.42819852 
-0.41213816 -0.028761579 -0.9106673 
-0.12222861 0.17352247 -0.9772155 
-0.43002868 0.34888136 -0.83268076 
-0.47115818 0.07436813 -0.87890804 
0.34742284 -0.029681688 -0.93723875 
0.22058107 -0.51638645 -0.82745934 
0.66250616 0.65534836 -0.36277297 
0.7920485 0.51069576 0.3344386 
0.8383612 0.5350395 0.10432334 
0.65288085 0.7533542 -0.078766696 
0.049745638 0.99267817 -0.110070445 
-0.19342291 0.8362279 0.513138 
-0.48894313 0.45156762 0.7463386 
-0.6682113 0.5284777 0.5236459 
-0.43270725 0.4722034 0.7679768 
-0.35113612 0.66662836 0.65750295 
-0.6595427 0.7476509 0.07759858 