# OOMMF: rectangular mesh v1.0
# Segment count: 1
# Begin: Segment
# Begin: Header
# Desc: Time (s) :  2.3199999999999954e-07
# Title: m
# meshtype: rectangular
# meshunit: m
# xbase: 2e-09
# ybase: 2e-09
# zbase: 5e-10
# xstepsize: 4e-09
# ystepsize: 4e-09
# zstepsize: 1e-09
# xmin: 0
# ymin: 0
# zmin: 0
# xmax: 1.024e-06
# ymax: 1.024e-06
# zmax: 1e-09
# xnodes: 256
# ynodes: 256
# znodes: 1
# ValueRangeMinMag: 1e-08
# ValueRangeMaxMag: 1
# valueunit: 
# valuemultiplier: 1
# End: Header
# Begin: Data Text
0.6142454 0.5031103 0.60793304 
0.58823955 -0.5689285 0.57471275 
0.8366525 -0.509941 0.19993195 
0.98306173 -0.14682771 0.10968784 
0.1719991 0.976819 -0.12744093 
0.34265783 0.928544 0.14279929 
0.07206644 0.6728348 0.7362743 
0.15036029 0.35988122 0.92080253 
-0.46777526 0.74595153 0.4740703 
-0.7081801 0.6554872 0.26233077 
-0.97829616 0.0061504613 0.2071205 
-0.1309415 0.2340941 -0.9633558 
0.40010336 0.21016952 -0.8920461 
0.61536986 0.14913848 -0.77400106 
0.32728425 -0.2329545 -0.91576046 
0.34311226 0.15258518 -0.9268181 
0.18412788 0.54555446 -0.8175985 
0.78458244 0.40160623 -0.47238 
0.47963735 0.44027108 -0.7590187 
0.61546814 0.6782259 0.40150812 
0.8540468 0.3308445 -0.40142998 
0.8553317 -0.3224174 -0.40553015 
0.5315957 0.66962725 -0.5186572 
0.28681073 0.6356729 -0.7167005 
0.54383993 0.7429529 0.39020398 
0.42592952 0.28095514 0.860028 
0.25016552 0.3494907 0.90292495 
-0.53119385 0.5861135 0.61180407 
-0.91767 0.036828216 0.39563316 
-0.93633854 0.1846132 -0.2986437 
-0.8853272 0.379829 0.26818946 
-0.8389577 0.5439592 -0.016075356 
-0.6529277 -0.046246327 -0.7560072 
-0.4020925 -0.25005606 -0.8807916 
-0.058066964 -0.050334483 -0.99704295 
0.3144591 0.67153823 -0.6709337 
0.3260628 0.46125415 -0.8251834 
0.89842075 0.16440606 -0.40719873 
0.3892538 0.7516297 -0.5324794 
0.117119774 0.5058557 -0.85463035 
0.64178973 0.76687974 -0.0011822936 
-0.122095324 0.97639453 -0.1781758 
0.710631 0.68694466 0.15202217 
-0.009888683 0.57058054 0.8211822 
-0.3358033 0.31293347 0.8884306 
-0.23318888 0.7776227 0.58388865 
0.121623725 0.851578 0.5099241 
0.41917175 0.79064524 0.4462905 
0.27078912 0.9488014 0.16263235 
0.05984771 0.45483342 0.88856333 
-0.25197947 0.8115659 0.52713114 
-0.19844338 0.83410376 0.51467586 
-0.073821336 0.8613325 0.50264984 
0.30513147 0.87706923 0.37100467 
0.548304 0.7911315 0.27106026 
0.43843815 0.873509 0.21155195 
0.09862647 0.17286125 0.9799959 
0.18923305 0.27674904 0.9421258 
-0.284807 0.66666764 0.68879557 
0.54961926 0.6898358 -0.47121677 
0.50609094 0.85646003 0.10172608 
0.060968235 -0.021203069 0.9979145 
-0.66112083 0.48893666 0.56908727 
-0.46745196 0.651139 0.5979186 
0.021773657 0.9514885 0.30691302 
-0.03692198 0.6787088 0.7334789 
-0.14928737 0.51145965 0.84624016 
-0.62519807 0.5237085 0.57866806 
-0.78687996 0.3609352 0.5005456 
0.28810924 0.89859986 0.3309252 
-0.20676623 0.97072923 -0.122198865 
0.7197638 0.680311 -0.13826399 
0.38598844 0.55319506 -0.73823315 
0.72054714 0.2515161 -0.64618224 
-0.23503809 0.38259873 -0.8935185 
0.28770187 0.23294322 -0.9289592 
0.6944053 0.5785913 -0.42782423 
0.6529732 0.61112326 0.4473862 
0.0015184408 0.9999943 0.0030483082 
0.7436125 0.45300093 0.4917627 
-0.16749837 0.689926 0.70423466 
0.4514075 0.7485829 0.48564896 
0.4999821 0.5065432 0.70244706 
0.105097584 0.14544466 0.98376846 
0.7086644 0.27897164 -0.64805067 
0.89713204 0.20534298 0.3911373 
0.5505642 0.5650476 0.61449194 
0.58698463 0.4205446 0.691803 
-0.22745435 0.33742368 0.9134603 
-0.68511724 0.5345958 0.49479473 
-0.93471116 0.3401984 0.10286046 
-0.9236783 -0.13754447 -0.35763115 
-0.39940727 0.6814116 -0.6133125 
-0.34867153 0.92350054 -0.15992217 
0.06297169 0.89105445 -0.4495071 
0.5420631 0.83919096 0.043886993 
0.30562505 0.80423105 0.50971156 
0.7594829 0.43191704 0.48644972 
0.41158506 0.8504783 0.3275432 
-0.813103 -0.078828186 0.5767579 
-0.68485373 0.7281985 -0.026502768 
-0.20523342 0.938495 -0.2776808 
0.58995104 0.7221503 0.36118805 
-0.026816789 0.35011354 0.9363234 
0.0015964644 -0.029893126 0.99955183 
-0.76266557 -0.023504252 0.64636594 
-0.9029989 0.39524347 0.16845092 
0.07726194 0.13154256 0.9882951 
0.03749072 0.08555882 0.9956276 
-0.1582297 0.027319634 0.9870243 
-0.08650603 0.06174517 0.9943361 
-0.1929392 0.9202154 0.34055543 
-0.22756977 0.9712233 -0.07026576 
-0.022807457 0.99908763 -0.036108073 
-0.155693 0.81902164 0.5522347 
0.052301947 0.9940413 -0.09563671 
-0.5559905 0.76546556 -0.32394004 
0.29273596 0.4518497 -0.84269655 
0.58431643 0.8042458 0.10845772 
0.39213064 0.6735036 -0.62659925 
-0.26628888 0.26538056 -0.9266409 
0.8466633 0.4524903 -0.2800246 
0.6150966 0.3454738 -0.7087341 
0.12281421 0.49984848 0.8573612 
-0.13281587 0.42718905 0.8943543 
-0.16333437 0.28946382 0.94315046 
-0.037199512 0.08983668 0.9952616 
0.092304334 -0.033662826 0.99516165 
-0.33066416 -0.43609616 0.83694774 
-0.59976506 -0.30165848 0.7411371 
-0.862303 -0.2697818 0.4285457 
-0.52132547 -0.670682 -0.52764153 
-0.23838095 -0.25982404 -0.93577033 
0.75906175 0.48493597 -0.43435308 
-0.041379265 -0.2411645 -0.9696017 
-0.038527597 -0.31137142 -0.94950706 
-0.19815412 -0.88594157 -0.4193358 
0.95526767 -0.082645215 0.28396058 
0.6463847 0.111244425 0.7548586 
0.028266672 0.0968777 0.99489486 
0.06147415 0.5277359 0.84718114 
-0.39937136 -0.30416042 0.8648636 
0.14519301 0.39297295 0.9080151 
0.44834453 0.2236907 0.86541885 
0.10403586 0.24643241 0.96355987 
-0.2958698 -0.04902234 0.9539696 
-0.7804569 0.10332342 0.6166129 
-0.23145542 -0.32399136 0.91731024 
-0.28135097 0.15740587 0.9466071 
-0.45159578 -0.4552722 0.7673255 
0.25486943 -0.15009236 0.9552559 
0.14897013 0.3535487 0.92347777 
0.27736777 0.88027006 0.38495693 
0.8977139 0.25975862 0.35585842 
0.18972026 0.5103239 0.83879423 
-0.3505904 0.5085055 0.7864532 
0.17447531 0.7469328 0.6415994 
-0.6787592 0.057479583 0.73210794 
-0.010323349 0.86255926 0.505851 
0.3948822 0.9147371 -0.08558029 
0.14912932 0.7497914 0.64464974 
-0.09902901 0.9778881 -0.18419579 
-0.14754067 0.8432785 0.51682985 
-0.6216023 0.6767985 0.3944039 
0.56913656 0.55720115 0.6046574 
-0.109019935 0.953693 0.2803293 
-0.07411426 0.96244776 0.2611539 
-0.7304349 0.64520395 -0.22400205 
-0.5581556 0.3998154 -0.7270558 
-0.97781414 0.06282576 -0.19983144 
-0.8782967 0.47335014 -0.067339465 
-0.71753085 0.5131588 -0.47097522 
0.2532495 0.8310733 -0.49515855 
-0.33997753 0.6211027 -0.7061492 
-0.44775957 0.67228866 -0.58952475 
0.094085984 0.6147643 -0.783079 
0.6404609 0.75744414 -0.12683927 
0.41134316 0.9070635 -0.089625426 
0.1943277 0.96191895 0.19222036 
0.76933277 0.540103 -0.3411978 
0.7971911 0.5257149 -0.29683375 
0.5033185 0.57222706 -0.6474772 
0.3276705 0.57384765 -0.7505537 
0.76265454 0.6047015 -0.22955202 
0.42867953 0.77866864 -0.45815855 
0.058205098 0.9878525 -0.14408232 
-0.3827167 0.5867719 -0.71360123 
0.055759117 0.5364683 -0.84207636 
0.49903873 0.1959916 -0.84412545 
0.79314846 0.47868818 -0.37652794 
0.64381576 0.6228723 -0.444445 
0.4451646 0.8679496 -0.22020915 
0.8425506 0.5382902 0.018768294 
0.9616651 -0.16298394 0.220537 
0.8091597 0.54827166 -0.2113265 
0.63721 0.7623052 0.11337641 
0.5459961 0.5816985 0.60292214 
0.38160115 0.4272148 0.8196757 
-0.4097918 0.88693774 0.21310166 
0.45148087 0.89187676 -0.026853014 
0.1663479 0.9295981 0.32890108 
0.5353905 0.84326714 0.047515556 
0.5278754 0.7302437 -0.43369538 
0.41682816 0.69967777 -0.5802632 
0.52316624 0.71982807 -0.45622882 
0.5886742 0.7855178 -0.19085231 
0.41869897 0.9028836 -0.09742914 
-0.09570558 0.94730866 0.30569065 
-0.18448642 0.9782226 0.09510677 
-0.89071673 0.29554328 0.3453665 
-0.65735096 0.72324204 -0.21168563 
0.058555994 0.640537 -0.76569164 
0.45914784 0.7928845 -0.4006462 
0.14393549 0.96615714 -0.21406312 
-0.2980626 0.7584417 -0.5795903 
0.48323262 0.4316041 -0.76171136 
0.037227448 0.78169364 -0.62255067 
-0.5559501 0.82451344 0.105342634 
-0.23974872 0.9148811 0.3248279 
-0.35194528 0.29518116 0.8882583 
-0.17971641 0.8603966 0.47688553 
-0.8282762 0.5603012 -0.0045855297 
-0.48556492 0.79066294 -0.37293282 
-0.26495546 0.94747764 -0.17912215 
-0.12123136 0.97514784 -0.18544458 
-0.46250874 0.76366425 0.4504474 
0.17269404 0.98236436 0.07167335 
0.11906042 0.9275195 -0.35430524 
-0.3662852 0.52862024 -0.7657649 
0.029292189 0.50349736 -0.8635002 
0.2444723 0.82893115 -0.503097 
0.34798563 0.5201739 -0.7799521 
0.52299666 0.5593511 0.6431182 
0.35930005 0.38791 0.8487811 
0.1382109 -0.1816516 0.9736018 
-0.23299195 0.80491066 0.5457415 
0.18761583 0.24392648 0.95147264 
-0.03985857 -0.48749456 0.8722158 
0.68955433 -0.040212233 0.72311676 
0.5599916 -0.083591126 0.8242706 
0.0092796665 -0.48853996 0.8724922 
0.2184615 -0.6759038 0.703867 
0.18762878 0.12513584 0.9742364 
0.7439775 0.44466883 0.4987657 
0.90517646 0.13334845 0.40357625 
0.37677798 -0.14279105 0.9152318 
-0.29342648 0.112935774 0.9492873 
-0.54056114 -0.0014524808 0.8413036 
-0.5169479 0.131842 0.84580284 
-0.50508374 -0.3704611 0.7795185 
-0.9473238 0.31158537 -0.07410953 
-0.0828173 -0.15178733 -0.9849375 
-0.6518112 0.7212375 -0.23443274 
-0.49013093 0.19930112 -0.8485581 
-0.24147418 0.12736204 -0.9620131 
0.45646754 -0.8437124 -0.28246585 
0.94825774 -0.15123703 -0.27916777 
0.53672135 -0.50557685 -0.6755163 
0.86673427 -0.47231328 -0.16028705 
0.875095 0.15583123 0.45817617 
0.5442083 0.47207344 0.6935301 
0.23257813 0.51849884 0.8228405 
0.5569583 0.27034128 0.7853108 
-0.45382538 0.36469474 0.81304383 
-0.67652065 0.62832713 0.38408977 
-0.8251257 0.04735131 0.56296146 
-0.77181685 -0.6320941 0.0689624 
-0.7017258 0.25697777 -0.6644873 
0.40887886 -0.18656412 -0.8933151 
0.66210175 0.48026773 -0.575295 
0.32409936 0.11059613 -0.93953615 
0.623251 0.25301707 -0.7399599 
0.5809643 -0.07951714 -0.81003547 
0.8957793 -0.121281266 -0.4276334 
0.5079295 0.24841441 -0.82480186 
0.26675263 0.9479911 0.17365487 
0.8109334 0.5839312 0.03756848 
0.90764695 0.39762437 0.13443168 
0.7243662 0.5070553 0.4671068 
0.47993475 0.38337624 0.7891042 
0.089215286 0.2826454 0.9550666 
0.5996964 0.39833143 0.69404346 
0.07766717 0.32570958 0.94227445 
-0.42240915 0.4270492 0.7994997 
-0.9162193 0.14601567 0.37312415 
-0.9697964 0.043217197 0.24005695 
-0.69473296 0.67661595 -0.2440021 
-0.3574358 0.7950309 -0.49006698 
-0.87841964 -0.12706828 -0.46068722 
-0.062051523 0.4880041 -0.8706329 
0.3276181 0.47694102 -0.8155941 
0.19905734 0.4982231 -0.8438898 
0.38237005 0.6449788 -0.6616612 
0.23711352 0.92941046 -0.28279588 
-0.059997395 0.6777416 -0.7328484 
0.2849236 0.82794124 -0.48304448 
0.42346826 0.7982548 -0.42832705 
0.8780171 0.07884645 0.47209033 
0.24709754 0.5549301 0.79435223 
0.6775045 0.5093009 0.53066033 
-0.42079332 -0.22109897 0.8798002 
-0.5474087 0.54581904 0.63437 
-0.019010032 0.86647373 0.4988607 
-0.12239058 0.72932047 0.6731361 
0.5417229 0.4772666 0.69191974 
0.0527543 -0.0048045665 0.99859595 
-0.007300426 0.49706438 0.867683 
-0.39467484 0.2295494 0.88968474 
-0.18586032 0.9170914 0.35270295 
-0.5022249 0.7085385 0.4957252 
-0.091238104 0.81741935 0.5687718 
0.20670365 0.95347995 0.21943025 
0.30323216 0.6396161 0.706358 
-0.21683022 0.20033248 0.9554327 
-0.6860922 0.30121505 0.6622289 
0.2456897 0.64230376 0.7260045 
0.36436296 0.50375694 0.78324234 
-0.41424096 -0.19384263 0.8892859 
-0.44931048 0.5819096 0.6778653 
-0.76423043 0.2951954 0.5734209 
-0.27735156 0.81223 0.5131849 
-0.25321 0.72807807 0.6370142 
-0.79079866 0.5661885 0.23252569 
-0.6115181 0.5727106 0.54593796 
-0.6297175 0.7765168 0.021851556 
0.08499663 0.9823625 -0.1665517 
0.19447197 0.7530636 -0.62855065 
0.3723359 0.4466671 -0.8135445 
0.7456419 0.63867044 0.19004829 
0.6617839 0.70041245 -0.2673287 
0.15162979 0.80478483 -0.57387275 
0.98527235 0.1697849 -0.02028844 
0.9907774 0.13481271 0.01363033 
0.20904979 0.76330155 0.6112847 
0.26893198 0.7834172 0.5602973 
0.5625966 0.64187294 0.5210415 
0.15170988 0.8028203 0.57659656 
0.23755181 0.9264157 0.2921012 
0.5194002 0.588599 0.6194955 
0.31812286 0.6909956 0.64909405 
0.73743874 0.5958619 0.31801385 
0.8197027 0.24616681 0.5171939 
0.07415686 0.043984268 0.9962762 
0.18397315 0.40127167 0.8972932 
-0.09828313 0.9243931 0.3685618 
-0.3923984 0.32851815 0.8591271 
-0.9339888 0.29927856 -0.19518565 
-0.021845471 0.7671948 -0.64104205 
-0.19134887 0.7938499 -0.5772244 
-0.48202497 0.7653884 0.4264185 
-0.22909875 0.96693486 0.11203044 
0.581064 0.7923029 -0.18606701 
0.25215524 0.8951749 0.3675318 
0.09393157 0.4342101 0.895901 
-0.24746184 0.9686555 -0.021661831 
-0.02417223 0.4606803 0.88723695 
0.18415777 0.8105183 0.556009 
-0.12853618 0.94011515 0.3156928 
-0.17326148 0.9184873 -0.3554737 
0.5102867 0.8142276 0.27684098 
0.053024802 0.24770707 0.96738285 
0.2506582 0.19941673 0.9473138 
0.14673881 0.36900917 0.917769 
0.64349914 0.22652037 0.7311618 
0.20941323 0.15889323 0.9648312 
0.5109214 -0.26818225 0.81672376 
0.5828825 0.47510734 0.6591821 
-0.03840753 0.69762915 0.7154289 
-0.21326247 0.9762126 -0.039090708 
-0.23698612 0.8756397 0.4208239 
-0.31252202 0.80080324 0.51092494 
0.015067233 0.87403643 0.4856266 
-0.27011955 0.9578168 -0.09809362 
0.22742346 0.42487213 0.8762204 
0.5127866 0.36406454 0.7775005 
0.32552782 0.94441795 -0.045895785 
0.7538956 0.654615 -0.055863146 
0.19184692 0.9795562 0.060534347 
0.7584152 0.6188133 0.20463753 
0.6486623 0.7206521 0.24474017 
0.60184014 0.0962899 0.7927905 
-0.084359124 -0.09638848 0.9917625 
0.0027968003 0.54072344 0.84119576 
-0.18424815 0.17510875 0.96715546 
-0.3412007 -0.13421403 0.93035954 
-0.43344373 -0.22362234 0.87299466 
-0.8963675 -0.401332 0.18830328 
-0.5237948 -0.20105833 -0.8277769 
-0.47121608 0.4655484 -0.74914634 
0.33658883 0.4895431 -0.8043976 
0.5921495 0.036418285 -0.8050048 
0.9414028 -0.076688595 -0.3284505 
0.802437 -0.22568235 -0.55241513 
0.8563763 -0.2897398 0.42739996 
0.10610407 -0.769308 0.6300057 
0.56903225 -0.34485945 0.74650806 
-0.6959316 0.17115381 0.6974135 
-0.1228027 -0.15428695 0.98036474 
0.32125664 -0.2812191 0.9042733 
-0.3908211 -0.026350012 0.9200894 
-0.11909243 -0.09713203 0.9881207 
0.23256908 -0.036040224 0.97191197 
0.08976873 -0.29002216 0.95280045 
-0.21002614 -0.16081892 0.9643788 
-0.25982484 0.3918912 0.8825601 
-0.7352204 -0.2704093 0.6215545 
-0.29619128 -0.1826919 0.93749374 
0.06813997 -0.28197545 0.9569989 
-0.18952604 0.29907328 0.9352193 
0.13989104 0.47994116 0.86607563 
0.10594107 0.31675547 0.94257224 
-0.10246411 0.6257901 0.7732322 
0.4554426 -0.029698031 0.88976973 
-0.47068068 -0.19949809 0.85945344 
-0.01876167 0.49289945 0.869884 
0.4539757 0.5165481 0.7260057 
0.38777485 0.54377514 0.744271 
0.52773064 0.5801417 0.62043214 
-0.06082548 0.9890743 0.13428493 
-0.1497839 0.949551 0.2755315 
0.5330337 0.70554984 0.46698454 
0.04648022 0.9938648 0.10036164 
0.18627766 0.6140262 0.7669892 
-0.6940782 0.33062798 0.63948464 
-0.7053256 0.6671184 0.2397269 
0.28879517 0.8239469 -0.48755413 
-0.48231637 0.732582 -0.4803068 
-0.12545353 0.83569354 -0.53467536 
0.025049921 0.9770212 0.21166526 
-0.33316007 0.9152015 -0.22673914 
-0.60239726 0.7976917 0.028381564 
0.019090874 0.8184715 -0.57422984 
0.39017683 0.7424612 -0.5445306 
0.55774236 0.7593165 0.3352044 
0.73151076 0.6713507 -0.11908125 
0.93230635 0.32072976 -0.16714472 
0.5559178 0.8299997 0.0453446 
0.49609658 0.86224777 0.10206403 
0.8773044 0.4285494 -0.21606164 
0.6333039 0.6687595 0.38946998 
0.7105626 0.7024278 -0.041183714 
0.82909006 0.54559755 -0.12220046 
0.05908684 0.98584086 -0.15692852 
-0.04510465 0.8678412 -0.49479023 
0.23895033 0.36812878 -0.89854556 
0.6950702 0.6384155 -0.33061013 
0.6869297 0.45893997 0.56347287 
-0.015937896 0.6961773 0.71769303 
-0.1959085 0.9646386 0.17632991 
0.19661598 0.03282919 0.9799309 
0.57055736 0.19537526 0.79767966 
0.7265124 0.2589529 0.6364929 
0.4891128 -0.39462823 0.7778413 
0.44521484 0.20038585 0.87271374 
0.05015122 0.90929145 0.41312724 
0.56101626 0.43758136 0.70269716 
0.36667433 0.40179294 0.839114 
0.16606031 0.98502624 0.046339266 
0.38286486 0.92028344 -0.080578275 
0.49860808 0.8657059 0.04408375 
0.36493242 0.85997754 0.35673955 
0.68622017 0.69133437 -0.22618291 
0.8191992 0.43609896 0.37246522 
0.5388202 0.8421514 -0.02130665 
0.45100066 0.6814834 0.57634956 
-0.37889716 0.896291 0.23043321 
0.11637063 0.99298865 0.020771055 
-0.23139556 0.9289716 0.28890848 
0.10854257 0.9854311 -0.13093597 
0.58273566 0.7992762 -0.14689067 
0.14036022 0.7352102 -0.6631478 
0.49198854 0.8531011 0.17368287 
0.15618804 0.983541 0.09084352 
-0.38252324 0.5852759 0.71493226 
-0.3442775 0.8995587 0.2688256 
-0.65675426 0.4351811 0.61586636 
-0.630604 0.6838453 0.36700708 
-0.6384975 0.7633009 0.09845192 
-0.6890806 0.7110805 -0.13975891 
-0.5992557 0.7829811 -0.16683342 
-0.29160056 0.7492175 0.5946784 
-0.47091565 0.5589863 0.6824755 
-0.20668918 0.84311485 0.49642405 
-0.13361749 0.92294675 0.3609926 
0.7433676 0.64914757 0.16128267 
0.7365421 0.67175686 -0.07904764 
-0.12980807 0.9865464 0.09937937 
0.21161188 0.95594704 0.2034347 
0.022407683 0.9423928 0.33375704 
-0.4870677 0.7895831 0.37326074 
0.3203904 0.8051971 0.49900672 
0.17692961 0.74444586 0.6438139 
0.45599034 0.6272013 0.63142014 
0.15574281 -0.37606546 0.9134106 
0.5273044 -0.03801885 0.8488255 
0.19007365 -0.011722342 0.9816999 
-0.14206523 -0.5877239 0.7964911 
0.24187136 -0.73767656 0.6303424 
0.8504031 0.22618401 0.47503212 
0.7334105 -0.36460596 0.57373476 
0.7901928 -0.051534235 0.6106879 
-0.11065421 -0.12922335 0.9854223 
0.2479243 0.24468003 0.93737143 
-0.42319936 -0.08761905 0.9017901 
-0.3755026 -0.2963339 0.8781709 
-0.4688655 -0.11894027 0.8752247 
-0.57677156 0.4835523 0.65841615 
-0.92180717 0.26999998 -0.2781573 
-0.8948567 0.4458129 0.021961521 
-0.081680454 0.49856132 -0.8629978 
-0.3323304 0.41964173 -0.84466404 
-0.3810067 0.38788298 -0.839274 
0.4205561 -0.49379465 -0.7611172 
0.29596218 -0.018742073 -0.95501584 
0.6962799 -0.39280865 -0.60074604 
0.7734663 -0.4359095 -0.4601443 
0.69386137 0.23813224 0.6795952 
-0.08625425 0.4056043 0.90997005 
-0.15982655 0.65993685 0.73412466 
-0.30564007 0.35765877 0.8824196 
-0.45661798 0.80198455 0.3851243 
-0.91376185 -0.20059872 -0.3532696 
-0.9910777 -0.12005243 -0.057900406 
-0.5235513 0.03333148 -0.85134196 
0.1720165 0.48573244 -0.85701483 
0.11462024 0.7180456 -0.68649304 
-0.24616672 0.45519027 -0.8556891 
0.39423066 0.8997769 -0.18704009 
0.11612211 0.3186829 -0.94072145 
0.4343638 0.029984277 -0.90023834 
0.18477644 0.9704846 0.1549755 
0.46493247 0.8778193 0.115200385 
0.35445783 0.77772486 0.5191376 
-0.007978164 0.93340147 0.3587453 
0.5613045 0.6120475 0.5570774 
-0.108393736 0.5923708 0.79834056 
-0.44067708 0.489081 0.75273085 
-0.7402303 0.5498392 0.38695744 
-0.6959962 0.51026624 0.5051908 
-0.92493665 -0.26061076 0.27672064 
-0.6965429 -0.20483388 0.6876563 
-0.8778132 0.37092003 0.30308792 
-0.7934861 0.6061044 0.05492947 
-0.42995003 0.83155656 -0.35164836 
-0.58235794 0.19839217 -0.7883526 
-0.28943515 0.5873056 -0.7558436 
0.26835346 0.8501905 -0.45294875 
0.19600548 0.9564577 -0.21626537 
0.0778329 0.9967823 -0.019157443 
0.028323198 0.86713386 0.4972691 
-0.42670187 0.8530295 -0.30044356 
0.62108016 0.78214645 0.050064232 
-0.08765228 0.96578395 0.24408679 
-0.12307242 0.8687626 0.4796925 
0.4525761 0.8459391 0.28206727 
0.75105137 0.5654719 0.34082767 
-0.28960562 0.13827626 0.9471053 
-0.03517297 -0.00025792746 0.9993812 
-0.19205831 0.3226725 0.9268205 
-0.4733889 0.19035457 0.8600396 
-0.17832679 0.52260804 0.8337149 
0.23804656 0.61649853 0.7505087 
0.4510237 -0.2880978 0.844735 
-0.34780023 0.1674762 0.9224895 
-0.078739084 -0.4478814 0.89061916 
-0.24478038 -0.3645989 0.89841545 
-0.38764346 0.19181004 0.9016327 
0.58733433 0.5110905 0.6275548 
0.73863184 0.65447104 0.16152659 
0.9416873 0.13877173 0.3065412 
-0.5172275 0.22333586 0.8261943 
-0.18607728 0.49751747 0.84726137 
0.2562914 0.07113119 0.9639788 
-0.27595025 0.5016528 0.81987554 
-0.9415679 0.15780894 0.29756734 
-0.62082684 -0.44437158 0.645839 
-0.12986247 0.7409399 0.6588959 
-0.47749805 0.36218208 0.80051214 
-0.7463446 0.378519 0.5474424 
-0.54209083 0.1766189 0.82154936 
-0.9071472 0.40639403 0.10921552 
0.26366183 0.8851749 -0.3833379 
0.1985037 0.88329285 0.42472354 
0.10360673 0.9067458 0.40875152 
0.5837586 0.810262 -0.051974844 
0.24197602 0.9543905 -0.17488992 
-0.17564699 0.97875136 0.10580134 
0.8476718 0.38308334 -0.36701474 
0.7994767 0.5097734 -0.3177548 
-0.07710523 -0.5440134 0.83552635 
-0.06328424 0.747329 0.66143364 
-0.17380342 0.8593454 0.48095542 
-0.3489466 0.9170178 0.1931701 
0.6789603 0.34891453 0.6459656 
0.5685287 0.3689897 0.73526984 
0.7085376 0.69856757 -0.099890076 
0.36970532 0.7281593 0.57715 
0.6845577 0.6247204 0.37563974 
0.0018638719 0.50381905 0.86380726 
0.6699629 0.35062125 0.654381 
0.41420376 0.08553699 0.90615606 
0.08707458 0.298329 0.95048296 
-0.7011305 0.583024 -0.4104863 
-0.85789055 0.51378804 0.006757011 
-0.33280894 0.942993 0.0015647532 
0.04453698 0.90691566 0.41895163 
-0.08018038 0.97690594 0.1980552 
0.6850981 0.5105985 0.51954776 
0.26840928 0.36601624 0.89106035 
0.5099704 -0.007220068 0.86016166 
-0.5027078 0.8591967 0.095215686 
-0.23244232 0.68286896 0.6925754 
-0.010671133 0.97667825 0.2144429 
0.07465706 0.89089227 0.44803706 
0.18169405 0.983274 -0.012631044 
0.64513946 0.1921477 0.7395096 
-0.26008004 0.37152067 0.8912524 
0.74135697 0.16550438 0.65038306 
0.22359101 -0.40368864 0.88715416 
0.42699054 0.15322925 0.89117897 
0.40846872 -0.109765634 0.90614843 
0.5002305 0.07763299 0.86240524 
0.0490194 0.1981744 0.9789403 
0.020504612 0.1035508 0.99441284 
0.45886707 0.6782786 0.5739156 
-0.14312123 0.97893447 0.1456152 
-0.05994877 0.57481897 0.81608176 
0.003229695 0.6556014 0.7551003 
-0.38378292 0.5959808 0.7053493 
0.4945644 0.72725743 0.47592312 
0.2201611 0.4554018 0.8626346 
0.041509543 0.8571665 0.5133639 
0.34975806 0.9328397 -0.08648418 
0.26134017 0.8758266 0.4057452 
0.5704344 0.5076772 0.64565355 
0.3525223 0.39862067 0.8466579 
0.6678155 0.7087554 0.22735065 
0.20690957 0.69710493 0.6864643 
-0.29960465 -0.30635282 0.90354025 
-0.19797617 0.33706126 0.9204321 
0.051246535 0.9005639 0.43169263 
0.24025777 -0.019379508 0.9705157 
-0.48538968 0.56089497 0.6706667 
-0.7958336 0.3277392 -0.5091523 
-0.11056681 0.50987446 -0.8531138 
0.1948905 0.7803191 -0.59423906 
0.62321526 0.49195954 -0.60792977 
0.20941356 0.75184476 -0.62520033 
0.75604796 0.5892888 -0.284834 
0.9956349 0.0024588716 -0.09330129 
0.8592439 -0.4579284 0.2280383 
0.48064858 -0.44237053 0.75715613 
-0.3313169 -0.06145782 0.9415158 
0.5353184 -0.6422364 0.54860425 
0.114177264 -0.54884994 0.8280865 
-0.39003846 -0.55012894 0.7383957 
0.29323056 -0.39974654 0.8684576 
-0.40178436 -0.8031186 0.4399658 
-0.09879078 -0.67751145 0.72884744 
0.06892975 -0.61851585 0.78274316 
-0.24888414 -0.11548575 0.9616235 
-0.39759228 -0.3739332 0.8379108 
-0.475919 0.10943805 0.8726537 
0.027849384 -0.001947499 0.9996103 
0.103833795 0.19144955 0.97599465 
0.20446391 0.43785962 0.87548476 
0.120948724 -0.0321723 0.99213725 
0.45268524 -0.075403556 0.8884765 
0.026674114 0.21633366 0.975955 
-0.5667263 -0.118083104 0.8154003 
-0.08286656 -0.37414685 0.92365974 
-0.05790286 0.47202903 0.8796795 
0.30437186 0.24131776 0.92147905 
-0.19929239 0.32057986 0.926019 
-0.5400518 0.19709557 0.8182282 
-0.70624006 0.7060645 0.051942527 
-0.12957653 0.98087436 0.14524257 
-0.10906026 0.9859575 0.12646598 
0.17073615 0.53473073 0.8275943 
-0.55054545 0.43738136 0.7110537 
-0.3389391 0.69365287 0.6355832 
-0.36483285 0.88316846 0.2948059 
-0.30859244 0.94248885 0.12839577 
-0.30008513 0.9513929 -0.0692857 
-0.09645382 0.9421369 0.32105282 
-0.06040961 0.9837714 0.16895175 
0.23745969 0.9588122 0.15585965 
-0.048494555 0.9251051 -0.3766018 
0.6371347 0.73875934 -0.21975951 
0.65475476 0.10134032 -0.749017 
0.9465659 0.023621833 -0.32164437 
0.6239376 -0.2858835 0.727305 
0.5954202 0.6279809 0.50111353 
0.68942565 0.69293857 0.21101761 
0.8720662 0.3428026 0.34926617 
0.8700277 0.2563773 0.42109665 
0.8620132 0.50364804 -0.05719965 
0.72068036 0.6334161 0.2817872 
0.516607 0.8448007 0.13938843 
0.20056148 0.8114673 -0.5489044 
0.37504733 0.6705469 -0.6400832 
0.8912643 0.4073932 0.19919537 
0.6168387 0.3153167 0.7211695 
0.38699314 0.6174442 0.6848351 
0.028622983 0.80870533 0.58751726 
0.24345344 0.39054447 0.8878094 
0.19706431 0.5706578 0.7971923 
0.2641922 -0.49404824 0.8283229 
-0.12857324 -0.08922535 0.987678 
-0.015577768 0.0039785802 0.9998708 
0.14046021 0.23590867 0.9615707 
0.32894093 0.8008365 0.50045854 
0.1250255 0.6141592 0.7792157 
0.49989414 0.515565 0.69591576 
-0.23498017 0.8546407 0.46300486 
0.5088156 0.8056528 0.30336487 
0.07098278 0.44262278 0.893894 
-0.49377084 0.78373796 0.376756 
0.13750762 0.3343084 0.9323784 
0.024255343 0.9009871 0.43316752 
0.24158154 0.8944968 0.37618336 
0.29653227 0.91591024 0.27051294 
0.49079627 0.514078 0.7034507 
-0.45439556 0.7996184 0.39260057 
-0.5403987 0.7728946 0.33257082 
0.031941485 0.47689876 0.87837774 
0.3808151 0.6246703 0.6817382 
-0.33331403 0.60531574 0.7228379 
-0.18231937 0.98274124 0.031294424 
0.33738524 0.44473985 0.8296854 
0.049765572 0.77879673 0.6252992 
-0.31912172 0.7495146 0.5799908 
-0.41405365 0.9102114 0.0086625945 
-0.6873463 0.72470623 0.04853851 
-0.7281535 0.6759979 0.113222644 
-0.48344585 0.8532737 0.19545889 
-0.28843614 0.5432774 0.78845054 
-0.085743785 -0.17459755 0.98089945 
-0.09746604 0.39210114 0.9147443 
-0.72432476 0.63365674 0.271722 
0.37255496 0.7583201 0.5349333 
0.5853921 0.67733884 0.44556504 
0.03885157 0.95521003 0.2933674 
0.14182444 0.9747376 -0.17254753 
0.9473049 0.08544865 0.30872646 
-0.67940307 0.38102666 0.62708074 
-0.1393838 0.9277668 0.3461517 
-0.3996252 0.8160708 0.41752625 
0.06849662 0.85943 0.5066442 
-0.2736083 -0.32356626 0.9057833 
0.16005392 -0.10528355 0.98147756 
-0.22484766 -0.27719566 0.93413395 
-0.02754319 -0.40472662 0.9140229 
-0.37086067 -0.92864174 -0.009318116 
0.26935273 -0.94595873 -0.18058586 
0.09472765 -0.9462498 0.30925408 
0.7295863 -0.6666423 0.15261714 
-0.40902674 -0.53754765 0.73738706 
-0.037427567 -0.57807875 0.8151222 
-0.64153886 -0.6042838 0.47251362 
0.557853 -0.7555814 0.34336123 
0.15969749 -0.010256303 0.98711276 
0.159712 0.33057487 0.930168 
-0.41619703 0.46340215 0.78232884 
-0.54909635 0.018083 0.83556354 
-0.57680476 0.75174147 0.31965807 
-0.630744 0.6161981 -0.47165862 
0.18770817 0.51498425 -0.8363952 
-0.06318983 0.49293786 -0.8677669 
0.32556853 0.48852545 -0.8095357 
0.42604753 0.07348991 -0.901711 
0.97954726 -0.18956152 0.06748024 
0.8229483 0.3112694 0.47525522 
0.1206801 0.22097786 0.9677837 
-0.43079332 0.5796884 0.6916492 
-0.5455322 0.274703 0.79179096 
-0.8190275 0.22452779 0.5279975 
-0.95853513 0.25312293 0.13091753 
-0.66822785 -0.13532256 -0.73154587 
-0.43404126 0.8968312 0.0854528 
0.6887194 0.72375673 0.042916697 
-0.026184615 0.990167 0.13741805 
-0.8220273 0.56629634 -0.059830777 
-0.33833498 0.92974764 0.14525473 
0.3132327 0.9194678 -0.23762219 
0.11489663 0.9820914 0.14931561 
-0.13753062 0.9350212 0.32683435 
-0.31047124 0.9480302 -0.06961628 
-0.19119017 0.8101814 0.5541231 
-0.0049679433 0.7645499 0.6445454 
0.22014357 0.6775531 0.70175403 
0.17328246 0.8756738 0.45074248 
-0.020599928 0.5449156 0.83823794 
-0.8373043 0.51985544 0.16932762 
-0.61773413 -0.16546975 0.7687811 
-0.9375503 0.09177079 0.33552605 
-0.72024065 0.5841863 0.37413883 
-0.9877454 0.11135795 -0.10935516 
-0.89810485 0.38729548 -0.2083507 
-0.83707255 0.38837656 -0.38532233 
-0.3898999 0.2370928 -0.8898119 
0.21608526 0.8385318 -0.5001717 
0.3958764 0.88935906 -0.22874072 
0.2894963 0.94748574 -0.13587758 
0.32449204 0.94236726 -0.08154022 
0.08861524 0.98938376 0.11518323 
0.5026871 0.4495344 0.7383933 
0.31326947 0.68197286 0.66088974 
-0.24400474 0.9177444 0.3133801 
-0.51446825 0.53576297 0.6695376 
-0.80859524 0.32937482 0.48753053 
-0.18566586 0.8846735 0.42764607 
-0.42662656 0.32743117 0.8430769 
-0.24708565 -0.60658187 0.7556502 
-0.7688959 0.2571546 0.58538085 
-0.6773522 -0.2050173 0.70651394 
0.11383411 0.37492687 0.92003894 
-0.44630364 -0.06630258 0.892422 
-0.5802937 -0.0079753585 0.8143683 
-0.42917767 -0.52945554 0.7317673 
0.34295702 -0.105052434 0.93345845 
0.48763913 -0.3351169 0.80616677 
0.072415225 -0.18485989 0.98009336 
0.42246687 -0.03953857 0.90551555 
0.26359165 0.4651444 0.8450799 
0.457164 0.23664969 0.85732037 
-0.3567321 0.5349361 0.7658888 
-0.30277464 -0.1018807 0.94760114 
-0.7706757 0.32683215 0.547028 
-0.060572565 0.76580346 0.64021575 
-0.7811174 0.43057346 0.45217484 
-0.15747164 -0.0011397286 0.9875229 
-0.24323241 0.8323814 0.49797505 
0.0766593 0.35626987 0.9312332 
0.067510344 0.28623864 0.95577705 
-0.57199347 0.60988665 0.54850876 
-0.15342124 0.8652949 -0.47720733 
0.20484325 0.9786126 -0.018887417 
-0.33156654 0.8877526 -0.31931043 
0.15457243 0.97889423 -0.1336917 
-0.24453223 0.94702727 -0.20819038 
0.12953734 0.9686119 0.21215814 
0.28246212 0.93257916 0.22474757 
0.82117856 0.5706707 -0.0009087964 
0.83475417 0.41590923 0.36083928 
0.28001493 0.016573489 0.95985264 
-0.02226845 -0.39279526 0.9193563 
-0.43264773 -0.035324194 0.90087074 
-0.6031288 0.18893062 0.77494586 
0.08211249 0.5122345 0.85491145 
0.23306705 0.40977725 0.88190836 
0.72702116 0.6239705 -0.28653294 
0.7075559 0.64362824 0.29173177 
0.18470527 0.61281323 0.76833844 
0.3985245 -0.18485458 0.8983357 
0.735347 -0.21721712 0.64193577 
-0.020356677 0.096024506 0.99517083 
-0.20069177 0.12638253 0.9714682 
-0.35596162 0.40684602 0.8412893 
-0.38064107 0.38265198 0.8418372 
-0.5729425 0.13955288 0.8076274 
0.010649781 0.37956932 0.925102 
0.04042251 0.46031117 0.8868369 
0.67166436 0.5616723 0.4831059 
-0.21213871 0.5934051 0.7764455 
-0.2531595 0.1417387 0.95698506 
0.3132358 -0.09793296 0.94461244 
-0.14004208 0.04794251 0.9889842 
0.34016767 0.829964 0.44209242 
-0.019831657 0.93015784 0.36662418 
0.36837947 0.8134653 0.45007876 
0.8155132 0.5784766 -0.017410623 