# OOMMF: rectangular mesh v1.0
# Segment count: 1
# Begin: Segment
# Begin: Header
# Desc: Time (s) :  2.529999999999996e-07
# Title: m
# meshtype: rectangular
# meshunit: m
# xbase: 2e-09
# ybase: 2e-09
# zbase: 5e-10
# xstepsize: 4e-09
# ystepsize: 4e-09
# zstepsize: 1e-09
# xmin: 0
# ymin: 0
# zmin: 0
# xmax: 1.024e-06
# ymax: 1.024e-06
# zmax: 1e-09
# xnodes: 256
# ynodes: 256
# znodes: 1
# ValueRangeMinMag: 1e-08
# ValueRangeMaxMag: 1
# valueunit: 
# valuemultiplier: 1
# End: Header
# Begin: Data Text
-0.2499422 0.46360117 -0.8500606 
-0.04974842 -0.24775484 -0.9675447 
0.6726025 -0.33636534 -0.65913916 
0.2434223 0.5705944 -0.7843263 
0.16232415 0.39529958 -0.90409577 
0.39590314 0.91146564 0.11176372 
0.3912735 0.7488949 0.5348473 
-0.08030241 0.7292287 -0.6795418 
0.46649915 0.5344911 -0.70476794 
0.41675568 0.9083689 -0.034361523 
-0.084332995 0.745639 -0.6609921 
-0.14302379 0.87753814 -0.4576801 
0.11743922 -0.2810234 -0.95248824 
0.87576354 -0.10648612 0.4708491 
0.5621206 0.8265411 -0.029161183 
0.03056112 0.9914957 -0.12650026 
0.5090393 0.782789 -0.35793912 
0.7316595 0.42911723 -0.5296535 
0.15895008 0.97676486 -0.14375474 
-0.41477937 0.9075901 -0.06510369 
0.028712379 0.42183858 -0.9062162 
0.44881395 0.80401814 -0.39002675 
0.09885433 0.81821185 -0.56635433 
0.38960335 0.87217516 -0.2958374 
0.7675128 0.64101857 -0.0044014184 
0.13060169 0.9267222 0.35231963 
0.20763944 0.89487165 0.39508325 
-0.06781959 0.9944539 0.0803864 
-0.29915515 0.7655964 0.5695335 
0.6692047 0.62087345 0.40826634 
0.35565796 0.9193368 0.16830769 
0.69222856 -0.6536569 0.30586326 
0.8944019 -0.36926877 0.2523606 
0.7553982 0.1262793 0.642983 
-0.4270185 0.33241594 0.84092504 
0.6433973 -0.105371095 0.75824594 
0.59848356 -0.013540626 0.8010207 
0.3901181 0.036751416 0.9200312 
0.20881781 -0.4422375 0.87225074 
0.45400566 0.6140187 0.645647 
0.908176 0.22062127 0.3557284 
0.9786793 -0.040964726 -0.20126769 
-0.16836624 0.7225146 0.67054117 
0.61240643 0.73447734 0.2924064 
-0.2111919 0.9613926 -0.17641543 
0.36832547 0.9224111 0.11616487 
-0.04789593 0.6391728 0.7675703 
-0.17872982 0.9387444 0.2946432 
-0.14452028 0.21924184 0.9649077 
-0.3570218 0.7297071 0.5831492 
-0.46797526 0.7059766 0.5315978 
0.25571528 0.8448864 0.4698689 
-0.62235254 -0.1454967 0.7690956 
-0.95682216 0.071302414 0.28179342 
-0.8747295 0.29034677 0.38800395 
-0.8289121 0.5312719 0.17508616 
-0.9579197 -0.28603622 0.023943225 
-0.6643911 0.20904493 -0.7175547 
-0.73062867 0.06775218 -0.67940515 
-0.020139236 -0.6694307 -0.7426016 
-0.046539336 -0.6985628 -0.7140337 
0.038965005 -0.24088344 -0.96977156 
0.8906092 -0.44647962 -0.086436674 
0.7848638 -0.3922785 -0.47969413 
0.94729406 -0.05033109 -0.31638727 
0.7495984 0.27738726 0.6009647 
-0.16274993 -0.33425355 0.9283249 
-0.05089453 -0.7466618 0.6632541 
-0.3548169 -0.7651703 0.537233 
0.95579714 -0.053265426 0.28916207 
0.92450786 0.356869 0.13390191 
0.426219 0.7110418 0.5592469 
0.13022669 0.4897521 0.86208117 
0.3808584 -0.22401978 0.8970853 
-0.46692502 -0.4009343 0.78818333 
-0.4962033 -0.38983583 0.7757644 
-0.42813385 -0.47308746 0.76999336 
-0.79102415 0.3739808 0.4841687 
-0.69079405 0.24338657 -0.6808573 
-0.47905278 0.8134141 -0.3299486 
-0.72642523 0.6037167 0.32837883 
0.034812864 0.8302139 0.5563569 
0.21369557 0.2613531 0.9412911 
0.699071 0.12673415 0.70373166 
0.3492781 -0.15938972 0.9233633 
0.16692841 0.609406 0.77508664 
-0.16200426 0.6555041 0.73761034 
-0.85389036 0.5137953 -0.082979664 
-0.30873352 0.9311454 0.1940411 
-0.3276578 0.84629226 -0.4200356 
-0.017956953 0.98596096 0.1660081 
-0.465889 0.7839451 0.4103383 
-0.57901317 0.72975236 0.36360055 
0.41105688 0.75974864 0.50379974 
-0.008018018 0.21636623 0.9762794 
-0.54086816 0.32185337 0.7770921 
0.24686238 0.5307909 0.81075275 
0.516793 -0.297714 0.8026777 
0.44607824 -0.31910104 0.83617514 
0.16488676 -0.40418872 0.8996909 
-0.30817047 0.39267176 0.8665102 
-0.6464319 -0.12294525 0.7530008 
-0.49986959 -0.03874283 0.8652338 
0.37792426 -0.07432905 0.92284805 
0.13213387 0.08846036 0.98727685 
0.2907173 -0.24584948 0.9246846 
0.09988233 0.49648806 0.86227787 
0.48471656 0.513945 0.70775026 
-0.11824038 0.4882783 0.8646408 
-0.8172269 0.107610464 0.5661804 
-0.15390833 0.18515946 0.9705814 
-0.811485 0.25243655 0.52703696 
-0.581417 0.6085013 -0.5400745 
-0.755199 0.5257771 -0.3914499 
-0.7017745 0.37179506 -0.607685 
-0.5106143 0.14356337 -0.84773976 
-0.49896005 -0.033208776 -0.86598843 
0.22990747 0.28135628 -0.9316551 
0.46536547 0.5602607 -0.6852321 
0.47895387 -0.05722096 -0.8759731 
0.58020216 -0.27038586 -0.76828194 
0.9557705 -0.28276598 -0.080908276 
0.823315 -0.3753347 -0.42576548 
0.86759907 -0.053667698 -0.4943599 
0.5027439 0.5678457 0.6517667 
0.49411622 0.35458636 0.79379964 
0.08806316 0.37145767 0.9242642 
0.05995856 0.8818011 0.46779457 
-0.1889104 0.9693459 -0.1571031 
0.25559595 0.9453006 -0.20267631 
0.36336124 0.9023976 -0.23161882 
0.8392797 -0.5396326 0.066380344 
0.32281438 -0.93885416 -0.119765595 
0.7021208 -0.6836584 -0.1990922 
0.63313013 -0.4692117 -0.615619 
0.8878817 -0.34470153 -0.30470818 
0.9856221 0.16854265 -0.011936979 
0.7206015 -0.39466316 0.5700653 
-0.031583324 -0.2589669 0.9653697 
-0.50808984 -0.23678327 0.82811743 
0.20788747 0.81277496 0.5442238 
-0.5847694 0.41128412 0.6992068 
-0.7306113 0.4894045 0.47612014 
-0.32585868 0.6434949 -0.69262576 
0.5303751 0.83031046 -0.17113334 
0.504566 0.48873442 0.7117245 
0.21742798 0.8731556 0.43626177 
0.036270767 -0.019475488 0.9991522 
0.22993365 0.8496133 0.47464493 
-0.20520224 0.7998368 -0.5640507 
0.36039534 0.84099674 -0.4035342 
-0.41345972 0.9103245 -0.018986052 
-0.6576182 0.64424145 0.39050135 
-0.5062868 0.7887688 0.3485935 
-0.8962339 0.38774398 -0.2154517 
-0.90286046 0.10071644 -0.4179706 
-0.9681133 -0.08986997 -0.23383784 
-0.79715604 0.6014268 0.05317957 
-0.54170007 -0.08117843 -0.83664286 
-0.2896132 0.4450699 -0.8473706 
-0.08999305 0.593235 -0.7999834 
0.47241622 0.43698952 -0.7654169 
0.30159187 0.7600277 -0.57567394 
0.2690609 0.778499 -0.5670499 
0.42994246 0.8899678 0.15200995 
0.45283946 0.8060621 0.38105163 
0.29953843 0.92201704 -0.24527833 
0.47879624 0.65980595 -0.57914615 
0.701253 0.69062203 -0.17687717 
0.3703818 0.7844502 -0.49744886 
0.6195103 0.7809071 -0.07994534 
0.23788647 0.37408927 -0.8963634 
0.29552063 0.50309855 0.8121327 
-0.1128366 0.36754993 0.9231332 
-0.7701888 0.63780963 -0.0028671531 
-0.7467184 0.60355216 -0.27952904 
-0.51463616 0.81802124 0.256887 
-0.6172017 0.777973 0.11755936 
-0.888623 0.34703672 -0.299858 
-0.49065095 0.37917328 0.78453135 
0.17909233 -0.82121444 0.54178685 
-0.8150847 -0.5756656 0.06516144 
-0.5879146 -0.65127236 -0.47979248 
-0.64527273 -0.54912126 -0.53112054 
-0.7882494 0.21228878 -0.57757807 
-0.8093418 0.20510022 0.55036336 
-0.823148 0.105487004 -0.5579427 
0.8164722 -0.3436511 -0.46397978 
-0.036514767 -0.44348487 -0.8955378 
-0.12378149 -0.1361659 -0.98292273 
0.48704317 0.59506255 -0.63928837 
0.5865378 0.74853206 -0.309311 
0.90488106 -0.03314821 -0.4243718 
0.5076208 0.7021125 0.49935892 
0.68874633 0.6189433 -0.37754187 
0.91669226 0.103975244 -0.3858297 
0.9205315 0.3423016 -0.18828568 
0.86877555 0.10768162 -0.48335692 
0.89869636 -0.15714665 -0.40945065 
0.77048594 -0.35749292 0.5277788 
0.69667584 0.69636315 -0.17239851 
0.8784195 -0.019548517 -0.47749034 
0.67836905 0.5645878 -0.4701662 
-0.5101934 0.21460603 -0.8328547 
-0.17200896 0.0024573056 -0.9850924 
0.5886032 0.13517642 -0.79704064 
0.78818 0.28031757 -0.54789996 
0.2757577 0.938418 0.20815772 
0.83472085 0.5506733 0.000117753385 
0.78077626 0.4483533 0.43516412 
0.48474848 0.5330576 0.69344693 
0.8960056 0.22277468 0.38411662 
0.25421804 0.38642734 0.8865931 
0.6051485 0.733534 0.30939192 
-0.10605093 0.9929838 0.052310377 
0.52577966 0.7104086 0.4678413 
0.25972936 0.96344745 0.06564767 
0.43698564 0.69230944 0.57423973 
0.12397815 0.6938392 0.70937765 
-0.13427854 -0.029568875 0.9905024 
-0.67665386 0.3441384 0.65092885 
-0.1547071 0.39756134 0.9044395 
-0.23088941 0.18979776 0.95428866 
-0.6756092 0.55214304 0.48855948 
0.19351725 0.9458476 0.2606212 
-0.42633972 0.8136674 0.39519587 
-0.64070964 0.76688176 -0.03719649 
-0.8205352 0.5392568 -0.18953648 
-0.30190232 0.49705863 -0.8135033 
0.34289947 -0.003814447 -0.9393644 
0.4638779 -0.24786432 -0.8505179 
0.98051995 0.15709749 0.117902435 
0.95380247 -0.16661692 0.24999964 
0.9495637 -0.18231767 0.25512597 
0.21013473 0.71869236 0.66281575 
0.045412183 0.91463625 0.40171906 
-0.9050669 0.42265886 -0.047046848 
-0.36464924 -0.17881875 -0.91381335 
-0.16621482 -0.58499444 -0.7938225 
0.6619268 0.3835502 -0.64400476 
0.8893112 0.10169483 0.44585165 
0.9513859 0.29222083 0.0973241 
0.26730242 0.24920493 0.93083096 
0.19859402 0.9480537 0.24850503 
0.021010282 0.8438274 0.5362032 
0.42223948 0.61003655 0.6704993 
0.23027553 0.97303057 -0.013593869 
0.3644865 0.9153262 -0.17125332 
0.7150545 0.32055348 -0.62124276 
0.6903651 0.6792031 -0.24915718 
0.12526442 0.84152627 -0.5254925 
0.37340486 0.4294553 -0.8222756 
-0.27834386 0.2700326 -0.9217414 
0.4419796 0.08199919 -0.8932694 
0.04716105 0.79948074 -0.59883755 
-0.36785093 0.85633856 -0.36244994 
-0.7619882 0.4021696 -0.50757617 
0.6506737 0.48245832 -0.5863939 
0.7493218 -0.10320801 -0.6541139 
0.95309776 -0.063007124 -0.2960318 
0.9963165 -0.045791373 -0.072502986 
0.66375464 0.54009193 0.51742685 
0.88243747 0.16477449 0.4406287 
0.2782383 0.8666881 0.4140475 
0.08862768 0.951545 0.29446086 
0.33572903 0.81064 0.4797384 
-0.20981874 0.91375345 0.347895 
0.22424969 0.9590681 -0.17291726 
0.11214098 0.5880524 -0.8010112 
0.818396 0.44381997 -0.36503708 
0.4385635 0.88614774 -0.14968045 
-0.08060931 0.99540997 0.05158739 
0.2933071 0.8252191 -0.48268452 
0.6950209 0.13203248 -0.7067626 
-0.09693636 0.7276426 -0.6790727 
-0.3762355 0.87591755 -0.30201888 
-0.13247222 0.9900116 -0.048253432 
0.53830945 0.82647127 -0.16482829 
0.1608407 0.94343543 -0.28993082 
0.21774659 0.9603091 0.17433539 
0.9661537 0.2511378 -0.05896471 
0.3511315 0.9343456 0.06086853 
0.050908014 0.5918042 0.8044726 
-0.44831923 0.6464113 0.61738354 
-0.57868344 0.5600203 0.59287673 
0.7919991 0.38471514 -0.47405884 
0.6274354 0.62270194 0.46751165 
0.9903825 0.13803253 -0.009470266 
0.94136775 0.3219836 -0.1007648 
0.3978634 -0.06203917 0.9153447 
0.11010872 -0.78681606 0.6072862 
-0.22950928 -0.75260955 0.61717457 
-0.029873058 -0.1147199 0.9929486 
0.5742266 -0.14671575 0.8054429 
0.30301172 -0.7960151 0.5239694 
0.3549272 -0.2212161 0.9083448 
0.81855375 0.42477244 -0.3867017 
0.9439675 -0.045606766 0.32687226 
0.14336553 0.658151 0.73911005 
0.25910407 0.92752314 0.269381 
-0.077512376 0.8633264 0.4986578 
0.4078924 0.6561632 0.63488084 
0.6254195 0.49645695 0.6019809 
0.27441925 0.8281411 0.48874992 
0.01797883 0.5513046 0.8341104 
-0.09359276 0.47195807 0.87663907 
0.21798486 0.94169426 0.25630954 
0.14449044 0.6427593 0.7523185 
-0.8190951 -0.22082986 0.52945024 
-0.78522694 0.52322716 0.3311376 
-0.6197891 0.17344715 0.76536113 
-0.9871714 0.08499284 -0.13516206 
-0.8621382 0.27703995 -0.42422464 
-0.8468299 -0.040251397 -0.53033876 
0.04210926 0.15800689 -0.9865398 
0.29624194 -0.057560347 -0.9533769 
0.096221216 -0.40171295 -0.9106966 
0.47247636 -0.72559834 -0.5002731 
0.9679127 -0.24630514 -0.049788035 
0.9988325 -0.0045110164 0.048096567 
0.9911529 -0.02499862 -0.13035028 
0.86407256 0.3884168 0.32017362 
0.63512814 0.16946192 0.753588 
0.6060946 -0.7759553 0.17476432 
0.09223525 -0.98975205 0.10901227 
0.8235919 -0.27901617 0.49380818 
0.79701614 0.025913987 0.60340184 
0.901903 -0.10209733 0.4196989 
0.59276676 -0.171711 0.7868565 
0.3409003 -0.35908267 0.8688192 
-0.0762743 0.07912416 0.9939425 
-0.3471484 -0.11291935 0.93098724 
-0.8029271 0.032283325 0.59520245 
-0.36080918 0.51798844 0.7755673 
-0.6943313 0.38688475 -0.6068149 
-0.011983704 0.97133225 -0.23742415 
-0.11512442 0.8019612 0.58617806 
0.33281773 0.53377277 0.77737963 
0.4089452 0.49342564 0.76765555 
0.58074653 -0.20424168 0.78804755 
0.31311303 -0.17053872 0.9342788 
0.43397185 0.21817653 0.87410957 
-0.06870988 -0.13755317 0.98810834 
-0.65380603 0.74955326 0.10347814 
-0.47527725 0.8785601 0.047367934 
0.056743726 0.8591575 -0.50855553 
-0.3102466 0.8735086 0.37513992 
-0.97376317 0.13174796 0.1855477 
0.24911456 0.06243339 0.9664596 
-0.1772457 0.19801053 0.9640415 
0.13410532 0.45781437 0.8788754 
-0.44881436 0.1835126 0.8745793 
0.29347295 -0.95578116 0.018869828 
0.64565843 -0.43592504 0.6269726 
0.86617386 -0.33199555 0.37352636 
0.6463879 -0.26465005 0.7156418 
-0.28914887 0.12646133 0.9488944 
-0.23277518 -0.18923517 0.9539423 
0.09392482 0.20188716 0.9748947 
0.41238993 0.3036664 0.8589071 
-0.20541124 -0.016548222 0.9785359 
0.09192119 -0.055329774 0.9942279 
0.4688905 0.45994067 0.7540533 
0.1297325 0.55786526 0.81972915 
-0.7427706 0.2541291 0.6194436 
0.10647483 -0.0802251 0.9910738 
-0.21485792 0.30780047 0.92687374 
-0.9313988 0.31928518 -0.1747949 
-0.74336344 0.29541317 0.6001182 
-0.9890505 0.096805 -0.111391544 
-0.98369104 0.13516109 -0.11867383 
-0.9678689 0.20689063 -0.1429196 
-0.71157134 -0.16138893 -0.68382734 
-0.4833982 -0.1964232 -0.8530793 
0.06420629 -0.13854611 -0.98827255 
0.53408176 0.094991356 -0.8400793 
0.97336984 0.18682727 -0.13284147 
0.70236945 0.1606447 0.69344825 
0.4532125 -0.4458372 -0.7718987 
0.99939007 -0.034316387 0.006478251 
0.7185829 0.47686905 0.5061961 
0.6161759 0.32779473 0.71615493 
0.16175236 0.10059343 0.98169094 
-0.088619165 0.80777466 0.58279234 
-0.6072735 0.7583137 0.23702201 
-0.17307407 0.9222246 0.34575605 
-0.03896201 0.5867631 -0.80882084 
0.32783931 0.044772837 -0.943672 
0.537437 -0.66812366 -0.5145602 
0.984682 -0.14227039 0.10079947 
0.986614 -0.111328945 0.11915923 
0.9651743 0.2213386 -0.13945535 
0.82184803 0.5603106 -0.10304367 
0.7398391 -0.072355025 0.66888183 
0.67903274 -0.6768547 0.28422216 
0.4533092 -0.4907503 0.7440934 
0.08737168 0.44536805 0.8910745 
-0.46595708 0.55721575 0.6873098 
-0.112652466 0.9170095 0.3826265 
-0.0145833995 0.6649993 0.7467016 
-0.43168834 0.88124895 0.19247203 
0.6412862 0.66745883 0.37848493 
-0.34866303 0.08598546 0.93329555 
-0.24529113 0.29856357 0.9223297 
-0.78812075 0.43935755 0.43108085 
0.041057467 0.6995384 0.7134146 
0.100811206 0.9899352 -0.09932486 
-0.8342631 0.39776042 -0.38182712 
-0.681651 0.6933753 -0.23362939 
-0.89228994 0.45143688 0.0048321905 
-0.83955467 0.50069237 -0.210844 
-0.26896375 0.96285 0.024053572 
-0.8666104 -0.483614 -0.12289842 
-0.8878589 0.17708877 -0.42467168 
-0.96208066 0.2194293 -0.16202368 
-0.46245837 0.6785406 -0.57071453 
0.012573811 0.6813425 -0.7318568 
0.34933758 0.8133676 -0.46518448 
-0.5433065 0.6436618 -0.5389969 
-0.05713729 0.9559155 -0.28802922 
0.72927374 0.66716254 0.15183559 
0.90338564 0.30144298 0.30500254 
0.8082891 0.49338585 0.32130852 
0.9086846 0.010827523 0.41734284 
0.1738338 0.9495417 -0.26106015 
0.3502051 0.91788924 0.18664367 
0.443005 0.87099725 0.21239221 
0.3053921 0.92167574 0.23926885 
-0.28920105 0.48948777 0.8226569 
0.05970031 0.09387864 0.99379206 
-0.62663585 0.24118194 0.7410525 
-0.8015605 0.5973526 -0.025897885 
-0.906792 0.38667506 0.16796045 
-0.5151424 0.8479068 -0.12522955 
-0.8787443 0.28400216 0.38360298 
-0.7084109 0.26497695 0.65417224 
-0.69573915 -0.32738853 0.6393466 
-0.95986825 0.14623298 -0.23930915 
-0.70938504 -0.3578816 -0.6072016 
-0.8695345 -0.32502368 -0.3718461 
-0.97102016 -0.0754697 0.2267692 
-0.997813 0.02766639 0.060033023 
-0.4710379 -0.15861364 -0.8677356 
0.48052004 -0.65326756 -0.58510005 
0.5092314 -0.38072613 -0.7718362 
0.32954308 -0.015488953 -0.9440135 
0.257356 0.76940686 -0.5846205 
0.77428806 0.5067855 -0.37900722 
0.9865598 0.1385618 0.08660456 
0.9675199 0.07340634 0.24190246 
0.50935256 0.85678846 0.08045866 
0.2600188 0.4818639 -0.83677804 
0.68348765 0.1909986 -0.7045312 
0.8402878 -0.322859 -0.43552083 
0.95996857 0.24144448 0.14200386 
0.6249784 -0.4477706 0.6394556 
0.9553034 0.2175415 0.20017835 
0.9522565 0.19001159 -0.23896267 
0.8140437 0.57091695 0.10670796 
0.18474591 0.9106535 -0.3695662 
-0.01595611 0.40413836 -0.91455877 
0.8138292 0.24962772 -0.52475536 
0.7280816 0.6442748 -0.23410955 
0.8419632 0.2684759 -0.46799448 
0.78499293 -0.05272474 0.617257 
0.56290877 -0.07888133 0.82274634 
0.45564416 0.043774407 0.88908505 
0.6321523 0.6681982 0.3922942 
0.15189475 0.5257943 0.8369399 
-0.3802813 0.8866936 -0.26298413 
-0.5692619 0.74703467 0.3433367 
-0.06188897 0.8096466 0.5836456 
0.47594735 0.86602294 0.15322658 
0.24468507 0.8788498 0.40957594 
0.64277256 0.6934036 0.3256301 
0.017992659 0.28092855 0.95956 
-0.6325169 0.1607482 0.7576823 
0.06243535 0.33232236 0.94109714 
-0.09367062 0.41290292 0.90594536 
-0.29886112 0.7234075 0.6223855 
-0.06645872 0.9184561 0.3898997 
-0.5907854 0.66759664 0.45308658 
-0.86382246 0.25792244 0.4327666 
-0.40746135 0.47470218 0.78014946 
0.13640666 0.99064 0.005057832 
-0.1971267 0.85209316 -0.48484874 
0.79503846 0.5937106 -0.124183975 
0.52968216 0.8453386 0.06956762 
0.16696353 0.9806986 -0.101752885 
-0.17543814 0.85455424 -0.48883393 
0.4421643 0.7918095 -0.4213414 
0.25839424 0.9486159 -0.18264788 
-0.753492 0.5080076 0.41734636 
-0.61680543 -0.28106514 -0.7352234 
0.03568497 -0.96282643 -0.26775363 
0.8851166 0.16543813 0.43497014 
0.6258116 0.6074797 0.48921186 
0.04626 0.5385626 0.8413146 
0.33832955 0.8273834 0.44829655 
0.2586796 0.6402941 0.7232623 
0.27299884 0.7813912 0.5611592 
0.24447973 0.6787993 0.69243145 
0.41104564 0.90268195 0.12730628 
0.6736906 0.6262493 0.3923683 
0.83250004 0.36696193 0.41506952 
0.64288515 0.7656468 -0.021993617 
-0.40628806 0.9067892 0.11253209 
-0.32997176 0.79639536 -0.5068265 
-0.5832142 0.68268174 -0.440235 
-0.29375395 0.9251229 -0.24053346 
-0.060646333 0.9974163 0.038505886 
0.44284144 0.83179843 0.33466825 
-0.70405215 0.3063866 -0.6406543 
-0.10759708 0.66654533 -0.7376586 
0.48967198 0.54251075 -0.6825712 
0.680668 0.7113622 -0.17508593 
0.8938434 0.13101561 0.42881113 
0.54783756 0.83649516 -0.012239293 
0.30554047 0.8608001 0.40702373 
-0.25010836 0.7091243 0.6592333 
0.13535067 0.82025754 0.5557499 
-0.008020308 0.9459332 -0.32426244 
-0.33538243 0.92803365 0.16208725 
0.34840652 0.85014826 -0.3947923 
-0.19078478 0.2784373 -0.941315 
0.5271121 0.20928076 -0.8236227 
0.33004022 0.9223057 -0.20106135 
0.75257814 0.6127304 0.24122109 
-0.043839153 0.8568145 -0.5137578 
-0.000537486 0.58974355 -0.8075904 
0.42773145 0.8866634 0.1757098 
-0.04232518 0.9921247 0.11788686 
0.18801855 0.67826015 0.7103607 
-0.13244814 0.77035743 -0.6237043 
0.18194512 0.9811767 0.06471836 
-0.14147459 0.88942796 0.4346297 
0.30604213 0.9375241 0.16548975 
0.236817 0.598934 0.7649809 
0.18122797 0.9067363 0.38076997 
0.3948275 0.80017865 0.45147035 
0.13880612 0.20147823 0.9696079 
0.3200204 0.3671769 0.873366 
0.8042176 0.27570108 0.5265198 
0.9840515 -0.076682895 -0.1605067 
0.7448294 -0.25781214 0.61543655 
0.72263086 0.34845063 0.59698147 
-0.07045112 -0.76619667 0.6387327 
-0.18999094 -0.8175904 0.5435527 
-0.04371727 -0.6189176 0.7842385 
0.09328656 -0.9132465 0.39658374 
0.5844369 -0.5736854 0.5738629 
0.85892344 -0.50830734 0.0622432 
0.6616866 -0.71982044 0.20983186 
0.7348026 -0.17993353 0.6539795 
0.5491954 -0.277157 0.7883962 
-0.05438159 0.044517595 0.99752736 
-0.042795233 0.8198768 0.57093847 
0.6254835 0.74889743 -0.21891345 
0.10987525 0.836308 0.5371373 
0.5484223 0.6961678 0.46323153 
0.75528157 0.46137184 0.4654953 
0.5801985 0.6284174 0.5181326 
0.38615698 0.7178188 0.57932645 
-0.34030548 0.18672444 0.921589 
-0.75354314 -0.41898727 0.5065791 
-0.8514475 0.18173228 0.49194583 
-0.5855688 0.5577809 0.58820885 
-0.32596946 0.92523605 0.19411922 
-0.25760543 0.95605206 0.14001435 
-0.13566823 0.93019485 -0.3410743 
-0.6076767 0.21668804 -0.7640519 
-0.16834815 -0.34861022 -0.9220249 
0.6855981 -0.45333692 -0.5695972 
0.67258775 -0.014231249 -0.73988056 
0.8812933 0.15722579 -0.4456482 
0.63606834 0.35157624 -0.68688524 
0.85821044 -0.10222577 -0.50301576 
0.8662309 -0.22877993 -0.44418877 
0.96653014 0.18833274 0.17421372 
0.8382023 -0.5102872 0.19241647 
0.74949604 -0.5015042 0.4321449 
0.5989607 -0.7694552 0.22177696 
0.5126186 -0.36278424 0.7782094 
0.69556296 -0.5427849 0.4707194 
0.59135205 0.41899273 0.68901956 
-0.08800663 0.04778874 0.99497294 
0.4043501 -0.14748573 0.9026345 
0.30772346 -0.06370042 0.9493411 
-0.73364705 -0.3262948 0.59606516 
-0.75719935 0.20182255 0.6212221 
-0.5230001 0.7658407 0.3741109 
0.32157025 0.93651545 0.13975516 
0.18139687 0.8325299 0.52343976 
0.05130014 0.21237268 0.9758413 
-0.3649799 0.33816236 0.8674306 
-0.50877935 -0.76073205 0.4030265 
-0.34322947 -0.124752566 0.9309299 
-0.28783605 -0.2590131 0.9219884 
-0.47081628 0.39706442 0.7878274 
-0.611933 0.34886116 0.7098126 
-0.06804828 0.98384434 0.16558921 
0.2202568 0.8746574 0.43181184 
-0.0031035356 0.69505554 0.71894944 
-0.54036665 0.18740332 0.82029504 
-0.18107505 0.50583804 0.84340966 
0.2573601 0.12643173 0.95800877 
0.09138924 0.11576062 0.989064 
-0.028540732 -0.20029268 0.9793203 
0.07342078 -0.9728948 0.21928376 
0.6224805 -0.17096159 0.7637344 
0.62235403 -0.14297964 0.7695664 
-0.018697105 -0.12247191 0.9922959 
-0.5861077 0.20169513 0.78472733 
-0.13293302 -0.07304202 0.98842996 
-0.4175359 0.17611445 0.8914301 
0.14275321 0.004295862 0.9897491 
0.59514695 0.4188865 0.68580914 
0.58700514 0.3072346 0.7490207 
-0.09882725 0.46685562 0.8787942 
-0.24072336 0.20888518 0.9478498 
-0.29893973 0.287701 0.90986997 
-0.6734282 0.64645696 0.35859156 
-0.53686327 0.7729903 0.33802938 
-0.4050436 0.4309155 0.8063817 
-0.88510215 0.22661586 0.40649658 
-0.8120285 0.33308634 0.47923198 
-0.9939238 -0.05304824 0.09644377 
-0.8655104 0.2885266 -0.4094437 
-0.67680496 0.650904 -0.34388804 
-0.34595788 0.239828 -0.9070809 
0.59067494 -0.2784066 -0.75735915 
0.69273245 0.30398744 -0.653998 
0.7830403 0.5827762 -0.21730147 
0.8623844 -0.342981 0.3723671 
0.84442365 0.09614921 0.52697647 
0.96094394 0.2593205 0.096642785 
0.92047375 0.16121809 -0.35600108 
0.7028518 0.14605235 0.6961811 
0.6486121 0.36418098 0.66833717 
0.47289163 0.78368425 -0.40275633 
-0.2609442 0.9647398 0.034429245 
-0.6417724 0.7599708 0.102823384 
-0.34216043 0.79072624 -0.50762045 
0.14609648 0.6617054 -0.73539233 
0.81987756 0.40710986 -0.40256977 
0.31557447 0.6505534 -0.6907916 
0.6344369 0.3745415 0.6761719 
0.5540548 0.067021325 0.8297781 
0.3525875 0.80273867 0.480929 
0.77869505 0.035007365 0.62642527 
0.9726965 0.10226103 0.20833719 
0.669839 0.016920922 0.7423135 
0.6775602 0.12587537 0.7246155 
-0.5081413 -0.40291172 0.7612192 
0.51142335 0.2234823 0.8297602 
0.22241026 -0.09544822 0.9702697 
-0.262072 0.9166535 0.3017691 
0.4755539 0.77872384 0.40919158 
0.3666596 0.29890445 0.8810318 
-0.23198244 0.10155884 0.96740377 
-0.39119864 0.16678907 0.90506643 
-0.37711427 0.67211115 0.63722163 
-0.5933015 0.5396498 0.59730357 
-0.4531632 0.8749259 0.17072764 
-0.70942765 0.69585085 0.1118216 
-0.960634 0.27775684 0.0057958746 
-0.9020945 0.3147526 0.29522285 
-0.8052344 0.57268196 0.15373063 
-0.58800507 0.79909277 -0.1253033 
-0.48999617 0.8697684 0.058368575 
-0.15199137 0.93968016 -0.306431 
-0.6394122 0.7669323 -0.054469537 
-0.31242678 0.9400999 0.1363882 
-0.25003907 0.94380367 0.21613716 
-0.26190063 0.90772593 -0.32778314 
-0.18996124 0.7609529 0.6203753 
0.43024758 0.8403089 0.32979992 
0.27110776 0.84081566 0.46853986 
0.8581142 0.4000068 0.32192343 
0.28101146 0.42076507 0.86254823 
0.5481851 0.54118466 0.6376616 
0.061460733 0.53578913 0.8421121 
0.5772801 0.7413354 0.3423002 
0.39580855 0.55889183 0.7286807 
0.40688288 0.19840641 0.8916733 
-0.011940304 0.8309589 0.55620575 
0.055716638 0.5216236 0.8513546 
-0.38134333 0.60984194 0.6947446 
-0.78459674 0.5990748 0.15974143 
-0.340245 0.71067077 0.6157763 
-0.9474205 0.3188894 -0.026532773 
-0.87146544 -0.16298822 0.46258304 
-0.982718 -0.060917445 -0.17479855 
-0.93911797 0.12996057 -0.31806865 
-0.79489714 -0.12139899 -0.5944754 
-0.7127012 -0.44688883 -0.5406916 
-0.46227655 -0.45399198 -0.7617031 
-0.9441733 -0.32461646 -0.05622373 
-0.5660825 0.47143093 -0.67624223 
-0.48119393 -0.026418867 -0.87621605 
0.25373217 0.1677699 -0.95261395 
0.5337529 0.56192386 -0.63194096 
0.2706549 0.819268 -0.50551564 
0.9621537 0.25988334 -0.08198173 
0.7135248 0.65090597 -0.2592369 
0.9518328 0.018975623 0.3060299 
0.31497362 0.90800977 0.27624252 
0.5139174 0.8503446 -0.11315066 
0.065156385 0.6404351 -0.76524353 
0.30132532 0.22576758 -0.92640823 
0.802619 0.39448243 -0.44742218 
0.9044074 0.37606034 0.2015586 
0.6687553 0.37378588 0.6426901 
0.8983242 0.41825062 -0.13446221 
0.9426015 0.12851411 -0.3081991 
0.49153626 0.7243931 -0.48337018 
0.7031789 0.55346006 -0.44634232 
0.788482 0.6150531 -0.0024285452 
0.21653391 -0.114879176 0.9694926 
0.8210897 0.53624976 -0.19557123 
0.82469416 0.5647884 -0.02989511 
0.17458734 0.77830315 0.603128 
-0.21892786 -0.08429451 0.9720931 
0.11073151 0.2993095 0.947709 
-0.09682968 0.781904 0.61583287 
-0.30008495 0.88593566 0.35364836 
-0.15497655 0.4825882 0.8620273 
0.39289588 0.359665 0.8463297 
0.35350496 0.41810384 0.8367936 
0.45705524 0.36153495 0.81264573 
0.36529762 0.7673893 0.5269454 
0.34613752 0.8753135 0.33766142 
-0.82866395 0.39622116 0.3953797 
-0.2391233 0.4188119 0.8760233 
0.08579047 0.044349443 0.9953256 
-0.1993115 0.67032856 0.71479696 
0.10940363 0.7416103 0.6618498 
0.44117495 0.87917626 0.18003848 
0.23631832 0.33959734 0.91039956 
0.18274884 0.5396938 0.82178676 
-0.08980158 0.6336365 0.7684013 
0.3872297 0.8152064 0.43068743 
-0.026827047 0.9993834 0.022653865 
0.12822776 0.96633554 0.22305451 
0.76329315 0.60088295 -0.23732509 
0.46163657 0.50017667 -0.73260844 
0.4688358 0.5825309 -0.663966 
0.61815107 0.78198546 -0.07992611 
-0.26740834 0.28904146 -0.9192105 
0.102030754 -0.62423915 -0.774542 
0.44480932 -0.22791827 -0.8661397 
0.97941107 0.200711 0.021657925 
0.65907663 0.3837787 0.64678586 
0.12357116 0.28917953 0.9492658 
0.4981901 0.21287239 0.8405309 
0.85003304 0.09141361 0.5187364 
0.8113209 0.21441914 0.54385936 
0.68242264 0.45680034 0.5706425 
0.5237354 0.6423822 0.55950546 
0.3043986 0.7791112 0.54802144 
0.38983306 0.8168827 0.42512673 
0.48724192 0.7662968 0.41878945 
-0.33413202 0.9332552 -0.13187324 
-0.2130004 0.9682768 -0.13065633 
-0.46849242 0.84187376 0.26788703 
-0.9121939 0.3422222 0.22535849 
-0.5401378 0.69839686 0.4695669 
-0.030412156 0.698435 0.7150271 
-0.047580913 0.9919133 -0.117661305 
-0.47903642 0.86232364 0.16407904 
-0.108521596 0.99402213 0.011966045 
0.8594874 0.50523174 -0.077604465 
0.81413347 0.009697423 0.58059686 
0.45718172 0.530374 0.71392465 
0.5640855 0.60253537 0.56458724 
0.12262186 0.81137073 0.5715255 
0.095129326 0.7316425 0.67501837 
0.26539803 0.8970246 0.35342726 
0.38670328 0.8760372 0.28813115 
-0.24685603 0.9660809 -0.075827666 
0.42282534 -0.022521906 -0.9059314 
0.6491684 0.62276953 -0.43673632 
0.7670994 0.5047695 -0.39593726 
0.38160643 0.9177494 -0.11005754 
-0.18641444 0.97353303 -0.1322243 
0.22512512 0.6523784 -0.72368586 
0.30055496 0.92850816 -0.21803539 
-0.40824172 0.90880895 -0.086052775 
0.5366882 0.7798051 -0.32228824 
-0.2045926 0.8154411 -0.5414775 
0.71439016 0.35547987 -0.60272783 
0.7346421 0.15303452 0.6609701 
0.24314895 0.888289 0.3896426 
-0.21063681 0.6564853 0.72433364 
0.103011906 0.87995255 0.4637587 
0.098824605 0.5110084 0.853876 
0.20318122 0.77037233 0.60435414 
0.0777084 0.8907837 0.44773415 
0.49077153 0.86691004 0.08723678 
0.17703383 0.45821851 0.871031 
0.6455781 0.64091593 0.415278 
0.22359149 0.18845561 0.95629036 
-0.2649503 -0.9343642 0.23825417 
-0.24118535 -0.82259023 0.5149515 
-0.30533582 -0.85419893 -0.42084956 
-0.1025336 -0.96410316 0.24493283 
0.37395656 -0.7782888 0.5044039 
0.77558357 -0.62191296 0.108140886 
0.6580257 -0.73771214 0.15094037 
0.5107602 -0.7090029 0.48625 
-0.10005644 0.19102234 0.97647285 
-0.01512443 0.434228 0.90067613 
-0.530604 0.3632447 0.76584125 
-0.21696886 0.8270142 0.5186252 
0.18887615 0.68371975 0.70487815 
0.2011241 0.3533994 0.9135963 
-0.106547244 0.73170465 0.673243 
0.2572768 0.91722417 -0.3041521 
0.30659622 0.54198974 0.7824614 
-0.058366805 -0.05012773 -0.99703586 
-0.9702659 0.09155228 0.22405866 
-0.92551124 0.11444531 0.3610142 
-0.7308506 0.5979343 0.3291385 
-0.63847905 0.76950014 -0.014634584 
-0.8153689 0.5678847 0.11260861 
-0.5160559 0.85629857 -0.020954017 
-0.52428937 0.8511955 0.024228824 
-0.09769891 0.3305724 -0.9387103 
0.35569614 -0.40982324 -0.8399555 
0.4032116 -0.5954961 -0.6948416 
0.45756194 0.26505053 -0.8487551 
0.46248147 0.2801711 -0.84119856 
0.44735265 -0.09148241 -0.88966656 
0.5108859 0.2869693 -0.8103359 
0.7313762 -0.052965533 -0.67991436 
0.9285831 -0.29471105 -0.22556369 
0.83602005 -0.5233127 -0.16496773 
0.75221807 -0.6492551 -0.112409055 
0.85992163 -0.44934428 0.24212517 
0.4986295 0.112224236 0.8595199 
0.6135752 0.21024762 0.76113164 
0.67963564 -0.27578145 0.67973524 
0.013148869 -0.07752796 0.99690354 
-0.71600944 -0.18476076 0.67319685 
-0.087618686 0.5108141 0.8552146 
-0.84241974 0.4636618 0.27449384 
-0.8908751 0.2068313 0.40442854 
-0.41294888 -0.35124263 0.8402987 
-0.14766605 0.62453204 0.76691234 
0.34567496 0.6732579 0.65363044 
-0.81041056 0.47521287 0.34264785 
-0.6975088 -0.031211324 0.7158962 
-0.68538105 -0.30887204 0.65943223 
-0.6835161 -0.17065099 0.7097071 
-0.015681121 -0.6579471 0.75290084 
-0.054216765 -0.039610296 0.9977433 
0.47369456 0.35637912 0.8053616 
0.078267455 0.023732238 0.9966499 
-0.462069 -0.41972527 0.7812317 
-0.29625025 -0.31404805 0.9020031 
-0.27769336 -0.42670885 0.8607009 
0.12191683 -0.69764096 0.7059982 
0.28412497 -0.056691766 0.9571098 
0.79069996 -0.37310037 0.4853758 
0.36608267 -0.7751945 0.5148368 
0.9766889 -0.21405414 -0.016112486 
0.9792798 0.19979629 0.033053692 
0.93704313 -0.25270456 0.2410198 
0.39212215 -0.79011625 0.47112283 
0.13359812 -0.2586876 0.9566778 