# OOMMF: rectangular mesh v1.0
# Segment count: 1
# Begin: Segment
# Begin: Header
# Desc: Time (s) :  2.559999999999996e-07
# Title: m
# meshtype: rectangular
# meshunit: m
# xbase: 2e-09
# ybase: 2e-09
# zbase: 5e-10
# xstepsize: 4e-09
# ystepsize: 4e-09
# zstepsize: 1e-09
# xmin: 0
# ymin: 0
# zmin: 0
# xmax: 1.024e-06
# ymax: 1.024e-06
# zmax: 1e-09
# xnodes: 256
# ynodes: 256
# znodes: 1
# ValueRangeMinMag: 1e-08
# ValueRangeMaxMag: 1
# valueunit: 
# valuemultiplier: 1
# End: Header
# Begin: Data Text
-0.44331095 0.33178464 0.83270305 
-0.43648562 0.5082592 0.7423968 
0.569769 0.63290536 0.52420807 
-0.111340545 0.91637504 0.38452587 
-0.03678407 0.7653458 -0.6425673 
-0.11341926 0.26204026 -0.9583689 
0.18860964 0.37970427 -0.9056772 
0.095113404 0.920346 -0.3793636 
0.45622066 0.49933636 -0.7365637 
0.63378596 0.5258084 -0.5673102 
0.86136544 0.07226261 0.5028198 
0.7089627 -0.2024617 0.67556 
0.18382499 0.14940968 0.97153753 
-0.1397078 0.23615828 0.96161896 
-0.32588872 0.12970887 0.93646795 
-0.4538414 0.0494269 0.88971066 
0.86417615 -0.16355984 0.47586516 
0.23308946 0.8438083 0.48338065 
0.63305044 0.7452608 0.20936495 
-0.024650937 0.99894017 -0.038869318 
0.61008495 0.43536225 0.66200924 
-0.25283864 0.7241447 0.64162844 
-0.46184084 0.2494327 0.8511676 
-0.9095334 -0.13953392 0.39150903 
-0.75218093 0.53907984 0.37896812 
-0.82996225 0.4345712 0.34972945 
-0.674326 0.7382936 0.014390289 
-0.70758164 0.16933976 -0.68604106 
-0.763848 -0.01945571 -0.6451029 
-0.6477195 -0.5486378 -0.528636 
-0.16700527 -0.67466545 -0.71898246 
0.27876562 -0.33736828 -0.89915097 
0.1211484 0.4973349 -0.85905826 
0.09314452 -0.18245064 -0.97879314 
0.23729531 0.5858805 -0.7748774 
0.33166018 0.86675996 -0.37246296 
-0.6663869 0.6250176 0.4065484 
-0.90731615 -0.4203615 -0.0085916305 
-0.7821219 0.15668067 -0.6031058 
-0.084244855 0.20117746 -0.9759255 
0.51941353 -0.10916172 -0.84752196 
0.979752 0.009469574 -0.19999114 
0.858469 -0.50592667 -0.08407939 
0.969516 -0.1269269 -0.20959081 
0.57998574 0.21025077 -0.7870268 
0.7497757 -0.29253474 -0.59351486 
0.73822886 0.487223 -0.46651033 
0.42011103 0.85130256 0.31431016 
0.38111442 -0.18762824 0.90528864 
-0.07171621 0.3809262 0.92182 
-0.03219194 0.16038409 0.9865296 
0.07123918 0.04150894 0.9965952 
0.06334157 0.42483667 0.9030514 
-0.35312793 0.5254019 0.77411467 
-0.5132943 -0.009894442 0.85815567 
-0.81202376 -0.023797244 0.58313906 
-0.7013208 -0.3668378 0.6112113 
-0.89027345 0.2702236 0.36659583 
-0.9623114 -0.26899815 0.03996173 
-0.6579414 -0.7457374 0.10482855 
-0.034868892 -0.479014 -0.8771145 
-0.82397276 -0.20503415 -0.5282328 
0.28697878 0.11957067 -0.9504452 
0.42081088 0.10377973 -0.9011926 
0.44613826 0.603573 -0.6608027 
0.5506258 0.82426673 -0.13189246 
0.20123467 0.9041236 -0.37691545 
0.44871417 0.44863957 0.7729024 
0.08613349 0.7444478 0.6621016 
-0.3242062 0.04697121 0.94481957 
0.37369096 0.44234663 0.815282 
0.017474942 0.84134024 0.5402234 
0.5311129 0.6527498 0.5402192 
0.15675777 -0.114278466 0.98100334 
-0.31482422 -0.54272884 0.7786727 
-0.14956574 0.17672136 0.9728308 
-0.7745608 0.42542616 0.46804714 
-0.17870708 0.5810741 0.7939878 
-0.3479309 -0.017538583 0.9373561 
-0.5763622 -0.2584464 0.7752498 
0.49948645 0.025927644 0.8659336 
0.014532401 -0.5905988 0.80683446 
0.16847317 -0.9634765 0.20815824 
-0.25227132 -0.61256725 0.7490799 
0.06800527 -0.3687533 0.9270363 
-0.16233814 0.28261116 0.9453979 
-0.11734276 0.98416954 0.13282013 
-0.4066893 0.14939465 0.90126866 
-0.90628475 0.114829876 0.40677044 
-0.5899184 -0.07834725 0.803653 
-0.82418436 0.16766855 0.540932 
-0.23269421 0.34761995 -0.9083027 
-0.24020748 0.5052863 -0.8288464 
0.5560264 0.61024535 -0.5643007 
0.5464253 0.59677905 -0.5876004 
-0.031852145 0.5015465 0.86454415 
0.98901385 0.14370175 0.03466138 
0.8472541 0.5006234 -0.17758605 
0.40245336 0.40722618 -0.8198769 
0.37025377 0.6913607 -0.6204294 
0.7897589 0.40590203 -0.4599178 
0.89698863 -0.18723314 0.400444 
0.5938186 -0.31480145 0.7404591 
0.8958876 -0.23172283 -0.3790648 
0.38390484 0.4166176 -0.82404304 
0.81380093 0.50750345 -0.28314012 
0.5913552 0.7499773 0.29636666 
0.21842395 0.92999053 0.2956496 
0.2436777 0.6267888 0.7401061 
-0.33858362 0.935725 -0.098893456 
-0.67273116 0.51729333 0.5289995 
-0.410945 -0.6275373 0.6613026 
-0.44332242 -0.4205301 0.7915932 
-0.46955234 -0.88197 0.040616278 
-0.8656415 -0.12533669 0.48472226 
-0.8642638 0.48000228 -0.15048611 
-0.52912915 0.67923725 0.50858545 
-0.8421081 0.18107279 0.5080028 
-0.68484646 0.28625068 0.6701089 
-0.9937996 0.10977799 -0.017637078 
-0.5199723 -0.45274028 -0.7243307 
-0.9803155 0.19150794 -0.0480241 
-0.9105738 0.39985147 -0.10475782 
-0.7510052 0.34018442 0.5659203 
-0.50697196 0.6928777 -0.5127377 
-0.27390203 0.96082884 -0.042258732 
0.50910515 0.5106791 -0.69283396 
0.049517013 0.70024145 -0.7121869 
0.22061856 0.80970556 -0.5437871 
0.35784507 -0.19411604 -0.91338164 
0.65508467 -0.17787004 -0.7343204 
0.6817688 0.61958814 0.3889755 
-0.07210654 0.6481713 0.75807303 
-0.19154349 0.95673925 0.21900012 
-0.23344624 -0.6378706 0.7339101 
0.1950474 -0.028995616 0.98036516 
-0.20829193 -0.19497624 0.9584356 
-0.29783803 0.7102101 0.63788265 
-0.06356456 0.20785992 0.9760911 
-0.39276084 0.88945144 -0.23369904 
0.047396947 0.45822257 0.8875729 
0.13847093 0.51928383 0.8433091 
0.4941773 0.3954467 0.77421623 
0.11171746 -0.09978686 0.9887173 
-0.8636263 -0.21421811 0.4563554 
-0.8382963 -0.19712493 0.5083318 
-0.92496765 0.30015528 -0.23311333 
-0.7802016 -0.23548242 -0.5795115 
0.4373052 -0.6593917 -0.6115283 
0.08007446 -0.8179051 -0.56975377 
0.5209301 -0.706928 -0.478419 
0.5117655 -0.8362034 0.19712967 
0.72563946 -0.6857015 0.05710453 
0.5756137 0.7891742 0.21418023 
0.778142 0.28963247 0.5573224 
0.32260484 0.65938175 0.67907435 
0.44609386 0.60577714 0.6588128 
0.5382448 0.8317872 0.13573009 
0.2612427 0.65236306 0.71145964 
0.22687751 0.75335866 0.6172336 
0.13074191 0.98899275 0.06928206 
0.24377745 0.96982384 -0.003792953 
0.5143882 0.82330716 -0.239938 
0.8522543 0.25302386 0.4578666 
-0.22241102 0.26334575 0.9387132 
0.0140599515 0.8953534 0.4451344 
0.22598204 0.6513072 -0.72438323 
0.22637044 0.9228187 -0.31170848 
0.37576675 0.9029067 -0.20870768 
0.18744087 0.69831574 0.69081193 
-0.11241976 0.9666618 0.23005827 
0.3237801 0.9241986 0.20254226 
-0.30151117 0.3654947 0.8806274 
-0.5051661 0.67367923 0.5394104 
0.12226624 0.9923714 -0.015816633 
-0.005745541 0.9236383 0.38322216 
-0.23100388 0.95194405 0.20109671 
-0.25378078 0.8094258 0.52955186 
0.03467869 0.56247866 0.82608426 
-0.06351961 0.8664723 0.49516773 
-0.10704281 0.28404495 0.95281714 
0.3166502 0.79870224 0.5116713 
-0.25270382 0.96748936 0.010254208 
0.07092431 0.9560489 -0.28449988 
-0.48546785 0.8409997 0.23883185 
-0.8539892 0.50962794 -0.104794614 
-0.1852466 0.032426823 -0.982157 
0.18734156 0.17621346 -0.9663602 
0.2743374 0.533109 -0.8003335 
0.8187544 0.56485176 -0.10287812 
0.20931034 0.9101587 -0.3574917 
0.16706248 0.20989172 -0.9633461 
-0.34264764 0.8814813 -0.32493585 
-0.5606413 0.41212282 -0.71821743 
0.21372025 0.34606773 -0.91354305 
0.827875 0.30292124 -0.47208235 
0.40766004 0.045022342 0.91202325 
0.9462858 -0.13943698 0.29172 
0.5457545 -0.29627144 0.7838209 
0.5154209 -0.8482376 0.12179655 
0.75134563 -0.6240105 -0.21468711 
0.4773212 -0.63489246 0.6075163 
0.946086 -0.2048823 -0.2508874 
0.7708516 0.34625325 0.534693 
0.8540184 0.14848179 0.4986038 
0.5520145 0.43118513 0.7136942 
0.77461267 0.63241804 -0.0047682095 
0.16697402 0.39156583 0.90487343 
-0.743777 0.035725888 0.6674725 
-0.5538457 0.7224435 0.41392076 
-0.8074854 0.4528461 -0.37801823 
-0.84280103 0.53765297 -0.02481307 
-0.7032884 0.50437796 -0.50098735 
-0.108090706 0.2019258 -0.9734179 
-0.5699514 0.19730523 -0.7976378 
-0.30563393 0.51519215 -0.8007277 
0.7497165 0.32925722 -0.5740339 
0.7516673 0.3459633 -0.5615209 
0.8586996 0.4059928 -0.3127376 
0.09916888 0.6869258 0.7199295 
0.15739267 0.7118119 0.6845081 
-0.07749182 0.687603 0.72193986 
0.040238686 0.9809873 -0.18985493 
-0.6161604 0.38771367 -0.6855834 
0.30408394 0.30201793 -0.90350336 
0.10403725 0.9898643 -0.09666941 
-0.121861815 0.18813646 -0.9745535 
0.6781628 -0.3983606 -0.6175792 
0.23794796 0.16670796 -0.95686424 
0.24887529 0.68008214 -0.6896009 
-0.6340145 0.4599441 0.6216728 
-0.31027514 0.9279406 -0.20653214 
-0.43169072 0.9011825 -0.038901288 
-0.91871506 0.27300516 -0.28536087 
-0.6496637 0.6135523 -0.4488773 
0.013406641 0.6381422 -0.76980186 
0.29694924 -0.08634352 -0.9509816 
0.09549672 0.5150168 -0.851844 
-0.0025623152 0.40357858 -0.9149415 
-0.45056844 0.8062135 -0.38341632 
-0.8966 0.4391636 0.05695512 
-0.5724221 0.6017642 -0.5569675 
0.012777617 0.6692805 -0.7429 
-0.45523492 -0.22467731 -0.86155754 
-0.75005436 -0.0810248 -0.6563943 
0.08978429 0.70475805 -0.7037435 
0.04109099 0.21420358 -0.97592443 
0.46052718 0.19120818 -0.86680686 
0.5320471 0.8059551 -0.25954217 
0.48121157 0.81900275 -0.31252196 
0.020557903 0.52384317 -0.8515666 
0.6393728 0.70355785 -0.31017545 
0.23991224 0.8147724 0.5278143 
-0.23707505 0.19153365 0.95242333 
-0.08368779 0.63422376 0.7686069 
-0.36078474 0.605046 0.70975614 
0.17226218 0.4953335 0.8514521 
0.218774 0.04448035 0.97476125 
0.81418955 0.053136542 0.57816267 
0.27229264 0.008208657 0.96217954 
-0.3381343 0.7306409 0.5931519 
-0.012024 0.71790165 -0.6960407 
-0.020387445 0.98641545 -0.16300026 
0.2949548 0.66655433 -0.6846218 
0.88325804 0.32482955 -0.33814344 
0.90124726 0.40840906 -0.14475968 
0.76705927 0.57771987 0.27903387 
0.4353355 -0.12948103 0.89090836 
-0.42772552 -0.14222924 0.8926488 
0.14402094 -0.20077717 0.96899253 
-0.5203018 0.641646 0.56353927 
-0.14521351 -0.46848503 0.87145567 
0.6876712 -0.4251656 0.5885088 
0.21659192 0.12120688 0.9687089 
0.6656764 0.3069925 0.68016946 
0.39510724 0.6087554 0.6879733 
0.118641704 0.48397708 0.86700076 
-0.11308604 0.20233874 0.97276443 
-0.20203127 -0.16959341 0.96458364 
-0.5851664 -0.27844453 0.76160944 
-0.8474512 0.5205691 0.104087755 
-0.463277 0.78797144 -0.4055558 
-0.72384715 0.6895151 -0.024784554 
0.008951897 0.7315818 -0.681695 
-0.5338925 0.60415846 0.591567 
-0.9846154 0.09470529 -0.14684519 
-0.5010419 -0.1399573 -0.854031 
0.5801416 0.19539261 -0.7907322 
-0.07345121 0.51447904 -0.8543514 
0.41289252 0.7917548 -0.45016006 
0.44363278 0.7875304 -0.42776835 
-0.10590068 0.83022165 -0.5472816 
-0.5662182 0.8215243 0.06704472 
-0.9431164 0.17745301 0.28114393 
-0.4366317 0.6368149 -0.63546807 
-0.117404714 0.8851493 -0.45025212 
0.50463307 0.20758313 -0.8380065 
0.65015435 0.72362286 -0.23166648 
0.7747361 -0.17205961 -0.6084238 
0.62858385 0.6875326 -0.36356747 
0.70027184 0.52407384 0.48473284 
0.2443242 0.9633052 -0.11112544 
0.65524495 0.73274326 0.18368846 
0.21863751 0.6925172 0.6874719 
0.21085426 0.58341545 0.78432584 
0.017453663 0.31635967 0.9484788 
0.046185944 -0.0090535255 0.9988919 
-0.46090338 -0.58987087 0.6630389 
-0.034357157 -0.058348276 0.997705 
-0.5225009 0.06343093 0.8502761 
-0.33459476 -0.4862335 0.80723196 
-0.77515644 0.3682223 0.5133664 
-0.37676072 -0.33504584 0.86359465 
-0.84394634 -0.4759995 0.24734393 
-0.977967 -0.1595584 -0.13461693 
-0.66302776 -0.34770226 -0.66294605 
0.37182096 -0.21312268 -0.90350866 
-0.15585868 0.22922096 -0.96081525 
0.33480453 -0.13283394 -0.9328779 
0.47748375 0.3712777 -0.7963431 
0.8785793 0.4006172 0.26000845 
0.5785716 0.64777905 0.49561808 
-0.19821902 0.8468808 0.49345937 
0.104318134 -0.024241673 0.9942485 
0.46102732 0.6815565 0.56827337 
0.14535226 0.049055815 0.98816305 
0.60112935 -0.28694332 0.74586 
0.20814204 0.27401233 0.93893254 
-0.16797389 -0.445427 0.87942004 
0.03845777 -0.34050828 0.9394548 
0.21204756 -0.89161175 0.40008062 
-0.36328748 0.12624092 0.92308474 
-0.3951477 0.5920125 0.70240986 
-0.07175989 0.1858437 0.97995543 
-0.8680094 -0.35580286 0.34635836 
-0.122772634 -0.9173807 0.37860215 
0.7541369 0.11042545 0.6473667 
0.10177999 0.10824029 0.98890084 
-0.3120442 -0.4308994 0.8467314 
0.25913793 -0.44731125 0.8560142 
-0.33482492 0.18257053 0.9244243 
0.07954221 0.1428634 0.986541 
-0.0039782343 0.14763403 0.98903406 
-0.6201091 0.14703834 0.770613 
-0.2506054 -0.36077777 0.898352 
-0.38608444 -0.15853356 0.9087386 
-0.8554505 -0.034651756 0.5167241 
-0.7958874 0.60443205 -0.035005134 
0.18802051 0.94259644 -0.2759713 
0.36833683 0.92764336 0.06169165 
0.4771718 0.7540868 -0.45128733 
0.35108626 0.910925 0.21668924 
0.41927806 0.8491204 -0.32124847 
0.6022357 0.58133 -0.54714507 
0.17279214 0.8132677 -0.5556426 
0.6031509 0.5957934 -0.53032 
0.50416785 0.6278134 -0.59301364 
0.85322046 0.47542927 -0.21443403 
0.99749637 -0.006768506 0.07039302 
0.9286714 -0.1668823 0.33123964 
0.917607 0.39358187 0.055594668 
0.49282053 0.8258599 -0.27401334 
0.57662547 0.36786556 0.7295054 
0.3932376 0.2823666 0.87500477 
0.2484445 -0.008868447 0.96860564 
-0.41493562 0.892206 0.17831664 
-0.43456268 0.29225737 0.8519043 
-0.5933378 0.08890464 0.800029 
-0.4725357 -0.11045733 0.8743622 
-0.9544272 -0.167965 0.24669157 
-0.35932925 0.17339021 0.91696155 
-0.36297944 0.49738178 0.7879451 
-0.09789944 0.9552989 0.27896217 
-0.34717813 0.39749968 0.8493889 
-0.90655345 -0.252065 0.33856183 
-0.95849645 0.24782597 -0.14094955 
-0.9636779 0.14258559 -0.22581935 
-0.8788081 -0.40535328 -0.2517639 
-0.84975415 -0.07554638 -0.5217382 
-0.6444956 0.105911344 -0.75723726 
-0.7641995 0.030504802 -0.64425826 
-0.2024613 0.9751087 -0.09040266 
0.5655791 0.7470989 -0.34923273 
0.5096968 0.8016983 -0.3122322 
0.7667437 0.44751787 -0.46025193 
-0.29368314 0.94779867 -0.12420904 
0.46462005 0.70747524 -0.5325477 
0.09652132 0.84168935 0.5312652 
-0.442746 0.7565002 0.48133528 
0.24448963 0.86925507 0.42967477 
0.5341236 0.49560213 0.68490195 
-0.043806963 -0.24303992 0.96902657 
-0.16165648 -0.00043338066 0.986847 
-0.76568043 -0.459801 0.44979626 
-0.32191586 -0.094854884 0.9420046 
-0.26370174 0.21417482 0.9405267 
0.183554 0.37181944 0.9099771 
0.046373427 0.54636973 0.83625937 
0.39117345 0.60710317 0.6916713 
0.30037132 0.7039602 0.64359707 
-0.4062365 0.16801073 0.89818954 
-0.8969326 0.13037832 0.42250863 
-0.9633873 0.26693085 0.025158655 
-0.32678947 -0.3673453 -0.8707848 
0.119993955 -0.85716677 -0.50086576 
-0.13819277 -0.5406504 -0.82981914 
0.5145173 -0.46816045 -0.7183995 
0.5944191 -0.8000962 0.08069705 
0.4237518 -0.6236389 0.6568934 
0.46642986 -0.07784241 0.8811265 
0.8222111 0.030303108 0.56837565 
-0.0038338972 0.55154914 0.8341336 
0.63582784 0.5818894 0.50707775 
0.68363726 0.25661236 0.6832205 
0.42677662 -0.15806904 0.8904358 
-0.37620422 0.4676502 0.79985857 
-0.04543578 0.9555567 0.29128537 
0.54397625 0.7739292 -0.32422778 
0.3242302 0.61095786 -0.7222225 
0.41879472 0.8935479 -0.16181274 
0.8677531 0.34405714 0.35864928 
0.19738811 0.9386988 -0.28263503 
0.8633521 0.46218583 -0.20250292 
0.8521151 0.50254476 -0.14611168 
0.65484095 0.74905324 0.100511625 
0.66428953 0.4748645 0.5772549 
0.24318166 0.77406704 0.58453643 
0.28981882 0.89053565 0.3506443 
0.3575954 0.7029279 0.6148316 
-0.083683394 0.78894526 0.60873854 
-0.22156903 0.11866761 0.9678973 
-0.018531527 0.5871927 0.809235 
-0.5250469 0.83992505 0.13730209 
-0.76926756 0.4978435 0.40047386 
-0.7323101 0.5581064 0.39017844 
-0.48918232 0.60766035 0.6256593 
-0.81552726 -0.0031524 0.57871014 
0.056022048 0.74434036 0.6654464 
0.058812644 0.684571 0.72656983 
-0.042429715 0.99603206 0.07823043 
-0.9424895 0.23021583 0.24231027 
-0.96763974 0.22249675 -0.11903226 
-0.7386945 0.41930288 -0.5277458 
-0.49404314 0.56020665 -0.6648985 
-0.33370045 0.9372164 -0.10133868 
0.2476791 0.9553991 -0.16083466 
0.628826 0.6166698 -0.47359937 
0.7869703 0.44652405 -0.42578647 
0.7198088 0.49404317 -0.48764393 
0.3967241 0.25575668 -0.88158876 
0.9757983 -0.02669282 -0.21703766 
0.2870336 -0.9574945 -0.028565686 
0.7169321 0.4895644 0.49632168 
0.6631863 -0.48755428 0.5678686 
0.7763946 -0.554969 0.2986985 
0.9343677 0.053993758 -0.35219565 
0.6164708 -0.77346224 -0.14737737 
0.4986954 -0.847316 0.18264315 
0.7801376 -0.61782205 -0.09839376 
0.80949277 -0.0618669 0.58386135 
0.63931495 -0.2533089 0.7260241 
0.15171342 -0.19948459 0.96808517 
0.54248816 0.14080861 0.8281785 
0.4590081 0.6473331 0.6084994 
-0.53417236 0.65192825 0.5381911 
-0.39829013 0.6632354 0.63362753 
-0.4792782 0.866676 -0.13843888 
-0.44684982 0.79796726 -0.4044421 
0.382164 0.8756562 -0.29525733 
-0.26452154 0.6023672 -0.7531149 
-0.024918707 0.7049798 -0.7087895 
0.07626231 0.47548082 -0.8764143 
0.92143846 0.38695696 -0.034866877 
0.80077374 0.4742711 0.36582562 
0.7336492 0.5316047 0.4232675 
0.9072499 0.1562204 0.39050314 
0.50271624 0.18037951 0.84542286 
-0.36079445 0.12200941 0.9246302 
-0.48332125 0.8494159 0.21188056 
-0.76704615 0.6004185 -0.22613694 
-0.36760542 0.60964596 -0.7022807 
-0.45859903 0.52878505 -0.71419424 
-0.30031982 0.78804445 -0.53739554 
-0.058435313 0.4214675 -0.9049589 
0.8102092 0.5109493 -0.28721398 
0.38847315 0.8565791 -0.33964804 
-0.12439054 0.86782426 0.481049 
-0.8706031 0.48997948 -0.04438915 
-0.32731086 0.9297656 -0.16853355 
-0.44002014 0.63083625 -0.6390837 
0.09090911 0.8118888 -0.5766906 
-0.103017166 0.5804751 -0.8077353 
-0.58894587 0.46727896 -0.6593885 
0.037447114 0.997873 -0.053359665 
0.017646391 0.76123756 -0.648233 
-0.34958366 0.86053234 0.37050694 
-0.2467047 0.9552249 -0.16334729 
-0.7604303 0.3605834 -0.5401162 
-0.2791636 0.58739656 -0.7596269 
-0.7422632 0.4872378 -0.46004868 
-0.8371346 0.052523345 -0.54446936 
-0.6181578 -0.07843761 -0.78213084 
-0.24399632 0.5618885 -0.7904095 
0.5809676 0.63333905 0.5112322 
0.30975977 0.9365482 0.16409312 
0.9536807 0.25485092 0.15982546 
0.20090172 0.9420134 0.2687922 
0.2933326 0.9354102 -0.19739226 
0.45730606 0.8622851 0.21756743 
0.52481395 -0.19260518 0.82914025 
0.17067239 0.27139556 0.94721454 
0.016512102 -0.12251538 0.99232924 
0.1780898 -0.40344283 0.89750654 
0.58148265 0.40774617 0.7040035 
0.26825735 0.61011213 0.7455208 
-0.4052864 0.5423136 0.73596126 
-0.29254737 0.76470304 0.5741476 
-0.59759456 0.77869135 -0.19110371 
-0.014611545 0.9997467 -0.0171244 
0.15191287 0.9723253 -0.17749926 
0.12663788 0.9901241 -0.060142394 
0.21189852 0.80678916 0.5515344 
0.37814522 0.7035523 0.60168135 
0.99195737 -0.07161557 -0.10436454 
0.4486308 -0.16749234 0.87788194 
0.4273422 -0.076101415 0.9008814 
-0.027151234 0.12662181 0.9915795 
0.49899584 -0.2177644 0.8387978 
0.4580045 -0.5861415 0.66833377 
0.6617684 -0.17482688 0.7290392 
0.6125329 0.14154562 0.7776685 
-0.060179353 -0.12803197 0.9899426 
0.26517975 0.37033662 0.89024186 
-0.68437034 -0.021546734 0.7288162 
-0.29696968 0.014999189 0.9547692 
0.028556991 0.18726064 0.9818951 
-0.2526108 0.15266582 0.95544803 
-0.45420924 0.31584793 0.8330271 
-0.47014886 0.57163477 0.6724535 
-0.401813 0.88730955 0.226336 
-0.61097765 0.5477907 0.571517 
-0.7456861 0.6605086 -0.087639645 
-0.14196005 0.5287197 -0.836841 
0.067107186 0.9748969 -0.2123036 
-0.6800951 0.7161086 -0.15703277 
-0.39023757 0.8601846 -0.32832485 
0.08057834 0.9967479 0.0008961735 
-0.21768959 0.97575784 0.022534339 
-0.8194425 0.37545797 -0.4330649 
0.27916 0.7514901 -0.5977727 
0.5267339 0.6243851 -0.5767969 
0.17494176 0.94733804 -0.26822776 
-0.28622296 0.81312484 -0.5068574 
0.6121608 0.53702193 -0.58040214 
0.975532 -0.21427704 -0.049221292 
0.7376695 0.6751581 0.0022810104 
0.88640547 0.012208781 -0.46274877 
0.71302956 0.5592186 -0.4229226 
0.90902704 0.39411035 0.1354513 
0.21017987 0.46263334 0.8612752 
-0.029865155 0.8594529 0.51034176 
-0.22225192 0.474234 0.851884 
-0.7943438 -0.50318325 0.3403302 
-0.904353 -0.4259167 0.02721157 
-0.18396 -0.2790575 0.942489 
-0.41806743 -0.10950821 0.9017914 
-0.5549763 -0.29898554 0.776279 
-0.5915002 -0.3825212 0.7097923 
-0.47525418 -0.82848614 0.29621652 
-0.9118327 -0.046782847 -0.4078879 
-0.9692133 -0.1711064 -0.17705455 
-0.3481365 -0.25010282 -0.9034654 
-0.43919578 -0.58071613 -0.68547493 
-0.21001984 -0.67001057 -0.71202356 
0.26915926 0.0056752143 -0.963079 
0.6424964 -0.18141069 -0.7445056 
0.95146394 -0.030618604 0.3062335 
0.3895346 0.57405645 0.72022367 
0.123812534 0.5315976 0.83789885 
0.20094258 -0.14582373 0.96868867 
-0.0330149 -0.09621237 0.99481314 
-0.43413326 0.28328517 0.85514796 
-0.46193346 -0.13232231 0.87698823 
-0.36336482 0.014943707 0.93152714 
-0.5499903 -0.1260794 0.8255997 
-0.23743783 -0.5375754 0.8090958 
-0.032247216 -0.33360198 0.94216233 
-0.32312855 -0.49907294 0.80406106 
-0.3137836 -0.041593764 0.9485831 
-0.51786023 -0.009918143 0.85540783 
-0.71022564 -0.043967627 0.7025998 
0.47557783 -0.31383905 0.8217851 
0.49780932 -0.8633111 0.08294434 
-0.40001714 0.20569725 0.8931265 
0.8130707 -0.27313426 0.5141144 
0.45947725 0.15563868 0.87444687 
0.07455098 0.058429956 0.99550396 
0.30439407 -0.24813548 0.91965926 
-0.0005549103 -0.064697646 0.99790484 
-0.32187578 0.15447769 0.9340946 
-0.80475134 0.034033794 0.59263563 
-0.3719686 -0.5932553 0.7139241 
-0.67886484 0.25716305 0.687757 
-0.34256095 0.25299382 0.9047907 
-0.41696894 0.7149672 0.56121194 
0.2024993 0.9545994 0.21848123 
-0.21250647 0.8955054 0.39103842 
-0.037582356 0.96339154 0.2654514 
-0.85840976 0.50943327 0.06008737 
0.7352022 0.52570224 -0.42791927 
0.5454204 0.57142967 -0.61317605 
0.9417646 0.13834009 0.30649903 
0.774908 0.45551154 -0.43820867 
0.8279952 0.17999946 -0.53105944 
0.97441506 -0.03144271 -0.22254603 
0.9256967 -0.035161484 0.3766291 
0.7918692 0.4784748 0.37948 
0.9105819 0.34815902 -0.22276884 
0.8072629 0.10344928 0.5810551 
0.9634817 -0.1720729 0.20516786 
0.45373902 0.23168682 0.86048955 
0.06294284 0.49743626 0.8652141 
0.113630764 0.3454043 0.9315492 
-0.07644591 0.5065907 0.85879105 
-0.07122624 0.47689316 0.8760707 
-0.30466527 0.20425563 0.9303004 
0.06603893 0.6041945 0.7940957 
-0.55060935 0.26978993 0.78996384 
-0.5054231 0.4720464 0.7223017 
-0.2949871 0.290216 0.91036105 
-0.43893826 0.5087973 0.74057984 
-0.8478895 0.3745103 0.3752675 
-0.9603061 0.2787767 -0.009789935 
-0.8856437 0.09217221 -0.45512587 
-0.6830409 0.30130154 -0.66533643 
-0.5419308 0.4084967 -0.7344669 
-0.24802697 -0.7403543 -0.6247865 
0.5967082 0.7550659 -0.27168894 
0.62090594 0.78387177 -0.0045572044 
0.7405861 0.5154201 0.4311315 
0.6037037 0.735514 -0.3075078 
0.48819005 0.64934134 0.58311784 
0.16131759 0.8303418 0.53339404 
0.46323547 0.87426895 -0.14514397 
-0.111506805 0.39728528 0.9108956 
0.50778353 0.19604172 0.8388823 
0.1786171 0.25526923 0.9502282 
0.65966076 0.15665725 0.73505527 
-0.13511103 -0.04899513 0.9896184 
-0.5269858 -0.51438195 0.6765332 
-0.0044720112 -0.5851788 0.81089205 
-0.48740393 -0.04889334 0.8718067 
-0.5360225 0.056720275 0.8422961 
-0.37065613 0.1844388 0.9102727 
-0.44519782 0.49354225 0.74713784 
0.0077228704 0.13303609 0.9910812 
-0.7771643 0.15355791 0.6102751 
-0.58390385 -0.46890622 0.662709 
-0.96292955 -0.26260787 0.061676275 
-0.59249073 -0.5841937 -0.5546823 
-0.58010393 -0.6855169 -0.4399387 
0.17609553 -0.20221445 -0.9633794 
0.38926604 -0.12128826 -0.9131053 
0.26342213 -0.9269897 -0.26701844 
0.88774383 -0.4578677 0.047624476 
0.45097923 -0.56970894 0.6870587 
0.96606064 -0.13189822 0.22210304 
0.66995585 -0.042486273 0.74118423 
0.2728645 0.06265421 0.9600102 
0.014718334 -0.3303216 0.9437537 
0.02200242 -0.4611662 0.8870409 
-0.29769424 -0.31606045 0.9008241 
-0.1876112 0.28204936 0.9408773 
0.37149772 0.67910904 0.63308805 
-0.09429262 0.92528504 0.36736432 
0.59746647 0.6085122 0.5222516 
-0.3435916 0.77473724 -0.53077954 
0.58041155 0.7812246 -0.22980519 
0.94403327 0.32633772 -0.048011187 
0.79915184 0.3809497 0.4650096 
0.63075525 -0.36529174 0.6846239 
0.65198576 -0.20093945 0.73112106 
-0.004242171 -0.0922428 0.99572754 
-0.17643785 0.4977119 0.8492071 
0.24045162 0.9113603 0.33407402 
0.33834705 0.31771186 0.8857655 
0.053311452 -0.30005696 0.9524304 
-0.24777007 -0.032269884 0.9682814 
-0.68001395 0.5194446 0.51745373 
-0.55930626 0.8084118 -0.18343143 
-0.602994 0.2908867 0.74282116 
-0.64474756 -0.03013993 0.7638013 
-0.7240048 -0.040449217 0.688608 
-0.14613947 0.15332343 0.97731024 
-0.58121157 0.49652097 0.6447171 
-0.672959 0.3107535 0.6712365 
-0.7615264 0.6323132 0.1423289 
-0.49908927 0.8285279 0.25387266 
-0.82685333 0.5147398 -0.22661996 
-0.3692854 0.9239619 -0.09961281 
-0.5901959 0.38406813 0.7100427 
-0.36690998 0.9174468 -0.15384576 
0.24520832 0.86822104 -0.43135262 
0.3015347 0.9413432 -0.15149218 
0.5757816 0.81382525 0.07851148 
0.33685687 0.27391064 -0.9008332 
0.96358776 -0.050367523 -0.2626058 
0.6608023 -0.7108017 0.24104206 
0.7834258 -0.1259687 0.6085852 
0.9106933 -0.41068435 -0.044454996 
0.8657413 0.49983856 0.025566343 
0.9932515 0.043668218 -0.10744606 
0.96854705 0.1826809 0.1689512 
0.5516477 -0.479584 0.6824104 
0.7302899 -0.3851 -0.564247 
0.7511466 -0.6504423 0.11271054 
0.46229687 0.027077708 0.8863117 
0.10707819 0.28133705 0.95361614 
0.06523302 0.094391055 0.99339575 
-0.18600659 0.660462 0.7274555 
-0.44192046 0.6705916 0.59582984 
-0.8450333 0.5346632 -0.007348755 
-0.8589599 0.42429808 0.28663418 
-0.8627787 0.4625324 -0.20414893 
-0.30475977 0.9243983 -0.22936718 
-0.11764111 0.61739576 -0.7778066 
-0.285114 0.930357 -0.23053415 
-0.08405997 0.99385154 0.072063245 
0.6363989 0.7466711 0.19359438 
0.83864826 0.12442678 0.5302708 
0.8277423 0.2976583 0.47564957 
0.3548429 0.6199938 0.6997816 
0.23612766 0.45842165 0.85679257 
-0.16709751 0.8446552 0.5085628 
-0.21276736 0.9737538 -0.08083079 
0.064632595 0.9950014 0.07612413 
-0.08684149 0.9940549 -0.06567664 
-0.009424144 0.98031807 -0.19719979 
-0.15534285 0.9666154 0.20377247 
0.013544698 0.97567827 -0.21878903 
0.21067983 0.9775516 0.0026674904 
0.097563654 0.7040143 0.70345235 
0.3420475 0.84309405 0.41496506 
-0.421923 0.3813232 0.82254094 
-0.7092608 0.6743889 -0.2053016 
-0.41035953 0.8858082 -0.2166768 
0.017640404 0.3992785 -0.9166601 
-0.29440996 0.79426384 -0.5314771 
-0.5664888 0.4078166 -0.71608394 
-0.80749565 0.44560233 -0.38650924 
-0.39551353 0.840765 -0.36970687 
-0.0111565795 0.9998598 -0.012489951 
0.45818675 0.8079215 0.37057754 
-0.9181129 0.26688457 -0.2929873 
0.0007416203 0.4373281 -0.89930177 
-0.065555386 0.82532746 -0.56083614 
-0.46146047 0.6468166 -0.60719234 
0.24859138 0.68998665 -0.67979467 
0.02954737 0.98221743 0.18540747 
0.6288217 0.7466559 0.21699838 
0.7078274 0.7057913 -0.028967245 
0.7263198 0.20563823 0.65587544 
0.6271424 0.122076295 0.76927876 
0.59791684 0.50694734 0.6208865 
0.48973566 0.6216228 0.6113462 
0.13459459 0.030338736 0.9904362 
-0.09422767 0.19364753 0.9765357 
-0.2987674 -0.5021664 0.8115215 
0.4585173 -0.42206168 0.7820651 
0.73182607 0.5014705 0.46147376 
0.31245583 0.8011604 0.5104053 
-0.12835126 0.92092085 0.36800918 
0.17537728 0.93166155 0.31819734 
-0.10194097 0.9931301 -0.057451982 
-0.12530743 0.98851717 -0.08445088 
0.1845185 0.88705635 0.42318323 
-0.30641603 0.78869665 0.53297925 
-0.10424391 0.7439964 0.660002 
0.5499439 0.72607154 0.41277337 
0.4078316 0.52289265 0.748503 
0.3521319 -0.13448988 0.9262374 
0.802355 0.17655893 0.5701345 
0.109141216 0.18674125 0.97632784 
0.14349857 -0.42573413 0.8933972 
0.79192996 -0.5423628 0.28051648 
0.8111418 -0.29703414 0.5038054 
0.22333671 0.4014929 0.8882142 
0.33354655 -0.08374859 0.9390064 
-0.22653478 0.2664596 0.9368465 
-0.5241872 0.34598163 0.7781546 
0.5003444 0.18779358 0.8452154 
0.29910865 0.026876038 0.95384055 
0.34561962 0.09908884 0.93312836 
0.00536662 -0.52223384 0.8527855 
-0.13961674 0.31691423 0.93812186 
-0.1143835 0.8776031 0.46554202 
-0.12177708 0.7370461 0.66478074 
-0.6018169 0.77810836 -0.17989974 
-0.21533433 0.937627 -0.27292258 
-0.6664965 0.6384881 0.38485765 
-0.3324914 0.90705884 0.25825152 
0.2073943 0.7933693 -0.57232237 
-0.054957647 0.9410297 -0.33383036 
-0.6034234 0.7921366 0.091650434 
-0.29588246 0.932223 0.20836003 
0.92806256 0.357111 -0.105696 
0.5242127 0.8387683 0.14720349 
0.7339956 0.6114606 -0.2955781 
0.1487626 0.9361768 -0.31850097 
-0.23673418 0.93346065 -0.2694588 
0.96906 -0.14826338 0.19733384 
0.35938755 0.42044494 0.83310664 
0.1845322 0.22528279 -0.95665854 
0.752829 0.6546504 -0.06842134 
0.9250111 0.019562744 0.37943614 
0.60689884 0.0030849124 0.79477316 
-0.16947725 0.62485963 0.7621207 
0.24789093 -0.03296898 0.96822685 
-0.32441926 -0.4051605 0.8547498 
-0.4907628 -0.3535635 0.79633206 
-0.28558478 -0.5921156 0.7535519 
-0.563505 -0.7318186 0.38328025 
-0.30928367 -0.76036453 0.57113004 
0.009471954 -0.865757 0.5003752 
-0.519029 -0.7624958 0.38627613 
-0.88639957 -0.19009967 0.42208767 
-0.79733074 -0.54591 -0.25738326 
-0.90851206 -0.27969593 -0.31044513 
-0.07496342 -0.050159346 -0.99592406 
-0.0936978 0.23177208 -0.9682472 
-0.43981674 0.47110698 -0.7646043 
0.6739649 0.37969965 -0.63371885 
0.8364561 0.274675 0.47423092 
-0.1801417 0.59266794 0.7850437 
-0.5821623 0.29566392 0.75741 
0.027200831 0.007916964 0.9995987 
-0.45225024 -0.09446504 0.8868744 
-0.35263923 -0.7161413 0.6023182 
-0.38797334 -0.8906044 0.23727734 
-0.12912606 -0.99089515 -0.038121264 
-0.18964392 -0.9017652 0.3884003 
-0.087225534 -0.797565 0.5968935 
0.103475116 -0.6431566 0.75871116 
-0.38327575 -0.80288374 0.45659342 
-0.2344585 -0.8805608 0.4118762 
-0.18747321 -0.7804026 0.5965111 
0.20400149 -0.06330498 0.9769217 
0.39564303 -0.36920747 0.8409236 
0.6520419 0.0026515438 0.75817835 
0.8240361 -0.35213983 0.443804 
0.29741985 -0.28640798 0.9107755 
-0.39368647 -0.26599342 0.8799196 
-0.12193591 -0.33678254 0.9336537 
-0.40477797 -0.45465887 0.79337275 
-0.5887986 -0.064118564 0.80573267 
-0.56528735 -0.07789098 0.8212085 
-0.21171613 0.51170427 0.83266747 
-0.4905115 -0.18310961 0.85197973 
-0.7868533 -0.10815014 -0.60759 
-0.8231239 0.5008606 -0.26759273 
-0.48538744 0.7267417 0.4860511 
0.13691549 0.92642593 0.3506983 
-0.20825559 0.37748483 0.9022943 
-0.17636079 0.68357307 0.70825475 
-0.33910415 0.8664068 0.36653477 
0.69597006 0.6937105 0.18544954 
0.43453708 0.8977694 0.072025545 