# OOMMF: rectangular mesh v1.0
# Segment count: 1
# Begin: Segment
# Begin: Header
# Desc: Time (s) :  2.6499999999999963e-07
# Title: m
# meshtype: rectangular
# meshunit: m
# xbase: 2e-09
# ybase: 2e-09
# zbase: 5e-10
# xstepsize: 4e-09
# ystepsize: 4e-09
# zstepsize: 1e-09
# xmin: 0
# ymin: 0
# zmin: 0
# xmax: 1.024e-06
# ymax: 1.024e-06
# zmax: 1e-09
# xnodes: 256
# ynodes: 256
# znodes: 1
# ValueRangeMinMag: 1e-08
# ValueRangeMaxMag: 1
# valueunit: 
# valuemultiplier: 1
# End: Header
# Begin: Data Text
0.35168934 0.6278918 0.6943101 
0.08660169 0.9265778 -0.36599696 
0.5299031 0.7051153 0.47118476 
0.5184215 0.5540927 -0.6513221 
0.702679 0.4867606 -0.51894736 
0.83208907 0.43139145 0.34861034 
-0.08769273 0.9206592 0.3803903 
-0.60171235 0.74596214 0.28545186 
-0.45092642 0.8022575 0.39121374 
-0.88788646 0.36613685 0.27857065 
-0.2540533 0.9097712 -0.3282886 
0.530841 0.7482042 -0.397993 
0.5600128 0.59078306 0.58082795 
0.20179686 0.651852 0.7310041 
-0.56222814 0.290243 0.7743763 
-0.6670257 0.57354283 -0.4755264 
-0.36597207 -0.031545836 -0.9300911 
-0.1214323 0.9101942 -0.3959807 
-0.13696358 0.8771871 -0.46019974 
0.3649905 0.89435303 0.25867862 
0.69459164 0.67314464 0.25380877 
0.5605909 0.82745105 -0.032598678 
0.18601662 0.9620991 0.19940716 
0.49175292 0.49124882 0.71892536 
0.5744444 0.64115417 0.50885665 
-0.21325643 0.8843515 0.4152639 
0.60653174 0.6325485 0.48166567 
0.06898675 0.5075665 0.85884637 
0.6778767 0.426709 0.5986674 
-0.45743874 0.8743833 0.1618758 
-0.33704126 0.9118459 -0.23439369 
0.03583205 0.8593894 0.5100646 
0.2769954 0.5311968 0.8006894 
0.18307245 0.5206518 0.83391017 
0.120367445 -0.14305086 0.9823687 
0.2241929 -0.971449 0.07761747 
0.85824394 -0.5059759 0.086056985 
0.9623117 0.26936784 -0.03737977 
0.63521916 0.70759153 0.30953333 
0.7313887 0.49299273 0.47119936 
0.3057531 0.34627104 0.88691115 
0.18077227 0.45449594 0.87221265 
-0.37540627 0.41013125 0.83118135 
-0.2634116 0.9585523 0.10859066 
-0.1356143 0.830546 0.5401871 
-0.32412258 0.76626295 -0.55478436 
0.4105215 0.55207664 -0.72572964 
0.6629294 0.63097143 -0.40298837 
0.619003 0.7039622 0.34824213 
-0.26441446 0.91221833 -0.31295797 
-0.0878008 0.7213265 -0.6870075 
-0.15626584 0.29061842 -0.9439926 
-0.52609366 -0.018733168 -0.85022026 
0.7201617 0.5703895 -0.39499766 
0.8365139 0.40976217 0.36378497 
0.6211922 0.75181323 -0.22112682 
0.26953954 0.44208562 -0.85551673 
-0.24449682 0.766886 -0.5933862 
-0.38559717 0.9143596 -0.1235365 
-0.3171993 0.94578975 -0.06975976 
-0.3440597 0.76061785 0.55053014 
-0.5865043 -0.0812439 0.8058612 
-0.048231173 0.58821136 0.8072677 
-0.17586422 0.7043221 0.6877516 
-0.14782707 0.25199986 0.9563698 
-0.9840145 -0.16519019 -0.06654055 
-0.72873354 -0.47401896 -0.49422017 
-0.0023034352 -0.3267024 -0.9451245 
0.4199332 -0.21689053 -0.8812574 
0.5768067 0.79108256 0.2036724 
0.9433027 0.32050475 0.08635327 
0.89377147 0.07388801 0.4423947 
0.4360887 -0.4530483 0.77754366 
0.03112467 -0.027611518 0.9991341 
-0.3130397 0.23791945 0.91945666 
-0.009127611 0.7125539 0.701558 
-0.7627463 0.6057265 0.22652504 
-0.87486243 0.12692195 0.46744695 
-0.44098085 0.64060014 -0.6286235 
-0.7781454 0.3996302 -0.48454684 
-0.37398893 0.18219022 -0.9093619 
-0.64495033 0.2200808 -0.7318495 
-0.251294 0.68077344 -0.68803996 
-0.9314825 0.36233056 -0.032509454 
-0.7607886 0.43787447 -0.479027 
0.00031434314 0.7756294 -0.63118863 
0.19202687 0.5481418 -0.8140432 
0.88225734 0.17969817 -0.43512145 
-0.24950527 0.28387028 -0.92583203 
-0.39976513 0.60282975 -0.6904956 
0.36420226 0.93019325 0.045797262 
0.83441806 0.5510997 0.005982966 
-0.0005154937 0.27057207 0.9626996 
-0.31789067 0.4065653 0.8565338 
-0.62659705 0.08926382 0.7742146 
-0.6565731 0.6905856 0.30332062 
-0.6395299 0.76352173 0.08964464 
-0.13515605 0.91412437 0.3822427 
-0.26753312 0.59344834 0.7591082 
-0.6881145 0.35330623 0.63377696 
-0.33578902 0.3973227 0.8540378 
-0.4966117 0.6874168 0.52993864 
-0.33609626 0.92055434 0.19904545 
-0.81621975 0.5762993 -0.040796787 
-0.9032478 -0.091745056 -0.41919717 
-0.5851713 0.38244072 -0.7150621 
-0.23860833 -0.36409843 -0.9002769 
-0.36449513 -0.49793583 -0.7868946 
0.7026854 -0.412197 -0.579937 
0.080243036 -0.4679683 -0.8800948 
0.2725567 0.22656289 -0.9350841 
0.7161708 0.40820152 -0.5661016 
0.3369146 0.9371889 -0.0903631 
0.5587607 0.29964992 0.7733023 
-0.563153 0.47582427 0.67561084 
-0.6055749 0.6534159 0.45423213 
-0.9601202 0.21696924 0.17633398 
-0.61159724 0.76091594 -0.21669286 
-0.42715734 0.90401965 -0.016889147 
-0.635149 0.7610059 -0.13212073 
-0.61201125 0.77272415 0.16834432 
-0.8685318 0.45633814 0.19341156 
-0.6048036 0.79200953 -0.08326826 
-0.6433157 0.39577782 -0.65536624 
-0.9762037 0.06427616 -0.2071109 
-0.19111636 -0.16932178 -0.96685296 
-0.27448502 -0.34644789 -0.8970128 
-0.19622262 -0.7915446 -0.5787521 
0.3138468 -0.93768334 -0.14916517 
-0.18313345 -0.77115095 -0.60974467 
-0.37969112 -0.7378688 -0.5580182 
-0.056687433 -0.024393016 -0.99809396 
0.7788319 0.33466053 -0.5304933 
0.74152786 -0.17836443 -0.6467786 
0.5067409 -0.58074576 -0.63714063 
0.7757903 -0.5623978 -0.28610903 
0.96577185 0.19440517 0.17173089 
0.95549643 0.20372857 0.21335708 
0.7967233 0.5707411 0.1987121 
0.6983689 -0.26940566 0.66309994 
0.008613341 -0.8079122 0.58923995 
0.14514513 0.2511786 0.95699644 
-0.08981201 0.13317081 0.98701537 
-0.6375031 0.54599077 0.5435843 
-0.27421448 0.66094553 0.6985396 
-0.84601384 -0.3632382 0.39028037 
-0.9516776 -0.10982326 -0.28679025 
-0.7350668 0.63679904 -0.2327313 
-0.19579484 0.9526765 -0.23253365 
-0.48457098 0.62509346 -0.6119225 
0.064513765 0.13022289 -0.9893837 
-0.73923403 -0.47434378 0.47804934 
-0.8789033 -0.44813624 0.16341048 
-0.95218897 0.19051027 -0.23883471 
-0.097579785 -0.59686136 -0.7963886 
0.2962769 -0.54607356 -0.78359663 
0.17268057 -0.06590731 -0.9827704 
0.1843198 -0.701432 -0.6884907 
0.3231923 0.62521875 -0.7103861 
0.85054237 0.3886519 -0.35429856 
0.9616694 0.19682856 -0.19092025 
0.9118252 0.30910861 0.2702347 
0.70496887 0.4355267 0.5597637 
0.64348847 0.4063302 0.64870524 
0.23732632 0.5562019 0.7964394 
-0.49718818 0.3119965 0.80960613 
-0.6175776 -0.17966817 0.76571363 
-0.079000816 -0.20632745 0.9752886 
-0.07181768 0.35784155 0.9310165 
0.09270217 -0.33386874 0.93805015 
-0.25628054 0.19326715 0.947084 
-0.46855357 0.6225911 0.62676793 
-0.03099067 0.3816542 0.92378557 
-0.18313015 0.29391313 0.93812495 
-0.6606322 0.47731277 0.57942873 
-0.67596805 0.028489595 0.7363801 
-0.24221633 -0.9460622 0.21516857 
-0.36125755 -0.5755471 0.7336474 
-0.9937298 -0.09763515 0.054484706 
-0.47865617 -0.16020669 -0.86326253 
-0.1955868 -0.3376476 -0.92072797 
0.6528494 -0.30242145 -0.69449914 
0.924543 -0.14549403 -0.3522097 
0.93389183 0.04578857 0.35461178 
0.5941799 -0.43762237 -0.67486066 
0.60478294 0.20801899 -0.768743 
0.8348571 0.13197365 -0.5344123 
0.66174316 -0.28603315 0.6930231 
0.09033132 0.21555942 0.97230375 
0.4446211 -0.29793745 0.84471613 
-0.007094792 -0.66356075 0.74808884 
0.145941 -0.57394457 0.8057847 
0.3061996 -0.8442253 0.43991542 
0.42983705 -0.5768614 0.6946014 
0.3419191 -0.9395981 0.01571518 
0.7450614 -0.10020245 -0.65942633 
0.8864411 0.24685998 0.39151284 
0.9624355 0.0830076 -0.2585106 
0.20687383 0.03222074 0.9778369 
-0.1058722 0.1745479 0.9789403 
-0.26870787 -0.23182225 0.93490887 
-0.49041858 -0.5893221 0.6420195 
-0.9439149 -0.32123145 -0.07638821 
-0.90814215 -0.01341214 -0.41844705 
-0.77840936 0.4957166 -0.38515446 
-0.44628894 0.74336076 -0.49823794 
0.372799 0.3739281 -0.8492342 
0.08195354 0.83167154 -0.54918677 
0.29220134 0.8565948 -0.4252808 
-0.063264444 0.52122486 -0.8510713 
-0.52134204 0.29568422 -0.8004833 
0.24834128 0.42838067 -0.86880183 
0.020256499 0.12607859 -0.9918135 
-0.8679179 0.01256303 -0.49654877 
-0.42981538 -0.4645405 -0.77424866 
-0.31301755 -0.6508801 -0.69164675 
-0.22455135 -0.30535057 -0.92538524 
0.2721833 -0.72082394 -0.63743955 
0.8327064 -0.55283916 -0.031130228 
0.56967473 -0.8164015 -0.09465425 
0.52499616 0.25413483 0.8122774 
0.1620756 0.97502196 -0.15186775 
0.75707805 0.29372957 -0.58357173 
0.9529122 0.30129164 0.034376614 
0.35941955 0.4368205 0.8246244 
0.05162561 0.8672652 0.49516237 
-0.4844464 0.52005005 0.7034627 
-0.11779602 0.334818 0.934891 
0.40247673 0.36509198 0.8394763 
0.6917698 0.5177933 0.5033336 
0.6504636 -0.2644596 0.71201 
0.39040995 -0.43834853 0.8095868 
0.7199344 0.17891839 0.67058384 
0.8352675 0.3931121 0.38443595 
-0.24713571 0.94130003 0.22995296 
-0.55234534 0.66589224 0.5014999 
-0.9391325 0.33132517 -0.09085094 
-0.9640208 0.2637356 0.033280406 
-0.9475492 -0.26425272 -0.17978035 
-0.36734405 -0.24245216 -0.8979284 
-0.05367808 0.7562579 -0.6520681 
-0.06365396 0.5183589 -0.8527909 
0.26399785 0.8615611 -0.4336102 
-0.32091236 0.9404475 -0.11213301 
-0.060113214 0.9786949 -0.1963232 
-0.20900096 0.9447171 0.25264233 
-0.06863809 0.6263649 0.77650243 
-0.040863898 0.8066368 0.58963317 
0.3860064 0.89548135 0.22161317 
-0.5474788 0.66154605 0.5124684 
0.2874082 0.879376 0.37959778 
0.3596756 0.6122387 0.7041287 
0.4154752 0.31568873 0.8530657 
-0.10646387 0.15885577 0.98154485 
-0.17885897 0.96082836 0.21170333 
0.7732353 0.61389905 0.15885541 
0.528456 0.58471143 0.61550546 
0.83768165 0.47794685 -0.26430377 
0.93643194 0.20973487 -0.2812591 
0.5128024 0.4546491 -0.7282362 
0.6277486 0.76145077 0.16163114 
0.17774747 0.6550363 0.73439324 
-0.2328423 0.66847616 0.7063457 
0.54526347 0.55688363 0.62655276 
0.112040155 0.7728059 0.6246743 
-0.29646096 0.9550066 -0.008562242 
-0.3755308 0.8912583 0.25423455 
-0.21159029 0.59201616 -0.7776545 
0.3465751 0.8259466 0.44463235 
-0.22014439 0.5897172 0.7770264 
-0.82323724 0.5599241 0.09362505 
-0.32536477 0.69943583 -0.63633907 
-0.009420834 0.7497105 -0.661699 
-0.29083797 0.918012 0.2695687 
-0.060366362 0.8977487 0.43635225 
0.049604032 0.9219705 0.38407046 
0.04039593 0.97812796 0.2040437 
0.83758974 0.5462482 -0.007515579 
0.6017472 0.45653605 0.65534365 
0.5895701 0.50033075 0.63409483 
0.06298867 0.41623464 0.9070729 
-0.31258798 0.35619187 0.88057715 
0.2624545 0.47162902 0.8418335 
-0.009003477 0.3196565 0.94749075 
0.36019427 0.2856938 0.8880536 
-0.6113559 0.62296546 0.48801437 
0.5062411 0.6603385 0.55468297 
-0.4409902 0.34806934 0.8272699 
0.32260916 -0.29764 0.89851755 
0.36360332 -0.2912081 0.88486755 
0.01795437 -0.7957241 0.60539323 
0.48728204 -0.8600479 -0.1512417 
0.9932233 0.070093945 -0.09270615 
0.99462783 -0.09397485 -0.043407798 
0.84977454 0.1688697 0.49936596 
0.78862935 0.41335323 0.45519567 
0.31541875 0.36625126 0.8754263 
-0.039372083 0.1827986 0.9823618 
-0.20113435 0.8665605 0.45674708 
0.39600882 0.8035099 0.44446483 
0.2645945 0.9081335 -0.3244738 
0.45228845 0.5875177 -0.6710129 
0.80744636 0.5762982 -0.12613864 
0.7596917 0.611534 0.22112127 
0.2949559 0.8873866 0.3543249 
-0.13302083 0.8813826 0.4532882 
-0.49636146 0.6783054 -0.54178154 
0.458792 0.88779676 0.036426302 
0.7459513 0.45669886 -0.4847503 
0.4522065 0.6288653 -0.63248533 
0.6917907 0.5519563 0.4655855 
0.47762883 0.8244125 0.30366898 
0.7185214 0.5227016 -0.45881376 
0.030034479 0.9936244 0.10866733 
-0.82955205 0.55078506 0.09208324 
-0.69624174 0.6967786 0.17247371 
-0.7396317 0.6712585 -0.04854895 
-0.87131965 0.43372998 0.22952202 
-0.66176224 0.19698763 0.72337174 
-0.1955458 0.92060477 0.33800706 
-0.520458 0.6890146 0.5043633 
-0.70836294 0.5044582 -0.49370426 
-0.81466454 0.38786665 -0.4311394 
-0.6549 0.13686518 -0.7432186 
-0.06407283 0.7392659 -0.6703586 
0.57156354 0.54012334 -0.61772317 
0.33532494 0.10116538 0.9366551 
0.07655528 0.30414832 0.9495437 
-0.32901666 -0.27319482 0.9039428 
-0.009696151 0.005508144 0.99993783 
0.08791925 0.3355075 0.93792593 
-0.7351552 0.32731783 0.5936413 
-0.7458253 0.27969506 0.6045787 
-0.8413446 0.4989062 0.20792325 
-0.5781677 0.6608927 -0.47847992 
-0.2884682 0.40989977 -0.865314 
-0.09251341 0.8409309 -0.5331759 
-0.1257985 0.897699 -0.4222693 
0.058307018 0.841518 -0.53707343 
-0.9204786 0.32235384 -0.22092348 
-0.44552553 0.8270706 0.34272602 
-0.792039 0.558639 -0.24616428 
0.5855738 0.7091669 -0.3926648 
0.52300996 -0.025274921 -0.8519518 
0.43654558 0.6109843 -0.6603985 
0.320774 0.94289976 -0.08968879 
0.71180385 0.63234764 0.30573162 
0.3906296 0.89208776 -0.22712964 
0.9969188 0.057397082 -0.053465836 
0.67991656 0.29294994 0.67223054 
0.08037911 0.32477805 0.9423685 
-0.33413914 0.40884513 0.8492331 
-0.34020314 0.5016425 0.79537207 
-0.04361535 0.120960586 0.99169874 
-0.50605124 0.24797551 0.8260873 
-0.88907146 0.22908127 0.3963252 
-0.8870963 0.40328658 0.22454427 
-0.9684584 0.07842654 0.23651148 
-0.5881286 0.7791039 -0.21703006 
-0.40655652 0.46354964 -0.78729516 
-0.5178461 0.48032433 -0.7079012 
-0.27878687 0.33962217 -0.8982955 
-0.6970585 -0.0024597251 -0.7170101 
0.09312756 0.34233868 -0.93495 
0.49594456 0.17282642 -0.85098183 
-0.27129474 -0.1714158 -0.9471093 
-0.07069202 0.60595304 -0.7923532 
0.40811613 0.2976291 -0.8630518 
0.32834333 0.9370425 0.11892115 
0.57977754 0.75190777 0.3138354 
-0.5065451 0.8621691 -0.008749133 
-0.69707465 0.54936236 0.46074724 
-0.7470568 0.39044654 0.5380128 
-0.62750465 0.7563198 0.1849819 
-0.456485 0.84978294 0.2636105 
-0.5245292 0.62767357 0.5752348 
-0.11335648 0.7941792 0.59701747 
-0.8907448 0.4231687 0.16583702 
-0.6496099 0.68264633 0.33466563 
-0.5231877 0.8225124 -0.22304296 
-0.2609475 0.9107458 0.3200757 
0.33214316 0.6735793 -0.6602817 
-0.014806692 0.15039498 -0.98851514 
0.0463857 0.173088 -0.98381346 
-0.1463583 -0.117690116 -0.9822058 
-0.38434696 -0.39913982 -0.8324452 
-0.17009628 -0.11158032 -0.97909 
-0.07136179 -0.39804178 -0.91458744 
0.9838749 -0.030711167 -0.17620169 
0.89227587 -0.2745037 -0.35845703 
0.7163247 -0.27728277 -0.64030725 
0.6474081 -0.35622776 0.67376894 
0.80073166 0.2336435 0.5515792 
0.64205825 -0.094738856 0.7607798 
0.92533195 -0.35163108 -0.14183247 
0.4662457 -0.45477006 0.75881445 
-0.15665159 -0.22946931 0.96062696 
-0.1946148 0.2369503 0.95182973 
0.44593558 0.21286759 0.86938417 
-0.4277864 0.6415199 0.63675046 
-0.116853535 0.026220987 0.992803 
-0.22403747 -0.86287695 0.4530459 
-0.82546574 -0.4560229 0.33263996 
-0.3458173 -0.039867364 -0.9374545 
-0.30475485 0.08568651 -0.94856864 
-0.5700728 -0.68768704 -0.44955924 
-0.5435647 -0.6671546 -0.50935465 
-0.6411072 -0.75946003 0.11046315 
-0.94375527 -0.330307 0.014944999 
-0.61142117 0.7212533 -0.3255117 
-0.38506305 0.42087793 -0.82133317 
0.16610765 0.1699546 -0.97135156 
0.28746513 0.05669715 -0.9561116 
-0.29384097 -0.44461456 -0.8461534 
0.62978303 0.44385666 -0.63746744 
0.8353179 0.41367298 0.36210328 
0.8615705 0.37385574 0.34340683 
0.83304584 0.40390748 0.37801242 
0.83995545 0.33643308 0.4257789 
-0.16073158 -0.09343704 0.98256546 
0.72711235 0.4707796 0.49967417 
0.085396856 -0.27026564 0.95899105 
-0.37808347 -0.58872944 0.7144583 
-0.5102561 -0.48042357 0.7133246 
0.27724206 0.5524518 0.7860878 
0.51352155 0.25302097 0.8199244 
0.29087296 0.45973617 0.8390684 
0.10137162 0.42385393 0.9000398 
0.77831876 0.50314856 0.3755817 
0.09694092 0.41907868 0.90275997 
-0.7106628 -0.114373684 0.6941737 
-0.88970244 0.034990072 0.45519796 
-0.6413548 -0.59960824 0.47867942 
-0.8181851 -0.5743403 -0.026579984 
-0.909932 -0.34410822 0.23154569 
-0.34252736 0.391554 -0.85402614 
0.07051143 -0.5757047 -0.8146118 
0.9404693 -0.08248312 -0.32971826 
0.74874055 -0.024761405 -0.6624006 
0.8853237 0.34407258 0.31275555 
0.99329627 0.09889162 0.059858464 
0.9844706 -0.12497403 -0.123285085 
0.6014387 -0.6029229 0.52417123 
0.43306926 -0.73715025 0.51871043 
0.34376588 -0.37588885 0.86054206 
-0.6129145 -0.77810127 0.13745685 
0.10177812 -0.988956 -0.107737064 
0.6180263 -0.3168965 0.7194582 
0.22799788 -0.80617994 0.54597694 
0.9483524 0.09955346 -0.30119258 
0.317502 -0.50810397 -0.80063903 
0.998079 -0.04058194 0.046814278 
0.87855583 0.21136624 0.4283271 
0.87067014 0.4226652 0.25157055 
0.18949252 -0.081172645 0.9785211 
-0.4291396 -0.56549233 0.70431364 
-0.23388068 -0.022601841 0.9720026 
-0.80099624 0.51144063 0.31118086 
-0.90005785 0.108674794 -0.42200202 
-0.9447474 -0.056052025 -0.32297167 
-0.74948007 0.42551705 -0.5071636 
-0.11736142 0.8316702 -0.54272556 
0.58396876 0.64364314 -0.49467573 
0.33761594 0.93151665 -0.13524893 
-0.3443266 0.90106374 0.2636731 
-0.3070606 0.8708665 -0.3838041 
-0.26565784 0.7761654 -0.5718332 
0.446969 0.6670947 -0.5959895 
-0.19981226 0.7845872 -0.5869396 
-0.7653076 0.28501466 -0.57712317 
-0.62351394 -0.16709112 -0.763748 
-0.4240868 0.39099184 -0.8168695 
0.44108102 0.46907735 -0.7651236 
0.565009 0.07924389 -0.8212706 
0.98631024 -0.10480534 -0.12731071 
0.6614988 0.13018991 0.7385594 
0.60926855 -0.028258137 0.7924603 
0.97032815 0.036282025 0.23905416 
0.73601866 0.6064434 0.30083707 
0.5246306 0.6953892 -0.49111784 
0.48408654 0.6982105 0.52741116 
0.3897827 0.6840696 0.61653733 
-0.45358294 0.8809803 0.13467166 
0.22122668 0.5521453 0.80386215 
0.7013394 0.41863918 0.576944 
0.7052476 -0.02929333 0.7083557 
0.7007374 -0.7053329 0.10711044 
-0.25229323 -0.19823183 0.9471284 
0.56177807 -0.1444296 0.8145831 
-0.21331675 0.38065872 0.89977497 
0.36229712 0.41361475 0.8352627 
-0.089825936 0.89659417 0.4336476 
-0.660732 0.60430765 0.44524786 
-0.05527916 0.98555726 -0.16006625 
-0.30555218 0.9521092 -0.011221467 
0.024177669 0.5375863 -0.842862 
-0.31571543 0.875878 -0.364913 
-0.28545126 0.74078983 -0.6080692 
0.1370387 0.75778747 0.63794875 
0.08323552 0.8155189 0.5727137 
-0.48602057 0.85584176 0.17697187 
-0.65418124 0.6871123 -0.31610718 
-0.006217527 0.79805076 0.6025583 
-0.14748187 0.4633213 0.87383217 
-0.40686142 -0.039123654 0.9126517 
-0.5727569 0.2873765 0.76770073 
0.01925906 0.59570813 0.80297005 
-0.534433 0.0791766 0.8414942 
-0.28813165 0.29181334 0.9120445 
0.29837185 0.09215141 0.9499908 
-0.022135839 0.4122785 0.9107889 
0.54624665 0.58596873 0.5985443 
0.91154605 0.3775289 0.16295952 
0.66128653 0.6886161 0.2975029 
0.65834224 -0.05186164 0.75093 
0.45783484 0.1860108 0.8693604 
-0.2028531 0.5525798 0.80839735 
0.16200985 0.08268417 0.9833189 
0.08639887 0.7841638 0.6145099 
-0.3495266 0.8941184 0.2799703 
0.037381753 0.5957004 0.8023365 
-0.08321567 0.679234 0.72918886 
-0.412871 0.6568424 0.6309481 
-0.3252078 0.65017426 0.6866683 
-0.5539482 0.5900092 0.5873931 
-0.82095635 -0.14357789 0.55264467 
-0.79666066 0.5286484 0.29302326 
-0.54670227 0.8255512 0.1399355 
0.25495 0.96625227 0.036840696 
-0.09262915 0.97666436 0.19376956 
0.2243914 0.8377783 0.49777132 
-0.3608067 0.9267087 -0.105021946 
0.18363728 0.91051966 -0.3704477 
0.6461548 0.55172896 -0.5273321 
0.8815393 0.4686358 -0.05717579 
0.90114754 0.32118458 0.29115918 
0.34488398 0.037759304 0.9378856 
-0.023479141 0.31892955 0.94748753 
-0.1374901 -0.15534201 0.9782461 
-0.028646262 -0.23386478 0.9718471 
0.42628404 -0.6187855 0.6598382 
0.36547807 -0.56969154 0.73612326 
0.20532478 -0.24879389 0.94654286 
0.41872 0.29109654 0.86019564 
0.49539247 -0.42919487 0.7552338 
0.5461642 -0.78985155 0.27899706 
-0.25047395 -0.965519 -0.070964076 
0.22344534 -0.9333613 -0.28090712 
0.93098557 -0.04456028 0.36232606 
0.38269988 -0.2888767 0.8775483 
0.7266568 0.15791391 0.6686054 
0.42052224 0.46797395 0.7772782 
-0.06888507 0.7020708 0.70876765 
-0.43436176 0.31810433 0.8426978 
-0.5171252 0.7967008 0.31280917 
0.34975922 0.91442174 0.20371887 
0.228661 0.632977 -0.73963124 
0.073045954 0.9967085 0.03516443 
0.73393685 0.679127 -0.011105732 
0.8914651 0.4530009 -0.008955725 
0.10204907 0.9817751 0.16032393 
0.052135553 0.9741315 0.21988595 
0.111575946 0.9849433 0.13205147 
-0.06225703 0.89511925 0.4414588 
0.20300236 0.85952127 -0.46905583 
0.36967555 0.86344975 0.3432121 
0.7445087 0.55658793 0.36866888 
0.6373209 0.5554867 -0.53409433 
0.5687303 0.8180972 0.08522341 
-0.32079834 0.9261145 0.19849503 
-0.9845997 0.111239694 0.13486704 
-0.927535 0.35827914 0.1063714 
-0.48528257 0.7878321 0.3792382 
-0.45143166 0.6815746 0.57590425 
-0.78641003 -0.18475524 0.5894275 
-0.5792021 0.6661542 0.46985474 
-0.4476065 0.73164386 0.51414573 
-0.62685347 0.68424964 -0.37263563 
-0.5965845 0.40229386 -0.6944398 
-0.23296341 0.4564991 -0.85868317 
0.05917602 0.9603009 -0.27261794 
0.19538961 0.5478751 -0.8134222 
0.8364671 0.5293127 -0.14195432 
0.82207423 -0.064828955 0.56567776 
0.0544691 -0.030476138 0.9980503 
-0.41313794 0.5178897 0.74907106 
-0.5445001 0.3651669 0.7550979 
-0.8140192 0.5644043 0.13718806 
-0.85523754 0.35924536 -0.37351242 
-0.47039896 0.78353167 -0.4059594 
-0.17911853 0.8812277 -0.43744084 
-0.27302784 0.6964779 -0.6636071 
-0.53093326 0.75270355 -0.38929078 
-0.16282004 0.91472757 -0.36981508 
-0.59807813 0.73174703 -0.32687753 
-0.675795 0.60837656 -0.41614795 
-0.6569621 0.71492994 0.2393242 
-0.5065611 0.84540427 -0.16937383 
0.49838528 0.77089304 -0.3966562 
0.6603551 0.41577068 -0.6253526 
0.019805796 0.85519314 -0.51793104 
0.43943435 0.85981554 -0.2600285 
0.355808 0.9310637 -0.08075426 
-0.17793304 0.8603539 -0.4776307 
0.41512704 0.9025731 0.11415567 
0.35337958 0.30286786 0.88509554 
-0.42984906 0.56504685 0.7042386 
0.5797338 0.7041192 0.4100305 
0.46508148 0.8038486 0.37084594 
0.33499113 0.6555868 0.67674744 
-0.38887697 0.08752141 0.91712314 
-0.7892464 0.32354423 0.52192855 
-0.71650136 0.2255537 0.6601147 
-0.7025592 0.6436373 0.30354854 
-0.6816618 0.7104735 0.17482744 
-0.5753154 0.8007478 0.16677912 
-0.735775 0.5067895 -0.44922101 
-0.6399996 0.21049607 -0.73898035 
-0.42256343 0.32461706 -0.8462057 
-0.12177165 0.7684188 -0.6282549 
0.11098712 0.7560728 -0.64500844 
0.1678603 0.6609424 -0.73142195 
0.15332468 0.649892 -0.74440044 
0.3308392 0.72394437 -0.60535115 
0.3858654 0.866126 0.31770083 
0.44924018 0.8618342 0.23542534 
0.049145367 0.9133508 0.4041967 
0.28697085 0.6094141 0.73909557 
-0.6841542 0.72923106 0.012458967 
-0.37336287 0.75188375 0.5433884 
0.6175353 0.67801666 0.39867723 
-0.32527772 0.58202535 0.7452791 
-0.7244017 0.15914775 0.6707564 
-0.54841715 0.16917185 0.81891364 
-0.81739974 0.49096018 0.3013567 
-0.66399634 0.27961448 -0.6934873 
-0.31435397 0.49796894 -0.8082133 
-0.34738195 0.5677641 -0.7463041 
-0.46452582 0.83630764 -0.2912138 
-0.4466481 0.5041435 -0.7391514 
-0.46304 -0.46578145 -0.7540833 
0.12746993 -0.17426458 -0.9764135 
0.44812098 0.16610837 -0.87840515 
0.7039352 -0.14645305 -0.69500124 
0.6439428 -0.26592118 -0.7173727 
0.86500347 -0.5014272 0.018431084 
0.98939663 -0.054823667 0.13449457 
0.9886343 0.118746616 0.092203856 
0.87775254 -0.4099665 -0.24794778 
0.827406 -0.091774575 0.5540548 
0.7163062 -0.2341938 0.65731174 
0.29051736 -0.56109136 0.77509755 
-0.06540072 -0.6074476 0.7916629 
0.46428263 -0.7997655 0.38054818 
0.013330755 0.8929954 0.44986832 
0.6304143 0.46964785 0.6180685 
0.85539174 -0.19112204 0.48143265 
0.44556737 -0.23058622 0.86504316 
-0.64332885 0.015209694 0.765439 
-0.61969805 0.026637133 -0.7843882 
-0.42339426 0.20758253 -0.88184285 
-0.27204356 -0.16189204 -0.94856906 
-0.95750684 -0.06300671 -0.28144428 
-0.85987264 0.22571354 -0.4579001 
-0.9830945 -0.18286581 0.00923293 
-0.9588198 0.12320583 -0.2559001 
-0.64141977 0.59777933 -0.4808749 
0.059187863 0.65801835 -0.7506722 
0.38731194 0.44725364 -0.80619705 
0.5236459 0.3276744 -0.7863997 
0.62271786 0.77618855 0.09876233 
0.67802256 0.38809517 0.62423366 
0.98396015 0.17678033 -0.023899509 
0.9531246 -0.0021089914 0.302571 
0.8249112 0.010412853 0.5651665 
0.56957567 -0.40204877 0.7168964 
0.9220193 -0.37360156 0.10149992 
0.45029545 -0.83931845 0.30459553 
-0.38144183 -0.37172326 0.84635925 
-0.059011094 -0.9928363 0.1038937 
0.46536884 -0.26303336 0.8451303 
0.1235843 0.3906479 0.9122067 
0.03355777 -0.8977882 0.43914738 
-0.19359046 0.43274432 0.8804857 
0.051423427 0.65134597 0.75703645 
-0.022524554 0.38229722 0.92376494 
-0.55056256 -0.30184478 0.77831274 
-0.5907247 -0.46382752 0.66023356 
-0.85978436 -0.49591973 0.12179684 
-0.77349293 -0.5272983 -0.35166073 
0.22973599 -0.44375 -0.86620283 
0.4064797 0.12624393 -0.904896 
0.7299553 -0.37949383 -0.56846267 
0.84202826 -0.3008586 -0.4477417 
0.46161816 0.84778917 0.26107925 
0.80794567 0.5286302 0.26033443 
0.50076336 0.50738907 0.7012791 
0.694129 -0.49148592 0.5259531 
0.484384 -0.85207826 0.19832996 
-0.040003926 -0.8787311 0.47563785 
-0.14693925 -0.8617142 0.48565188 
-0.76121396 -0.5823715 0.28530112 
-0.017413652 -0.86758024 0.49699235 
0.36886713 -0.92210907 0.116841756 
0.3473503 -0.9172905 -0.19474573 
0.80850184 -0.5542949 -0.19769199 
0.47589263 -0.3981835 -0.78420407 
0.95289487 0.2562016 -0.16233386 
0.9516246 0.12235329 0.28185165 
0.33166462 0.52372414 0.784673 
0.59136754 0.12399551 0.7968121 
-0.27617738 -0.19636595 0.94083285 
-0.550952 -0.000935746 0.8345365 
-0.6724698 0.7107057 0.2065957 
-0.69702196 0.43834388 0.5674637 
-0.8009322 0.25112852 -0.54354584 
-0.3465556 0.4929418 -0.79806495 
-0.26037556 0.9047765 -0.33702224 
0.35810947 0.74047804 -0.5687266 
0.48764113 0.8698716 -0.074360974 
-0.5099066 0.74075884 0.43734622 
-0.42409074 0.88415146 0.19601895 
-0.70722914 0.6881468 0.1621137 
-0.8895136 0.36071202 -0.28045046 
-0.8443135 0.39185458 0.36549237 
-0.8848325 0.46529755 -0.023869533 
-0.9727486 -0.06480616 -0.22262157 
0.2706811 0.10138457 -0.9573155 
0.651968 -0.3587063 -0.66803265 
0.97824174 -0.20733477 0.0074544754 
0.9899758 0.12025884 0.074065536 
0.67489207 0.21460658 0.7060204 
0.73587054 0.03277349 0.6763288 
0.81980395 0.39335924 0.41616112 
0.31785804 0.91352063 -0.25386313 
0.96302325 0.24110797 -0.12022143 
0.30489302 0.9202562 0.24529326 
-0.32765892 0.8695419 0.3695088 
-0.00236348 0.39466316 0.9188228 
0.61965173 0.08575076 0.7801786 
0.39403316 0.2532624 0.88351357 
0.28939033 -0.21505733 0.9327398 
-0.40772942 -0.4006782 0.8204961 
-0.307211 -0.61426324 0.726844 
-0.19573909 -0.3824421 0.9030084 
-0.23875973 0.47581908 0.84651643 
-0.00048784833 0.80367225 0.5950721 
0.51911074 0.8264068 0.21811923 
-0.18885104 0.9786881 -0.08065294 
-0.5775076 0.7920229 0.1979516 
-0.7432649 0.66866577 -0.021058492 
-0.4058734 0.9070874 -0.111620955 
-0.2565244 0.55225927 0.79322445 
-0.65470296 -0.067060195 0.7529058 
-0.5180985 -0.41342506 0.7487682 
0.201661 0.9793639 0.013387387 
-0.13825622 0.5666271 0.81229246 
-0.6228966 0.6254142 0.46995434 
-0.17573538 0.7443628 0.644237 
0.066048205 0.41406143 0.9078496 
-0.20979421 -0.0978345 0.9728386 
-0.05672997 -0.1958329 0.978995 
-0.36044642 -0.16482489 0.91810197 
-0.7104822 0.10351677 0.6960599 
-0.41120315 0.046818234 0.9103406 
-0.23456392 -0.44455191 0.864496 
0.6311013 -0.29564074 0.7171526 
0.63462484 -0.093565755 0.7671354 
0.87670213 0.22539093 -0.4249615 
0.97169155 0.047165435 0.2314973 
0.674378 -0.013353724 0.7382656 
0.25932688 0.10075542 0.9605196 
0.3370329 -0.25113407 0.9073812 
0.22556272 0.5005054 0.83583236 
-0.5055097 0.5635581 0.653347 
-0.25690243 0.82992476 0.4952032 
-0.08000902 0.17733677 0.98089266 
-0.458037 -0.050965898 0.8874709 
-0.5846835 -0.07596422 0.8076972 
-0.25653243 0.66209733 0.70414364 
-0.5395825 0.7491979 0.3841266 
-0.7928044 0.11202072 0.5990931 
-0.68490267 -0.14702259 0.71364754 
-0.7453603 0.41750666 0.5197368 
-0.15628313 -0.17947942 0.97126865 
0.09848727 0.5919611 0.7999265 
0.011551038 0.69204116 0.72176564 
0.59703183 0.2748259 0.75367343 
0.34348276 0.3343325 0.877634 
-0.023952 0.9869168 0.15944166 
-0.055382237 0.71556765 0.69634455 
0.27523234 0.56534606 0.7775803 
0.41030765 -0.15630266 0.8984527 
-0.24430832 0.3024455 0.92132527 
-0.44721255 0.08429124 0.8904471 
-0.23136042 -0.82364815 0.51776063 
0.29735819 -0.5774611 0.76033986 
-0.16386276 -0.47329855 0.86552733 
-0.6080515 -0.4313885 0.6664664 
0.37074497 -0.6324534 0.68011093 
0.120580174 -0.98057765 0.15468647 
0.74235463 -0.664126 -0.08857962 
0.71740097 -0.63880545 0.2779631 
0.7485268 -0.5442827 0.37876663 
0.75888205 -0.45305648 0.46780115 
0.49134403 0.0066401586 0.8709403 
0.49854296 0.112473205 0.8595375 
0.25640005 0.45414132 0.85323775 
0.2967348 0.6176197 0.72835046 
0.17344332 -0.34730095 0.92157453 
-0.43652108 -0.010434744 0.8996336 
-0.26358846 0.39273554 0.8810675 
-0.21396007 0.66361225 0.71682626 
-0.08608519 0.94914824 0.30283192 
0.671971 0.7046752 0.22778916 
0.36408925 0.906356 0.21437822 
0.39697847 0.8586195 0.32431573 
0.5964191 0.33781236 0.7281258 
0.42220566 0.29580003 0.8568808 
0.041945193 0.51043665 0.8588917 
-0.29522866 0.26945126 0.916644 
0.008649807 0.63399476 0.7732889 
-0.12473208 0.77062315 0.6249656 
0.5075327 0.77841955 0.36942318 
0.2629136 0.9119093 -0.31511596 
0.14926396 0.75324833 0.64057577 
-0.28267944 0.06908827 0.9567232 
-0.17810173 0.89368266 0.41183868 
-0.84225506 0.26821935 0.46761608 
-0.6732277 0.567447 0.47409752 
-0.68297565 0.5155608 0.5174374 
-0.7716382 0.41687033 0.48040992 
-0.8435458 0.3656203 0.39338565 
-0.8284543 0.54596776 -0.12483107 
-0.8951619 0.32477596 -0.3052963 
-0.029205002 0.98408306 0.17529295 
-0.5788043 0.70247835 0.4141374 
0.46141714 0.8852425 -0.058652002 
0.82621884 0.29776415 0.4782247 
0.077919014 0.45042062 0.88940996 
0.7949733 0.17866886 0.579737 
0.01135808 0.96627957 0.25724456 
0.13191305 0.59931177 0.7895723 
-0.2422343 0.94128567 -0.23516798 
0.21124089 0.8797491 -0.42593288 
-0.19942388 0.9712546 -0.12997945 
-0.6145664 0.78815264 -0.03351923 
-0.5938322 0.69294417 0.40889093 
0.1071795 0.9298422 0.35200322 
0.26475576 0.7445151 -0.6128635 
0.3711026 0.91973037 -0.12798004 
0.07245541 0.99713576 0.021692023 
0.09126067 0.9055712 0.414261 
-0.057110332 0.9570394 0.28427836 
-0.20100577 0.90205663 -0.38195637 
-0.5455952 0.5867834 -0.5983404 
0.008290178 0.9837977 -0.17909034 
0.4996745 0.84350675 -0.1970326 
0.10470083 0.8349296 -0.5403058 
-0.0655294 0.73807037 -0.6715341 
-0.114144094 0.8320248 0.5428684 
-0.44496864 0.70149606 0.5566922 
-0.22267742 -0.031249339 0.9743912 
0.5399021 0.5606617 0.627825 
0.4576353 0.35413483 0.81557244 
0.047893025 0.26125196 0.9640818 
-0.58729917 0.21365201 0.7806616 