# OOMMF: rectangular mesh v1.0
# Segment count: 1
# Begin: Segment
# Begin: Header
# Desc: Time (s) :  2.979999999999998e-07
# Title: m
# meshtype: rectangular
# meshunit: m
# xbase: 2e-09
# ybase: 2e-09
# zbase: 5e-10
# xstepsize: 4e-09
# ystepsize: 4e-09
# zstepsize: 1e-09
# xmin: 0
# ymin: 0
# zmin: 0
# xmax: 1.024e-06
# ymax: 1.024e-06
# zmax: 1e-09
# xnodes: 256
# ynodes: 256
# znodes: 1
# ValueRangeMinMag: 1e-08
# ValueRangeMaxMag: 1
# valueunit: 
# valuemultiplier: 1
# End: Header
# Begin: Data Text
-0.5357676 0.4686185 -0.70238864 
0.68168443 0.5588366 0.47223723 
0.768491 0.36232772 0.52739006 
0.4726963 0.56819427 0.6735827 
-0.6777494 0.26660106 0.6852589 
0.27820343 0.40006244 0.87324274 
-0.013984008 0.484929 0.8744417 
-0.45647496 0.78890723 0.4114075 
-0.7986939 0.3672572 0.47666585 
-0.05863076 0.9326418 0.356008 
-0.80414015 0.10178565 0.58566064 
-0.89877594 0.10805677 0.42488325 
-0.99925995 0.0335838 0.018756364 
-0.035719164 0.9094326 -0.41431445 
-0.22605656 0.60352933 0.7646247 
-0.09324129 0.35915318 0.9286093 
0.60822976 0.28776327 0.7397627 
0.47129682 -0.10623308 0.8755535 
0.7364104 0.4653576 0.4910622 
0.5113214 0.06362398 0.85703117 
0.33158398 0.3066731 0.89219034 
0.58952206 0.5479488 0.5934778 
0.5713114 -0.0025399567 0.8207295 
0.57912254 0.491456 0.6504523 
0.6250838 0.6295515 0.46144906 
0.08333992 0.028129155 0.99612415 
-0.4452954 0.31448877 0.83833706 
-0.13798861 0.19779769 0.97048205 
0.31056005 0.19244413 0.9308694 
-0.051440768 -0.2099048 0.9763677 
-0.52579427 -0.50891787 0.6815739 
-0.11351721 -0.80827785 0.577755 
0.01275338 -0.6070181 0.7945857 
-0.30371404 -0.1787458 0.935846 
-0.91085917 0.40835607 0.05984063 
-0.48166856 0.43919486 0.7583556 
-0.36536917 0.876931 0.31224594 
-0.4809804 0.81132865 0.33227065 
-0.52838016 0.72303367 0.4450133 
-0.27657324 0.80593497 0.52342725 
-0.30041987 0.022120427 0.9535506 
-0.010313628 0.94200957 0.33542758 
-0.27886918 0.74795055 0.6023305 
-0.06966362 0.042422336 0.9966681 
-0.12711507 0.38567203 0.91383755 
0.22768813 0.77618796 0.5879545 
0.19231568 0.77654266 0.59999686 
0.70478255 0.4108049 0.5783779 
0.98728496 0.08610253 -0.13362181 
0.9771022 -0.0037289863 0.21273777 
0.5153362 -0.49137613 -0.702124 
0.5295352 0.7661427 0.36416742 
0.20794955 -0.10038597 0.97297466 
0.19294156 -0.72856474 0.657242 
-0.30211893 -0.19935766 0.9321914 
-0.706578 -0.6352538 -0.31176952 
-0.9047821 -0.41919795 -0.07511651 
-0.7293961 -0.6838577 0.0178931 
-0.6335315 -0.6698272 -0.3872589 
-0.321379 -0.20769258 -0.9238936 
0.21259892 -0.442426 -0.87124103 
-0.8261398 -0.057439078 -0.56053007 
0.40977335 0.48589143 -0.7720074 
0.96662474 -0.23338407 -0.10568177 
0.7304972 0.096257985 0.67609787 
0.16028287 0.070174456 0.9845735 
0.11872751 -0.39964795 0.90894747 
0.09924108 -0.46193728 0.8813429 
-0.39467338 -0.31190827 0.86426055 
-0.25847378 0.0031992428 0.96601295 
-0.7199675 -0.22455814 0.65667385 
-0.6584729 -0.2884231 0.6951443 
-0.85064256 -0.5130181 -0.11497762 
-0.6750192 -0.6585682 0.33262163 
-0.051606003 -0.71742404 0.6947227 
-0.24044727 -0.96520966 0.10273977 
-0.48760653 -0.8665009 0.10684576 
0.11786344 -0.7310313 -0.6720874 
0.58306116 -0.7661679 0.27023432 
0.28087005 -0.95959353 0.017095452 
0.7763289 -0.050994202 0.6282619 
0.42683265 0.1693737 0.88832796 
-0.45884955 0.6062944 0.6495108 
-0.39390397 0.7273435 0.56197083 
-0.5463922 0.83721757 0.022858055 
-0.39453566 0.48308095 0.7816485 
-0.67033917 0.74093276 0.04079333 
-0.6901719 0.59483624 -0.4121077 
-0.91820216 0.028779393 -0.39506528 
-0.9876365 -0.12693672 -0.09198474 
0.28680286 -0.4473773 -0.84711146 
0.18439938 -0.19924302 -0.96244437 
0.57865053 0.77591276 -0.2512432 
0.6551319 0.7415245 0.14471956 
-0.0132146515 0.9985055 0.053031217 
0.10334736 0.8616318 0.49690047 
0.4835953 0.792466 -0.37166288 
0.5375697 0.8337842 0.12578897 
-0.083448395 0.98624384 -0.14268659 
-0.47527632 0.8203616 -0.3179925 
-0.6811859 0.7254125 -0.09880569 
-0.25308818 0.96693856 -0.031244345 
-0.06409238 0.5020767 -0.8624449 
0.7438235 0.61581427 -0.25980633 
0.9657239 0.21416444 -0.14666694 
0.9135177 0.11133963 -0.39126572 
0.9425007 0.33339173 0.02328807 
0.7162503 0.5085585 0.4778638 
0.21458772 0.6647054 -0.7156248 
0.23619281 0.9707495 -0.04311072 
0.044810057 0.9385139 -0.34232116 
0.5003721 0.61959106 -0.6047601 
0.39765483 0.6078943 0.68726647 
0.62752956 -0.13575801 0.7666658 
0.6732119 -0.514391 -0.53121346 
0.47456217 0.20945485 -0.8549383 
0.69943434 0.654084 -0.28803778 
0.7674208 0.47481188 0.43083525 
0.074309714 0.02141784 0.9970052 
-0.46546257 0.69955593 0.5421864 
-0.669721 0.5490655 0.50000083 
-0.6939315 0.4816169 0.53526103 
-0.12452334 0.5657694 0.81510675 
-0.739556 0.42690402 0.5203941 
-0.88031846 0.10320825 -0.46302003 
-0.6431636 0.5797954 0.500178 
0.07365406 0.94643116 0.31439367 
0.072393 0.4875122 0.87010986 
0.024569457 0.77864736 0.6269806 
-0.2171785 0.5448177 0.8099428 
0.25668335 0.514725 0.8180292 
0.18123427 -0.38739586 0.90392405 
-0.03743549 0.21170127 0.9766173 
-0.7673856 0.34988776 0.5373062 
-0.90097386 -0.41326556 0.13212773 
-0.79534626 0.5296809 -0.29472443 
-0.3665806 0.30032435 -0.8805816 
-0.30861333 0.22730424 -0.92362905 
0.67255217 0.5985667 -0.43519142 
0.55658376 -0.1919096 -0.80832255 
0.8017748 0.13965958 -0.5810786 
0.86569 0.45060533 0.21802709 
0.9191947 0.36675802 0.14342137 
0.88377374 0.44235724 0.15252563 
0.84013253 -0.5393278 0.057471544 
0.62045896 0.5224158 0.58490384 
0.37186733 0.5180231 0.77030313 
-0.44243243 -0.7036618 0.55598 
-0.31527865 0.0020355205 0.94899696 
-0.3958594 -0.740558 0.5430187 
-0.58906037 -0.0055678855 0.8080699 
-0.2997833 0.6320481 0.7145945 
0.19628808 0.24964768 0.9482337 
0.6191463 -0.045624737 0.78394926 
0.29650325 0.7579577 0.5810216 
0.20131713 0.6407992 0.7408427 
0.9459188 -0.26446146 0.18787706 
0.9877889 0.15051521 -0.04022665 
0.37839514 0.09618014 0.9206338 
0.296866 -0.03621167 0.9542324 
0.7487497 0.549424 0.37081966 
0.40447742 0.5612155 0.7221047 
0.040898185 0.9508948 0.30680057 
0.21208915 0.31615585 0.9246965 
-0.22738297 0.7734922 0.5916138 
-0.00046322358 0.46351835 0.88608724 
-0.6004839 0.55487937 0.57578474 
-0.23290433 0.36846063 0.89999574 
-0.3379675 0.4707107 0.81499046 
-0.35515106 0.3741392 0.85667247 
-0.8480439 0.51129097 -0.13929547 
-0.83245176 0.52181345 -0.1863729 
-0.17413126 0.18919836 0.96637595 
0.2513012 0.41436607 0.8747278 
-0.0751572 -0.084705636 0.9935675 
0.0835542 -0.134519 0.9873821 
0.88522595 -0.1196821 0.44950113 
0.2435188 -0.009231386 0.9698523 
0.06909863 0.28114125 0.9571755 
0.80142134 0.3818579 0.46033522 
0.00028517403 0.17697808 0.98421484 
0.16747016 0.036802933 0.98519003 
-0.3617753 -0.5207744 0.77324826 
-0.7551943 -0.12649828 0.6431794 
-0.8861022 0.25347266 0.38803956 
-0.9376786 -0.29984787 -0.17564198 
0.19899078 -0.94794524 -0.24860117 
0.32412612 0.22442593 -0.91900784 
-0.054154016 -0.026305562 -0.99818605 
0.9256583 -0.061965402 -0.3732519 
0.610059 0.19869527 -0.76703864 
0.5712128 0.81564325 -0.091880254 
0.66158754 0.6367244 -0.39608592 
0.6440596 0.6124008 0.45842394 
0.45006317 -0.037895545 0.89219236 
0.46732128 0.33809665 0.81688523 
0.105309844 0.10753077 0.9886086 
0.25095212 0.10700994 0.9620665 
0.46908247 -0.19210924 0.8620069 
0.46533045 -0.52878755 0.7098249 
0.35738686 0.34696633 0.8671154 
0.89942425 0.2625555 0.34942925 
0.7982552 0.06624336 0.5986656 
0.89621556 0.29950365 0.32725435 
0.3158626 -0.14887792 0.93705183 
0.6772264 0.08521539 0.7308234 
0.3988001 -0.91020304 0.11175436 
0.94108504 0.31766853 0.115955226 
0.60257417 0.005038769 0.798047 
0.038804077 -0.67985696 0.73231745 
-0.43787813 -0.8879037 0.14103176 
0.59641725 -0.33327106 -0.73021704 
-0.20776485 0.006214583 -0.9781591 
-0.022985965 0.16140844 -0.98662 
-0.26084092 0.91572523 -0.3056296 
-0.07781755 0.9378639 -0.33816537 
0.38963735 0.22805229 -0.89228636 
0.2913945 0.14281078 -0.9458829 
0.97396713 0.044405956 -0.22229788 
0.9943727 -0.029015768 0.101888105 
0.9822626 0.18509245 0.030015104 
0.71050155 0.64728373 0.27606395 
0.08748427 0.9113247 0.4022858 
-0.628186 0.5160781 0.58227634 
-0.6389575 0.47435424 0.60557526 
-0.73554367 0.53608894 0.41422728 
-0.926389 0.34836882 0.14297761 
0.03798223 0.3280952 -0.9438808 
-0.18791355 0.4260688 -0.88495976 
0.080212325 0.7583021 -0.6469497 
-0.14556639 0.19483744 -0.9699737 
-0.36514282 0.05850579 -0.92911136 
-0.20277335 0.04293671 -0.97828394 
0.5263159 0.44364062 -0.725379 
0.626341 0.5644516 -0.53767234 
0.96847636 -0.22622515 -0.10428733 
0.9744706 0.22363159 0.019897308 
0.27917472 0.91365296 0.2954654 
-0.2363528 0.86723346 0.43822777 
0.4181315 0.6970907 0.58243513 
0.4539704 0.7437417 0.4906723 
-0.17749089 0.9738897 0.14154808 
-0.14903297 0.9678728 0.20251264 
-0.27160788 0.94012606 0.20589407 
0.03028164 0.7224663 0.69074285 
0.22210398 0.9466776 0.23339131 
-0.027562873 0.22806759 0.9732551 
-0.37934142 0.69809353 0.6072607 
-0.9083333 0.41703653 -0.031802118 
-0.9768152 -0.21393043 0.008118737 
-0.74775475 -0.22673203 -0.6240637 
-0.74975723 0.6436701 -0.15347001 
-0.5814673 0.48909956 0.6501366 
-0.4728727 -0.69375354 0.54322886 
-0.7803298 -0.6221302 -0.06355673 
-0.83840734 -0.51452017 -0.1798398 
0.6713987 0.42647782 0.60608625 
0.70157343 0.6177242 0.35526288 
0.7084868 0.20089747 0.6765255 
0.60659325 0.36209747 0.70776415 
-0.21289258 -0.3435536 0.9146845 
-0.5476472 0.07158176 0.8336419 
-0.7083395 0.03403754 0.7050509 
-0.15459846 0.3568208 0.92129165 
-0.31768283 0.011318734 0.94812953 
-0.50916255 -0.33664504 0.7921009 
-0.87396646 -0.1623842 0.45805475 
-0.73466736 0.65682906 -0.16982181 
-0.43483788 0.6414771 -0.6319994 
0.109986976 0.9920616 0.06096537 
-0.3300569 0.17344794 0.9278891 
-0.28005335 -0.17536189 0.94383174 
-0.25889146 -0.77938074 0.57056206 
0.25565624 -0.7233004 0.64146435 
0.7459812 -0.31093878 0.588922 
0.4247049 -0.35316002 0.8336089 
0.51005214 0.534234 0.67412233 
0.8589947 -0.0032766066 0.51197416 
0.7983819 -0.11755272 0.5905656 
0.5792127 -0.002955813 0.81517106 
0.14612626 0.12211545 0.98170006 
0.047893863 -0.054048166 0.9973891 
0.04761817 0.3415436 0.93865895 
-0.009009312 0.010451828 0.9999048 
0.2210762 0.25185007 0.94217676 
-0.11998747 0.03555705 0.99213845 
-0.00526903 -0.63176876 0.77513903 
0.27139235 -0.3830318 0.88296825 
-0.09297094 0.066081375 0.99347353 
-0.13477233 -0.54332703 0.82863265 
-0.65464354 -0.023672039 0.75556695 
-0.22832064 -0.16554917 0.95940775 
0.19398837 -0.12836689 0.9725691 
-0.5168812 0.13513872 0.8453233 
-0.58979815 0.36981454 0.7178965 
0.36087927 -0.4503197 0.81668746 
-0.02033669 0.041865345 0.9989163 
0.011241206 0.5226752 0.8524578 
0.4277926 0.37717897 0.8214193 
-0.118194304 0.4163994 0.9014664 
-0.18441322 0.5494624 0.81491286 
-0.50566006 -0.1992432 0.83941066 
-0.5089328 0.5124911 0.6916215 
-0.057207804 0.47692263 0.87708163 
0.42804652 0.2684688 0.8629605 
0.43044147 0.69369036 0.57750666 
0.97155 -0.23586874 0.021369077 
0.9264307 0.2914698 0.23826803 
0.7640218 -0.21489713 0.60835016 
0.397915 -0.1840714 0.89876664 
-0.9324776 -0.3604121 0.024262443 
-0.6767494 0.16027758 -0.71855503 
-0.6506486 0.5737706 -0.49743712 
0.040027335 -0.72908133 -0.68325573 
-0.16559482 -0.69297725 -0.70168436 
-0.13862711 0.50481445 -0.852024 
-0.20872974 0.11551567 -0.9711273 
-0.31520578 0.19914564 -0.9278935 
-0.03210748 0.18207961 -0.9827595 
0.76779383 -0.11325599 -0.63060737 
0.83944273 -0.12128419 0.5297415 
0.9866874 0.13228606 0.094596505 
0.73249054 -0.21089225 0.64728826 
0.06603372 -0.49921808 0.8639566 
-0.2195203 -0.55441743 0.8027654 
-0.33615172 -0.56503904 0.7534807 
-0.8113297 0.2623352 0.52242166 
-0.42180005 0.9064602 -0.020362427 
-0.82016695 0.31359038 -0.4785263 
-0.5285626 -0.8070719 -0.26316646 
-0.66794324 -0.657063 -0.3494568 
-0.08854146 -0.8693436 -0.48621207 
0.31355253 -0.3559196 -0.8803443 
0.59561723 -0.71157473 0.372695 
0.80406284 -0.38990635 0.44883874 
0.53074044 -0.6016193 0.5969664 
0.9627891 0.054307647 0.264741 
0.7656049 -0.0051060687 0.6432908 
-0.0589721 0.96819025 0.24316654 
-0.44216007 0.7987461 0.40804324 
-0.37140703 0.8187342 0.43787107 
-0.64966685 0.39289036 0.6508227 
-0.4510017 0.8878517 -0.09119731 
-0.4919241 0.61298484 -0.61827207 
-0.44358915 0.23659101 -0.86443824 
0.024705075 0.6609418 -0.7500304 
-0.34780356 -0.31129733 -0.8843793 
0.35363582 0.11580961 -0.92818636 
0.76160395 0.56716424 0.31350318 
0.4268007 0.7309199 0.5325386 
-0.1392678 0.98913395 -0.04710248 
0.11812292 0.9535295 -0.27717975 
-0.11042846 0.64107275 0.7594942 
-0.40120173 0.7407223 0.5388578 
-0.71287334 0.61108077 -0.34408134 
-0.72463703 0.35621142 -0.5899277 
-0.4316698 0.84370667 -0.31909293 
0.18778057 0.8517075 0.48921645 
0.38283795 0.92034435 -0.080008455 
0.79200244 0.6085612 -0.0488399 
0.8413417 0.4276639 -0.33052653 
0.793362 0.53917557 -0.28260678 
0.89591134 0.371947 -0.24289596 
0.9488026 -0.3085372 0.06766432 
0.81591827 0.46794745 0.33956262 
-0.41235346 0.78380454 0.46434397 
-0.20330106 0.8385708 -0.5054383 
-0.17111276 0.44469467 -0.8791855 
0.8234052 0.49023798 0.28578097 
-0.2928496 0.8969468 0.3312488 
0.57042927 0.6525991 -0.4987233 
0.7031255 0.5321847 -0.47158676 
0.8336025 0.37973097 0.40113747 
0.7804796 0.5171079 0.35135615 
0.38784066 0.4667624 0.7948035 
-0.04452235 0.14667526 0.9881823 
-0.79262143 -0.30940905 0.52537364 
-0.17126489 0.26614556 0.9485963 
-0.2654279 0.024366928 0.9638228 
-0.28164306 -0.39022252 0.8765863 
-0.93057495 0.16010231 -0.3292378 
-0.56311786 0.8204928 0.098437294 
-0.26569864 0.9586838 0.101634696 
-0.5336463 0.54139286 0.6497041 
0.07455981 0.4743925 0.8771503 
-0.5238088 0.5780251 0.6257088 
-0.6090008 0.36739147 0.702952 
-0.11018416 -0.07674373 0.99094397 
-0.46138796 0.35328662 0.8138242 
-0.88837385 0.36195877 0.28244978 
-0.9278486 0.10805801 -0.35696006 
-0.9626276 0.26433226 -0.058962435 
-0.33139673 0.6887244 -0.6448527 
-0.33503237 -0.07221649 -0.93943506 
0.625399 0.5445336 -0.55889106 
0.96636325 -0.22956665 0.11593685 
0.94023705 -0.07491419 -0.332178 
0.86733305 0.49304494 0.06811959 
0.8971369 0.24471855 0.36777475 
0.9090848 0.138446 0.3929344 
0.89565873 0.27358532 0.35063756 
0.97083515 0.03487287 0.23719837 
0.9102614 0.31426302 -0.26956087 
0.67541444 0.38208073 0.6307375 
0.023696022 0.86703146 0.49768978 
0.05078239 0.056355383 0.99711853 
-0.2294905 0.85459375 0.46583652 
0.08609332 -0.07894574 0.99315435 
0.16419496 0.63381743 0.7558541 
0.34167105 -0.33110175 0.8795638 
-0.016800648 -0.20200932 0.9792395 
0.16143003 0.34667104 0.9239911 
0.46120802 0.38949627 0.7972327 
0.32803836 -0.2018193 0.9228541 
0.6956331 -0.010665109 0.7183181 
0.63172007 -0.4310579 0.64429724 
0.73016304 0.3258391 0.60057545 
0.40779638 0.10784904 0.9066812 
-0.09295545 0.74493027 0.6606347 
-0.055021297 0.54814565 0.8345712 
0.15607907 0.38420045 0.90996116 
-0.27869657 0.5172774 0.8091677 
-0.6193116 0.4029554 0.6738547 
-0.032226868 0.3030932 0.9524158 
-0.4093323 0.2594732 0.87471175 
-0.7272282 -0.03229255 0.6856358 
-0.5347475 0.7276136 0.4296784 
-0.69739324 -0.026405606 0.7162021 
0.050569456 -0.6426839 0.7644607 
0.07833241 -0.7600996 0.64506805 
0.60208267 -0.6265412 0.49491692 
0.2151699 -0.701802 0.6790993 
0.50763214 -0.5111346 0.6935785 
0.5929957 -0.3645223 0.7179692 
0.083304875 0.058661725 0.9947961 
0.12637103 0.8864918 0.4451546 
0.49775845 -0.0051459363 0.86730057 
-0.472202 0.42851683 0.7703237 
-0.29104382 -0.10515588 0.95091313 
-0.7687967 -0.48988548 0.4110524 
-0.8633688 -0.3562886 0.35728547 
-0.84487325 -0.29648665 -0.44529203 
-0.93834096 -0.2547954 0.23365717 
-0.7478701 0.26297453 -0.6095365 
-0.061243396 -0.058179572 -0.9964258 
0.5582638 0.3007002 -0.77325356 
0.8370434 0.38133964 -0.39235 
0.8858348 0.35625166 -0.2972901 
0.71629846 -0.04649634 0.6962432 
0.634502 -0.17227674 0.7534773 
0.4442009 -0.30085784 0.8439018 
0.21638931 -0.37687427 0.9006339 
0.7531258 0.13532846 0.6438074 
0.7738417 0.13478912 0.61887074 
0.7410288 -0.609228 0.28234324 
0.72378665 -0.38334328 0.57374287 
0.5558678 0.18085457 0.8113586 
0.10748803 0.38887635 0.9149981 
0.740048 0.07133468 0.6687604 
0.98007387 0.029610684 0.19641419 
0.57602364 -0.08787142 0.81269646 
0.74061924 0.012141015 0.67181534 
0.6971771 -0.15303148 0.7003753 
0.004793131 0.71592903 0.6981567 
-0.792646 -0.12408303 0.596922 
-0.9069421 -0.27062747 0.32282636 
-0.8827708 -0.401657 -0.24369514 
-0.54839283 -0.38628143 -0.74165493 
-0.33320284 -0.3902565 -0.8582981 
0.03918882 0.7286835 -0.6837286 
-0.30231842 0.95017093 0.07601919 
-0.06856151 0.42151076 -0.9042279 
-0.18364072 0.509758 -0.8404896 
0.58849716 0.30742824 -0.74776936 
0.76804894 0.26538163 -0.5828152 
0.59687936 0.34103942 -0.7262418 
0.8492199 0.52437747 -0.062078595 
0.4724955 0.6368133 0.60927576 
0.2804966 0.7590081 0.5875614 
0.25144652 0.5845325 0.77142495 
-0.15809374 0.98730445 0.015372978 
-0.42805365 0.7240884 0.54080147 
-0.58369786 0.7340465 0.3470916 
-0.6411283 0.72597086 0.24883904 
-0.4243152 0.9030999 0.06608547 
-0.8216222 0.51832706 0.23722169 
-0.76157486 0.6391992 -0.10690232 
-0.86365575 0.43961513 -0.24665266 
-0.27304074 0.35901764 -0.8924994 
0.46279296 0.26962608 -0.84446704 
0.60466754 0.60004956 -0.5237535 
0.8839318 0.37012303 -0.28578582 
0.723788 -0.049084064 0.6882744 
0.5963362 0.7698281 -0.22748186 
0.8802374 0.4681399 -0.07763489 
0.8708739 0.23771782 0.43019655 
0.8199724 0.33981514 0.46062037 
0.48049316 0.45650843 0.7488167 
0.30899528 0.82778835 0.46828252 
-0.30037937 0.33579856 0.89275515 
-0.45330757 0.37207842 0.80998147 
-0.4504472 0.80816764 0.37942383 
-0.5357348 0.4852679 0.6910162 
-0.9323075 0.36151335 -0.0105278855 
-0.8720127 0.42839038 0.2368029 
-0.8585173 0.0982999 0.5032745 
-0.5823531 0.5643737 0.5851046 
-0.97593546 0.21700644 -0.021406462 
-0.41735917 0.07245762 0.9058483 
-0.9005383 -0.4200239 0.11229718 
-0.9085016 -0.36082235 -0.21078925 
-0.8063925 -0.42700958 -0.40913838 
0.43630642 0.42218208 0.7946062 
0.5087108 0.6888196 0.5164698 
0.30541754 -0.0059185075 0.9522002 
-0.02102216 0.2382818 0.9709686 
0.16898507 -0.21755807 0.96130776 
-0.13703586 0.14320326 0.9801602 
0.0898944 -0.07520562 0.9931078 
0.5610725 0.013499913 0.82765657 
-0.89018774 0.20133162 0.40869495 
-0.45267233 0.59301066 0.66590255 
-0.291362 0.76554006 0.5736347 
-0.37791315 0.8406639 0.38789934 
0.034257527 0.99848497 -0.043062057 
0.13791263 0.89453536 0.42519027 
-0.49284708 0.044225853 0.86899126 
-0.42384747 -0.3900259 0.81745535 
-0.3990101 -0.89960575 0.17748363 
-0.6422918 -0.3867392 0.66173565 
-0.15978305 -0.8219114 0.54674584 
0.13129593 -0.8920665 0.43241066 
0.71067244 -0.5996368 0.36794093 
0.6550861 -0.7230403 0.21926004 
0.6877652 -0.7042428 -0.17612815 
0.3393646 -0.6701592 0.66008973 
0.31299782 -0.56908274 0.76037973 
0.10425621 -0.17412567 0.979189 
0.16935112 0.17427675 0.97002465 
0.2151167 0.39521486 0.89304537 
0.9846805 -0.13254926 0.11329236 
0.9467163 0.14567533 0.2872405 
0.16529366 -0.7444322 0.64691484 
0.27915198 -0.379813 0.881939 
-0.13883963 -0.69555676 0.70492864 
-0.5366764 -0.096846506 0.83821195 
-0.78175825 0.0030912037 0.623574 
-0.5662717 -0.8230132 0.044560518 
-0.05675285 -0.8766634 0.47774518 
-0.42652965 -0.7406997 0.5190727 
-0.14573693 -0.8624656 0.48467898 
0.053339854 -0.94551134 0.3211901 
0.3878684 -0.54328555 0.74457973 
-0.37826124 -0.09983178 0.9203 
0.18967402 0.19008854 0.9632706 
-0.54429257 0.07844334 0.83521986 
-0.8065676 -0.16807976 0.56674325 
-0.029944502 -0.5914155 0.8058108 
0.03977918 0.33043733 0.9429893 
-0.21328694 0.1560979 0.96443886 
0.102786995 0.56116223 0.8212989 
0.39695513 0.2387492 0.8862423 
0.47594434 -0.1519389 0.8662515 
0.503947 0.095554516 0.85843277 
-0.4278784 0.5240874 0.736378 
-0.702432 0.26157966 0.66194063 
-0.8148185 0.5616511 -0.14359279 
-0.73789364 0.5039737 -0.44891375 
-0.46653232 0.82521164 -0.31839183 
-0.076176845 -0.20552084 -0.97568357 
-0.3528604 0.75756884 -0.54916215 
-0.2942407 0.6157162 -0.73096925 
-0.026788417 0.50755656 -0.86120194 
0.23710592 0.2923422 -0.9264539 
0.076932326 0.58224016 -0.8093688 
0.36323798 0.44457704 -0.8187853 
0.9337158 -0.2061544 -0.2927035 
0.92381924 -0.092118375 0.3715807 
0.88378835 -0.46022633 0.0843202 
0.93866956 -0.209239 0.27407762 
-0.020075016 -0.6387556 0.76914775 
-0.46721673 -0.6004928 0.64893526 
-0.84935987 0.12830245 0.51198274 
-0.71374315 0.69908434 0.0430341 
-0.8435235 -0.002587956 0.53708607 
-0.7778018 -0.12703906 -0.61553687 
-0.5140004 -0.42980793 -0.7423401 
-0.1339206 -0.5305012 -0.83703876 
0.016176762 -0.5031088 -0.8640717 
0.89954513 0.24479592 0.36179227 
0.85810465 -0.36417276 0.361987 
0.4711642 -0.5725774 0.6709393 
0.9344399 0.0006479231 0.35612047 
0.55434376 0.093066506 0.82706815 
0.7505795 0.48467568 0.4491324 
0.12900181 0.5229443 0.8425485 
-0.57280153 0.4693967 0.67198604 
-0.100808114 0.79876614 0.5931361 
-0.18190438 0.85414773 0.48717803 
-0.6707326 0.7414541 0.019071585 
-0.21370678 0.9218223 0.32337758 
-0.27977967 0.8442284 -0.45716715 
-0.09838415 0.7389621 -0.66652507 
0.4184071 0.26941907 -0.86738044 
0.64909387 0.7004144 -0.29681104 
0.82980806 0.5001011 -0.24762373 
-0.18752302 0.98207283 0.019186692 
0.4638899 0.859413 0.21497788 
-0.42594817 0.7224911 0.5445869 
-0.7636028 0.6060799 -0.22266103 
-0.9861622 -0.045642037 -0.1593772 
-0.40588406 -0.06175893 -0.9118355 
-0.098849356 0.90679246 -0.40982482 
0.26476958 0.83063406 0.48984104 
0.9334878 0.35847616 -0.0097708395 
0.57417697 0.8164574 0.06097692 
0.6581375 0.57562846 -0.4852907 
0.849989 0.2572889 0.45969683 
0.88388455 0.40154546 0.23981145 
0.9803247 0.16951282 0.10113841 
0.8671664 -0.06894755 0.49322292 
-0.03885903 0.5764214 0.8162283 
-0.024778418 0.9634707 0.26666528 
-0.23782642 0.9712911 -0.0056719054 
0.014428483 0.7356189 0.67724204 
-0.165332 0.569462 0.8052195 
0.37073472 0.8174781 0.440778 
0.88975364 0.45075542 0.071819805 
0.6630335 0.6812281 0.31034645 
0.6632572 0.19579847 0.7223246 
0.582675 -0.013380489 0.81259525 
0.74695 0.26801857 0.60846686 
0.33811268 0.57614213 0.7441372 
-0.20748603 0.16893758 0.96354014 
-0.26996878 -0.0935946 0.9583095 
0.25084677 -0.5989365 0.7604939 
-0.7857074 -0.01059424 0.61850774 
-0.31496826 0.60480744 0.73143905 
0.0325819 0.7675547 0.6401549 
-0.058905475 0.5806578 0.812014 
-0.3942933 0.3710788 0.84073377 
-0.54813147 0.57755727 0.60496247 
-0.76221806 0.21707171 0.6098391 
-0.88385105 0.31971818 0.34144956 
-0.80050194 0.57829255 0.15739861 
-0.9949063 -0.05782334 -0.08257042 
-0.71527267 0.24083644 -0.65603584 
-0.9604579 -0.037413947 -0.27589992 
-0.07940875 0.49955216 -0.8626367 
0.40779406 0.095862836 -0.9080278 
0.92641824 0.0528048 -0.37277463 
0.877173 0.42151988 -0.22997518 
0.5968387 0.76052207 -0.2557143 
0.7756746 0.30244586 0.5539454 
0.37933585 0.4578776 0.80402267 
0.50296426 0.36283213 0.7844615 
0.50760275 0.68200535 0.5265057 
0.7371804 0.13555355 0.66195947 
0.51511395 0.62405145 0.58755213 
-0.13400471 0.08918225 0.9869596 
-0.2166404 0.5891675 0.77842706 
-0.037667416 -0.11010842 0.99320567 
0.3878814 0.5384919 0.74804723 
0.033103324 0.05143245 0.9981277 
-0.11045651 0.086169116 0.9901385 
0.865051 0.22078708 0.45048845 
0.014342945 0.1070672 0.9941483 
-0.18773481 0.5604896 0.8066022 
0.45343444 0.21573304 0.86478704 
0.5469065 -0.69899136 0.460765 
0.4475046 0.69257385 0.5657572 
0.30307108 -0.03313775 0.9523916 
0.64964634 0.65627265 0.3837524 
0.42634648 0.105456196 0.8983918 
-0.042135462 0.13671054 0.98971456 
-0.7567643 0.41285646 0.50681084 
-0.7001226 0.68243456 0.21002737 
-0.51614183 0.71249765 0.47533664 
-0.20045502 0.5982626 0.77582186 
-0.12866485 0.3826574 0.91488725 
-0.39609686 -0.077483155 0.91493374 
-0.24611966 -0.0663335 0.966967 
0.066240065 0.12002712 0.9905583 
0.5396609 -0.4298701 0.7238631 
-0.16929364 -0.92527175 0.3394289 
0.71074504 -0.5810184 -0.3965592 
0.90369505 -0.35378093 0.24119386 
0.43066752 -0.7426923 0.51277053 
-0.34704447 -0.9303437 0.11840931 
0.4790513 -0.37537184 0.7934771 
-0.23857763 -0.78873676 0.5665466 
-0.16883436 0.35299823 0.92026484 
0.37963971 -0.19556765 0.90422726 
-0.47714636 -0.11504506 0.8712612 
-0.30987006 0.079021424 0.94748944 
-0.35899624 -0.42587686 0.8305123 
-0.52342707 -0.7156263 0.4624966 
-0.68537956 -0.6684236 0.28890276 
-0.80864066 -0.58265626 -0.08131546 
-0.78978395 -0.11770502 -0.6019857 
-0.056782775 0.1473559 -0.9874523 
-0.19998385 0.2565336 -0.94561994 
0.5436025 -0.0948553 -0.8339657 
0.90480596 -0.18446964 -0.38379315 
0.7977707 -0.27391732 0.53715116 
0.58390915 -0.25383416 0.77111495 
0.37581804 -0.8976774 0.23007843 
0.18157165 -0.80499643 0.56481194 
0.80641806 -0.4962012 0.32167453 
0.7448233 -0.41881895 0.5194508 
0.6770247 0.23037264 0.69897497 
-0.2352327 -0.20791765 0.9494398 
0.29991043 -0.0030752372 0.95396245 
0.38674158 -0.017973362 0.92201304 
0.52444607 -0.06876862 0.84866196 
0.48885506 -0.059805114 0.8703127 
0.5855247 0.123634584 0.8011713 
0.84142745 0.397102 0.3664832 
0.58565176 0.13505477 0.7992324 
0.63643736 0.108983785 0.7635903 
-0.059440102 0.8844875 0.46276218 
-0.6551873 0.6017885 0.4567059 
-0.37813807 -0.06127178 0.9237194 
-0.8543106 0.49326605 -0.16383573 
-0.039241537 0.8063806 -0.59009373 
-0.4369529 0.8033785 -0.40454322 
-0.3181281 0.9479436 0.0140495505 
0.14564283 0.87391096 -0.46375406 
0.59005237 0.80325705 -0.081341624 
0.6629867 0.67353517 -0.32680142 
0.55808103 0.7606056 -0.33169994 
0.0861247 0.6388661 0.764482 
0.79270977 0.60948306 0.011906701 
0.60595703 0.5407749 0.58341986 
-0.05960678 0.95199066 0.30026796 
-0.40985122 0.7925818 0.45148236 
-0.30776125 0.77397776 0.55339086 
-0.6488916 0.7025838 0.29208857 
-0.6692127 0.30919725 0.6756859 
-0.5733772 0.6730987 -0.4670939 
-0.37862596 0.9254779 -0.011530357 
-0.52044255 0.8356777 -0.17544886 
-0.7680946 0.58260345 -0.26571414 
-0.8866183 0.44085294 0.13984576 
-0.19446799 0.6839993 -0.7030841 
0.4213923 0.32456884 -0.846808 
0.30397478 0.868996 -0.39044258 
0.6229576 0.77663016 -0.093645565 
0.94412595 -0.16950604 -0.282655 
0.7772761 0.60482216 0.17329758 
0.5518567 0.7944298 0.25364444 
0.8159431 0.45985785 0.350382 
0.963427 -0.2449693 0.108620465 
-0.16601777 -0.14478604 0.9754359 
0.54110974 0.36875606 0.7557904 
-0.097443454 0.02905917 0.9948168 
0.11132898 0.6772057 0.72732276 
-0.023754423 0.8815596 0.47147477 
-0.10398291 0.27915353 0.9545999 
-0.8147249 -0.20288427 0.5431956 
-0.30562562 -0.2678934 0.9136882 
-0.7880171 -0.021620626 0.6152737 
-0.33191386 -0.4155603 0.84684294 
-0.7037245 -0.24008346 0.6686791 
-0.007800339 0.2870245 0.9578915 
-0.8744213 0.47648475 0.091376424 
-0.7957251 -0.1709873 -0.5810206 
-0.83170223 -0.14803556 -0.5351233 
0.07505211 0.106358826 0.9914914 
0.19491662 0.29955384 0.9339567 
0.28254777 -0.2519539 0.92557335 
0.40972507 -0.018776866 0.9120158 
0.07554977 -0.69758314 0.7125097 
0.3884459 -0.08481962 0.9175595 
0.5175425 -0.28185144 0.8079044 
-0.01699148 -0.18447475 0.9826904 
-0.41749978 0.15639456 0.89511716 
0.016916685 0.7854681 0.61867094 
-0.36035985 0.3392712 0.868928 
-0.07511707 0.61840546 0.7822609 
-0.41866612 0.3145904 0.8519106 
-0.74960274 0.224615 0.6226106 
-0.75208336 -0.62648594 0.20466098 
-0.3675469 -0.9297874 -0.020120472 
0.21376583 -0.97661906 0.022790857 
-0.22243503 -0.7332274 0.6425733 
0.31609383 -0.94855845 0.017937128 
-0.30291456 -0.9153495 -0.2652889 
0.40263468 -0.8685102 -0.28909403 
0.21976955 -0.03779423 -0.9748195 
0.90363663 -0.16903664 -0.39353207 
0.18055674 -0.98352844 0.008432958 
0.10192076 -0.9698832 0.22122101 
0.7166052 -0.44833106 0.53429985 
0.48641992 -0.8726044 0.044242322 
0.9911322 -0.12864494 0.0332806 
0.8387398 0.08152887 0.53839445 
0.684961 -0.34740683 0.6404194 
0.69208866 -0.5722744 0.43990386 
0.4037951 -0.041785687 0.91389465 
-0.26145506 -0.2042849 0.9433499 
-0.3443081 -0.19792861 0.91775614 
0.0019026204 -0.1466895 0.98918074 
-0.54069316 -0.7886695 0.29266253 
-0.81057155 -0.54369736 -0.21763986 
-0.048957676 -0.84603584 0.5308734 
-0.21193425 -0.67319554 0.7084432 
-0.06779719 -0.9937376 0.08882169 
0.5010917 -0.8574771 -0.11679131 
-0.47761875 -0.6864677 0.5483088 
0.49882528 0.22850497 0.83603764 
-0.07150914 -0.1909559 0.97899044 
-0.26962063 0.20783846 0.9402701 
-0.17744628 -0.04153494 0.9832537 
-0.16689436 0.69990253 0.6944659 
-0.11706613 0.6594174 0.74260646 
0.27999708 0.1509574 0.94805783 
-0.004054177 0.64813155 0.7615177 
0.3592269 0.6946806 0.62319744 
-0.28211075 0.51466393 0.8096509 
-0.10729911 0.082622476 0.9907878 
-0.64621645 0.7121695 0.27426085 
-0.7975423 0.39706725 0.45416304 
-0.26533195 0.81133044 -0.52090484 
-0.37060127 0.9231654 -0.102080815 
-0.356335 0.58472854 -0.72877836 
-0.3174088 0.70311713 -0.6363002 
0.067561984 0.63088214 -0.77293164 
-0.64528495 0.16813397 -0.7452103 
-0.20808308 0.1087508 -0.9720467 
0.075018264 0.87627256 -0.47593996 
0.47188282 0.8458433 0.24874815 
0.66992843 0.6563366 -0.34701338 
0.5997426 0.5032726 0.6221139 
0.8324715 0.2754614 0.48074144 
0.36295992 -0.20111066 0.9098432 
-0.1715266 -0.2700487 0.9474452 
-0.35515544 0.15661797 0.92159396 
-0.6803595 -0.010749592 0.73279977 
-0.6289899 0.14846565 0.76310533 
-0.89095265 0.30719408 0.33441794 
-0.7507337 -0.10437751 0.652307 
-0.7721222 -0.51138794 -0.37723958 
-0.5941213 -0.08566145 -0.79980135 
0.121020086 -0.7227908 -0.680388 
0.7518997 -0.63202417 -0.187596 
0.5617174 -0.80787885 -0.17834075 
0.74951035 -0.58978957 -0.30063698 
0.93638766 -0.33066905 0.117627904 
0.79265946 0.5823779 0.18035255 
0.0019001409 0.8252877 0.56470937 
0.043598548 0.9157638 0.39934453 
-0.2677801 0.83102036 0.48754388 
-0.4904632 0.8222706 0.28864703 
-0.08356255 0.97374797 0.21173623 
-0.28273165 0.95370466 0.1025203 
-0.39815718 0.80826396 0.43379754 
-0.088897735 0.9257935 0.36742836 
0.24649921 0.87178206 0.42336074 
0.45072207 0.88339 -0.12834229 
0.356656 0.90471244 -0.23300658 
0.37476003 0.8638289 -0.3366816 
0.07352306 0.96414703 0.25498018 
0.15314938 0.98724234 -0.043565076 
-0.48335743 0.67395943 0.55869883 