# OOMMF: rectangular mesh v1.0
# Segment count: 1
# Begin: Segment
# Begin: Header
# Desc: Time (s) :  3.009999999999998e-07
# Title: m
# meshtype: rectangular
# meshunit: m
# xbase: 2e-09
# ybase: 2e-09
# zbase: 5e-10
# xstepsize: 4e-09
# ystepsize: 4e-09
# zstepsize: 1e-09
# xmin: 0
# ymin: 0
# zmin: 0
# xmax: 1.024e-06
# ymax: 1.024e-06
# zmax: 1e-09
# xnodes: 256
# ynodes: 256
# znodes: 1
# ValueRangeMinMag: 1e-08
# ValueRangeMaxMag: 1
# valueunit: 
# valuemultiplier: 1
# End: Header
# Begin: Data Text
0.72923404 -0.59899414 -0.33079267 
-0.2587927 -0.10204936 -0.9605271 
0.48722506 -0.4071038 -0.7725791 
0.8617409 0.027633762 -0.5065957 
-0.031034661 -0.54381025 -0.83863425 
0.122784816 0.9795599 -0.15933138 
-0.38318408 0.29868928 -0.874045 
-0.1958138 -0.72222894 -0.6633569 
0.47918972 -0.86380285 0.15563406 
0.91063577 0.37649134 0.17028476 
0.5074864 0.3419579 0.7908998 
0.10176729 0.42060044 0.90152025 
0.04687367 -0.38966155 0.9197645 
0.24112533 0.21068607 0.9473489 
-0.85441905 0.38067248 0.35363325 
-0.28514883 0.95782834 0.035428435 
-0.14303756 0.5977132 -0.78884685 
0.18507539 0.9280487 -0.32322267 
0.18875273 0.40202525 -0.8959622 
0.10058666 0.58931667 -0.801616 
-0.113451 0.5230409 -0.8447231 
0.29812202 0.20154072 -0.93300843 
0.7534217 0.25194985 -0.6073526 
0.59893095 0.44388378 0.6665201 
-0.10830006 0.9319535 0.34602574 
-0.5372131 0.16573696 0.82700264 
-0.75014895 -0.4438032 0.49021968 
-0.86534095 -0.4697703 0.17464554 
-0.38755658 -0.53645104 -0.74968004 
-0.48665988 -0.43917006 -0.75517684 
-0.2180669 -0.4774861 -0.8511486 
0.21685559 -0.8365455 -0.5031553 
-0.021057274 -0.7299935 -0.6831296 
-0.14418852 -0.26194987 -0.9542495 
0.3492772 -0.5066074 -0.7882604 
0.9103906 -0.26311424 -0.3193118 
0.18014959 0.69044024 0.70059866 
0.45265236 0.80012876 0.3935732 
0.51463354 0.8494718 0.11640403 
0.9002624 0.23014733 -0.3695402 
0.818538 0.39810053 0.41413945 
0.505973 -0.26816422 0.81980455 
0.8030171 -0.06435804 0.59247094 
0.33341375 -0.93658423 0.10791302 
0.5465528 -0.5213634 0.6553322 
0.89667493 0.059480898 0.4386753 
-0.1634635 -0.2783478 0.9464683 
0.31557468 0.21141994 0.9250483 
-0.7647121 -0.31906638 0.5598323 
-0.56076086 -0.6924483 0.4539413 
-0.34030354 -0.93019575 -0.13758443 
0.5323197 -0.755414 -0.3820802 
0.42638606 0.22912736 0.87504035 
0.97059983 0.14956166 0.18859321 
0.7267009 0.68527263 0.048035227 
0.6207654 0.016434044 0.7838242 
-0.13253658 0.4174409 0.8989868 
0.6403808 0.7000449 -0.31599 
0.9465536 0.08326181 0.31161475 
0.8849616 -0.19050169 0.42491415 
0.9040784 -0.41312894 0.109393 
0.18713291 0.11075311 0.9760713 
0.49919713 -0.09049748 0.8617497 
0.108523004 -0.4700836 0.87592477 
0.39743155 0.2512801 0.88255686 
-0.74030286 -0.6288031 0.2378201 
-0.537642 0.15810151 0.828218 
-0.7073686 0.065174975 0.70383376 
-0.042226832 0.43666553 0.8986324 
0.13279997 0.21180888 0.9682465 
-0.2566096 0.10688322 0.9605871 
-0.65512085 -0.18428066 0.7327055 
-0.15416776 -0.95820177 0.2410016 
-0.053313483 -0.5910354 0.8048819 
-0.19061263 -0.9531636 0.23483208 
-0.3863325 -0.86856866 0.3103799 
0.7509637 -0.61555904 -0.2390411 
0.7716086 -0.5916424 0.23362252 
0.27207083 -0.51317143 0.8140225 
-0.19616489 -0.019175762 0.9803834 
-0.17113462 0.6394653 0.7495313 
-0.997523 0.0664196 -0.023159843 
-0.66764575 0.7376555 -0.1005662 
-0.11712491 0.39559168 -0.91092753 
0.516929 0.8488113 0.11092214 
0.75472236 0.6472837 -0.10685556 
0.7458054 0.66523004 -0.035262026 
0.72139084 0.22617172 0.65455455 
0.40899777 0.11567928 0.9051735 
0.5069295 -0.51093227 0.6942411 
0.39670312 0.06110169 0.9159112 
-0.4448827 -0.7715005 0.45482585 
-0.9896987 -0.04346839 -0.13640739 
-0.95548826 -0.24518315 0.16409609 
-0.39672005 -0.7942043 0.46027464 
0.44902503 -0.7546161 0.47846752 
0.297131 -0.95243603 0.067666866 
0.0591371 -0.8220292 -0.56636655 
0.22262615 -0.9351882 0.27542835 
-0.18693167 -0.41023138 0.89261794 
0.33264336 -0.92147785 0.20056692 
0.42745075 -0.48979047 0.7598627 
0.34382623 -0.22067346 0.9127358 
0.84946305 -0.14207736 0.5081599 
0.2720911 0.017286874 0.96211624 
0.15908206 -0.15564261 0.9749197 
0.43196857 -0.13734542 0.8913694 
-0.41225398 0.6501428 0.6382485 
0.23767048 0.67201066 0.7013662 
-0.68813586 -0.10628369 0.71775544 
-0.5929442 -0.65847826 0.4634907 
-0.7830574 -0.33027035 -0.527013 
-0.14200652 0.35069814 -0.92565924 
0.8291166 0.53075755 -0.17567606 
0.3243593 0.73496574 -0.59549683 
0.4446866 0.4407952 -0.7797138 
0.5276206 0.84625006 0.074010395 
-0.3523717 0.6388156 0.6839217 
-0.6299677 0.29204914 0.71961665 
-0.584518 0.6839994 0.43644428 
-0.8598231 0.43109837 -0.2736027 
-0.32457048 0.9063186 -0.2706302 
0.09151107 0.947203 -0.3072986 
0.7165679 0.63076633 -0.29776546 
0.6709232 -0.16021572 -0.72401184 
0.5112355 0.18479529 -0.8393385 
0.5491845 -0.18767446 -0.8143555 
0.6486683 0.31899068 -0.6909952 
0.3486708 0.90778154 -0.23315519 
0.35917425 0.9321717 -0.045275964 
0.12129024 0.43669903 -0.89139366 
0.63930273 0.576794 -0.5085281 
-0.09200143 0.15650079 -0.98338366 
-0.22070247 0.24079327 -0.94515026 
0.17865922 -0.94730616 -0.26587957 
0.33051404 -0.58220714 -0.74282926 
0.7581556 -0.55842304 -0.33669546 
0.67660105 -0.6676776 -0.31051198 
0.5642658 0.81627613 0.12368256 
0.5587049 0.55124754 0.6196572 
-0.0004895946 0.6617195 0.7497514 
-0.2795278 0.80462766 0.52386886 
0.098965056 0.88797617 0.44911504 
0.08151199 0.94712543 0.31033733 
0.96090525 0.16209427 0.22446981 
0.3160363 0.35960567 0.8779549 
-0.8753358 0.4484694 -0.18072776 
-0.48831826 0.859643 -0.15019773 
-0.4653184 0.67361295 -0.57421637 
0.4561882 0.23309901 -0.8588115 
0.27265584 0.95839643 -0.0844707 
-0.45366585 0.86683494 -0.20684426 
-0.89743865 0.2640387 -0.35339442 
0.31204113 0.5128777 -0.7997418 
-0.05399378 0.92270744 -0.38170105 
-0.10114105 0.50856566 -0.85506225 
0.18688096 0.82320607 -0.5361037 
-9.367205e-05 0.9699936 0.24313085 
0.15751083 0.7588985 0.63187295 
0.13195656 0.9000651 0.41529548 
-0.19591436 0.59540373 -0.779174 
-0.51535404 0.6460632 -0.56303877 
-0.10571152 0.6149274 -0.7814662 
0.6109524 -0.0035608236 -0.7916594 
0.28817087 0.5567542 0.77909076 
0.19655742 0.8013455 0.5649874 
-0.031385608 0.70950115 0.7040051 
0.11550939 0.7262383 0.67766917 
-0.06440412 0.9961604 0.059300903 
-0.117850006 0.8934599 0.4334061 
0.06208369 0.99512064 0.07668452 
-0.25085676 0.46370646 -0.84973365 
0.3207833 0.056582805 -0.9454611 
0.12710722 0.8726741 -0.47146958 
0.030510888 -0.18524326 -0.9822189 
0.2834813 0.095252275 -0.9542355 
0.072682716 0.9030315 -0.42338085 
0.65735745 0.30513856 0.68903685 
-0.5920466 0.62220454 0.51219374 
-0.65628046 -0.16030386 0.7372915 
-0.7050909 0.6988356 -0.12031491 
-0.9144995 0.25262612 -0.3160231 
-0.84151274 0.29709795 -0.45120862 
-0.8653554 0.4999921 -0.034177195 
-0.8092262 0.57653505 0.112961434 
-0.18285432 -0.48236117 0.85667497 
-0.43604717 0.18949465 0.879747 
-0.3553645 0.81359535 -0.46019426 
-0.33511373 -0.087838374 -0.9380742 
-0.4858111 0.32931843 -0.8096523 
-0.2787153 -0.13775949 -0.9504421 
0.063542485 -0.20927262 -0.9757907 
0.28515255 0.7365999 -0.61327696 
0.5853124 -0.0065703085 -0.8107812 
0.39319116 0.8510551 0.34800288 
0.13407551 -0.16161062 0.97770435 
0.49223346 0.033813756 0.86980635 
-0.6225434 0.5065656 0.59651583 
-0.3820282 -0.08212985 -0.920494 
0.13665515 0.1337518 -0.9815477 
-0.1767669 0.3453167 -0.9216886 
-0.36281994 0.8662369 -0.34350455 
-0.5627454 -0.159766 -0.81104404 
0.45618376 0.444543 -0.7708943 
-0.4517304 0.84784484 -0.2776665 
-0.774319 0.47463825 -0.41850778 
-0.32772234 0.9360451 -0.12813194 
-0.36752468 0.67786026 -0.6367347 
-0.35669297 0.84339076 -0.40182358 
-0.5250705 0.62383455 -0.5789055 
-0.19639522 -0.059789807 -0.9787003 
-0.46875733 -0.40833348 -0.78328186 
0.5075271 -0.5389193 -0.6722962 
0.74789894 -0.6490033 0.13943444 
0.98731035 -0.1461403 0.062139336 
0.79539174 0.3074323 0.5223384 
0.75718266 0.43462333 0.4876238 
-0.25839382 0.84471965 0.46870172 
-0.333592 -0.358201 0.8720141 
-0.8308822 0.33811122 0.44194537 
-0.97097653 0.22898045 0.06908487 
-0.8994212 0.39193898 -0.1934568 
0.16081408 0.9851841 -0.059593033 
0.072990656 0.9404084 -0.33212098 
0.24315578 0.9689893 0.043989472 
0.56427103 0.7993194 0.20660754 
0.6435144 -0.2805103 -0.71218204 
0.9173093 -0.35179073 0.18651313 
0.83175856 0.52839077 0.1702383 
0.4508225 0.8669136 -0.2126499 
0.4971807 0.8631608 -0.08811905 
0.41966462 0.5449422 -0.72589236 
0.26776537 0.89060444 -0.36759415 
-0.51135635 0.80982643 0.2875689 
-0.55616796 0.72624356 0.40403917 
-0.91096276 0.050950356 -0.40933004 
-0.9371557 0.02094936 -0.3482821 
-0.2717562 0.003339023 -0.9623604 
-0.9543716 0.29034394 0.069823414 
-0.9105389 0.3705922 -0.18324961 
-0.5361906 -0.32874113 -0.77745026 
0.5094911 0.04823115 -0.8591232 
0.18373396 0.18476494 -0.9654552 
0.35886374 0.89537895 -0.26365387 
0.19576637 0.92924166 0.31334588 
-0.05575206 0.6203633 0.7823307 
-0.20467128 0.7650387 0.6105944 
-0.49271 0.8168885 -0.29988328 
-0.48365518 0.6439388 -0.5928074 
-0.4460032 0.16507427 -0.8796771 
-0.64151275 0.031084249 -0.7664824 
0.29662913 0.65958136 -0.69062555 
0.85602856 0.4972174 -0.14138651 
0.68967056 0.50610733 -0.5178899 
0.09001555 0.9938786 -0.06405064 
-0.35855195 0.7694685 0.52854407 
0.29308134 -0.33599538 -0.8951037 
0.19045676 0.45250157 -0.8711881 
0.42414737 0.15846775 -0.8916205 
0.9875666 -0.09555132 -0.12482863 
0.84627026 -0.40543726 0.34561166 
0.84837383 0.47484913 0.23405175 
0.88334495 0.13995665 -0.4473409 
0.9210666 0.109407574 -0.3737196 
0.9373905 -0.30850384 0.16163096 
0.7972146 -0.39178452 0.45929706 
0.71317303 0.40253326 0.5738914 
0.6608507 0.34359428 0.66724765 
-0.09874927 -0.000306048 0.99511236 
-0.5826954 0.32086948 0.7466652 
-0.43969226 0.3877873 0.81011844 
-0.7214681 0.6841778 0.10669872 
-0.5114096 0.7573583 -0.40604025 
0.061133243 0.7275938 -0.683279 
-0.6685285 0.5367466 -0.51475513 
-0.17691958 0.9414829 -0.28689614 
-0.19528705 0.8434023 -0.50053525 
0.035525978 0.5137435 -0.857208 
0.1948432 0.8572542 -0.47660398 
-0.097869776 0.8481525 0.5206333 
-0.28379932 0.8286899 -0.48242196 
-0.68105614 0.5794149 0.44770622 
-0.89136714 -0.39882588 0.21541259 
-0.9069499 -0.02820628 -0.4202932 
-0.6615011 -0.1963959 -0.7237714 
-0.73425245 -0.49415693 -0.46549153 
-0.26924747 -0.20450664 -0.9411073 
-0.8020941 0.23304799 -0.5498489 
0.006739297 -0.36776632 -0.9298939 
0.3924831 -0.07851223 -0.9164022 
0.007585152 -0.15243682 -0.9882841 
0.7931015 -0.41640463 -0.4445191 
0.89786 0.41024983 0.15982103 
0.83288634 -0.06839229 0.5492022 
0.7978432 -0.04039288 0.60151035 
0.79531336 0.58743954 0.14963812 
0.99057555 -0.13543487 -0.02043288 
0.7586519 -0.5563312 0.33903238 
0.46832794 -0.8326708 0.29551384 
0.085888885 -0.99507195 0.049547825 
0.40042555 -0.63034666 0.6650733 
0.043953657 0.092151456 0.99477446 
-0.11902323 -0.4586288 0.88062084 
-0.61967075 -0.48835784 0.6144223 
-0.27133998 -0.8313243 0.48505113 
-0.4809176 -0.85867876 -0.17716984 
-0.0009423 -0.8503178 -0.52626884 
0.2516549 -0.8762877 -0.4108403 
0.63743776 -0.5419065 0.54773223 
0.7935894 -0.38668567 0.46977657 
0.9782201 0.19458304 0.07226895 
0.66016835 0.6707423 0.33805704 
0.72655636 0.09594776 0.6803748 
0.71819943 0.26576543 0.643085 
0.5752391 0.17348202 0.7993773 
0.9997133 0.022116888 0.009173668 
0.7772796 -0.6225369 0.09101862 
0.5367415 -0.57642424 0.6161524 
0.47041336 -0.18066755 0.86375374 
0.596262 -0.31414992 0.73877037 
0.5592428 0.05441114 0.82721645 
-0.4325868 -0.17235465 0.88496476 
0.06167382 0.35898906 0.9313019 
-0.26850972 -0.057100445 0.9615832 
0.26863194 -0.28510496 0.9200826 
0.49545607 0.17235617 0.85136175 
0.37268227 -0.12875055 0.9189839 
-0.5665681 -0.5596954 0.6047658 
-0.77482086 -0.6090127 0.169576 
-0.29944113 -0.87092596 -0.38964486 
-0.6167196 -0.71014845 -0.3396266 
-0.0017220341 -0.99880666 -0.048810173 
0.3434842 -0.83207196 0.4355169 
0.7397879 -0.5655662 0.36448428 
0.35478193 -0.18235295 0.91699356 
0.8111151 -0.34162793 0.47474486 
0.5120928 0.29106244 0.8081111 
0.5649008 0.7231129 0.39748576 
-0.14479102 0.32025588 0.9362008 
-0.5492412 0.8339692 -0.053193916 
0.087731645 0.96456933 0.2488157 
0.7863367 0.52767587 0.32129884 
0.41534486 0.8390725 0.35134903 
0.556946 0.24818772 0.79259956 
0.24597593 -0.31405926 0.91698563 
0.62228596 -0.0003230647 0.78279 
0.61314213 0.22238602 0.75802463 
-0.32113144 0.689621 0.6490743 
-0.8613269 0.35600773 0.36245635 
-0.44344586 -0.49731833 0.74567443 
-0.40154818 -0.88857836 0.22178309 
0.18436411 -0.84635967 -0.49968514 
-0.12617007 -0.935376 0.330383 
0.16252778 -0.98599285 -0.0374544 
0.05460379 -0.99388707 -0.09595343 
-0.28195596 -0.7753913 0.56503916 
0.41114774 -0.8385541 -0.35746983 
0.5494037 -0.70654184 0.4460428 
0.30974776 -0.34058627 0.887726 
0.32509506 -0.496857 0.8046405 
0.25810945 -0.48741135 0.83415216 
0.18709503 -0.18560752 0.9646478 
0.15455781 -0.15488583 0.9757676 
0.24236071 0.53708357 0.80796194 
-0.7093342 0.18484224 0.68020475 
-0.9515752 -0.13717793 0.2751125 
-0.8496598 -0.47002828 -0.23906438 
-0.6704227 -0.28206408 -0.68627495 
0.37822047 0.58205676 -0.71983284 
0.8172309 0.4696369 -0.33402836 
0.75671107 0.23653324 -0.60945904 
0.28996143 0.88440084 -0.36572874 
0.37195605 0.8442519 -0.3858595 
-0.8063122 0.5913526 0.012760027 
-0.75262445 0.6212304 0.21824127 
-0.7904534 0.5040392 0.34803462 
-0.6322171 0.7492634 0.19724579 
-0.37735257 0.92567444 0.027053133 
-0.55745715 0.31850693 -0.7666779 
0.4935003 0.869605 -0.015641257 
0.3841679 0.7537801 -0.53313285 
0.3978017 0.7118502 -0.5788119 
0.7749595 0.61327726 -0.15273766 
0.74650437 0.26532695 -0.6101908 
-0.047586933 0.72395426 -0.68820477 
0.2289771 0.41660672 -0.87977743 
0.4225695 0.54563934 -0.7236801 
0.5456687 0.7803016 0.3055738 
0.3176784 0.843396 -0.43331718 
0.15215233 0.637331 -0.7554197 
0.4229321 -0.8110349 -0.40416694 
0.49098018 -0.8667409 -0.087742396 
0.3471097 0.05206934 -0.936378 
0.94409055 -0.09965317 -0.31426492 
-0.12791485 0.7696872 0.62547547 
0.011258126 0.95494664 0.29656404 
0.2255406 0.96876603 0.103073016 
-0.3529808 0.9157694 -0.19175796 
0.59720236 0.80144054 -0.0322876 
0.7369782 0.642648 -0.20944417 
0.86370736 0.0071704076 -0.5039428 
-0.23438112 0.9630546 0.13263287 
-0.4005948 0.8314809 -0.38491985 
-0.34975564 0.87791544 -0.32701007 
-0.3513992 0.9219618 -0.16280366 
0.010027211 0.99663955 -0.081297174 
-0.05499558 0.86597186 0.4970597 
-0.3895789 0.9187087 0.0648275 
-0.32249197 0.74209523 -0.587617 
0.46838123 0.8485583 -0.24610552 
0.52607185 0.8322451 0.1749762 
-0.39701414 0.8014256 -0.44732207 
0.084374845 0.87494206 -0.47682002 
0.30529132 0.95105726 0.047826942 
0.09227301 0.41823417 0.90364033 
0.071177654 0.9904353 0.118202336 
-0.66173506 0.621751 -0.41896582 
0.28550997 0.8202117 -0.49571845 
0.02740128 0.6694867 -0.7423185 
0.6442118 0.4678125 -0.6050973 
0.61403763 0.7177527 0.32831228 
0.05718101 0.719949 0.6916674 
0.5571939 -0.13237934 0.81976265 
0.12262709 0.44057903 0.8892991 
-0.6978272 0.6460113 0.30936506 
-0.46899623 0.8175916 0.33404574 
-0.91017395 0.4098782 -0.05986067 
0.08776632 0.7303875 -0.67737085 
-0.15862653 0.96638715 -0.20232041 
-0.33913648 0.87373024 -0.3486859 
-0.923575 -0.17809437 -0.33954623 
0.5090754 0.66248107 -0.54950994 
0.5584256 0.811475 -0.17224723 
-0.0039175763 0.92216474 0.38677767 
-0.29505706 0.9301193 0.21867669 
-0.7949258 -0.12262935 0.59418434 
-0.93187016 0.36275822 0.0049606096 
-0.69831926 0.6652576 0.264164 
-0.9342082 0.311328 -0.17415483 
-0.3749207 0.91297555 -0.16096687 
-0.6057465 0.55496347 0.57016385 
-0.27494192 -0.41837567 0.8656609 
-0.9720544 0.05802963 0.22747067 
-0.7456271 0.5155624 -0.42217955 
0.25547206 0.21469586 -0.94267696 
0.59233713 0.38118187 -0.70981485 
0.49839878 -0.033553265 -0.86629844 
0.66172475 0.3052606 -0.6847893 
0.4549867 0.59176093 -0.6654368 
0.5439652 0.8355623 -0.07705629 
0.5206463 0.75159025 0.40501806 
0.65712804 0.08203763 0.7493015 
0.080519974 0.7371804 0.6708812 
-0.82314014 0.56756467 -0.017624808 
-0.79814 0.56833005 -0.19993374 
-0.35395133 0.80224055 -0.48075837 
0.5957706 0.5119144 -0.6188708 
-0.6129248 0.5709278 -0.54622763 
-0.49242336 0.079694994 -0.86669946 
0.11697212 0.9478727 -0.2964031 
-0.32261422 0.84695065 -0.42260447 
-0.46696445 0.25575814 -0.8464821 
-0.7596074 0.54001087 -0.36247087 
-0.6132021 0.45471352 -0.6459248 
-0.4794176 0.87114817 -0.10611193 
-0.190951 0.87078136 -0.4530758 
-0.5383333 0.63495135 -0.55410653 
-0.42891064 0.30929548 -0.84874725 
0.9477548 -0.009641668 -0.31885412 
0.8616541 -0.4752608 -0.17798752 
0.86355776 0.20133896 0.4623101 
0.80385226 -0.088013045 0.5882816 
0.10697046 0.99038297 0.0877435 
0.1556914 0.9668127 0.20256718 
0.06712295 -0.17781016 0.98177296 
-0.7852537 0.19581625 0.58739483 
-0.787103 0.46803457 0.4017617 
-0.38643163 0.84452343 0.3707436 
-0.053003736 0.68105495 -0.73031145 
0.29285428 0.58747697 -0.754392 
-0.050067663 0.9780508 -0.20226175 
0.4226638 0.17944843 0.8883432 
0.98582727 -0.14442632 -0.08535645 
0.85797054 0.51357484 0.011295369 
0.72590667 0.5886818 0.3556871 
0.6606887 0.3685868 0.6539376 
0.3859083 0.44588387 0.8076277 
0.73221225 0.09882566 0.67386854 
-0.13222422 0.7471672 0.6513508 
-0.17461868 0.75364846 0.63365793 
0.23520698 0.91601276 0.32495916 
-0.9243686 0.17810766 -0.33737272 
-0.87632644 0.07742876 -0.4754544 
-0.22582537 0.22024082 -0.94894516 
-0.7348794 -0.3603203 -0.5745621 
-0.9659833 -0.1134152 0.23240769 
-0.8197482 -0.4581444 -0.34368104 
0.09737441 0.49528095 -0.8632585 
-0.28401318 0.4450569 -0.84927094 
-0.16464865 0.5496029 -0.8190406 
0.025129132 0.9572759 0.28808224 
-0.15003023 0.8956112 0.4187738 
-0.58614546 0.65708685 0.47399423 
-0.33831325 0.90216357 0.26766634 
0.1539866 0.7746604 -0.6133429 
-0.38467228 0.7493643 -0.5389623 
0.13235058 0.7827283 -0.6081281 
0.3717166 0.30515152 -0.8767607 
0.6894561 0.20725848 -0.69404197 
-0.29038438 0.93372893 -0.20934986 
-0.36048415 0.9227641 -0.13622682 
0.008493603 0.99669987 -0.08072903 
-0.111523256 0.07849946 -0.9906566 
0.6712932 0.33308396 -0.6621334 
0.24219164 0.41131374 -0.87872875 
0.92555714 0.07158062 -0.37178007 
0.8928425 -0.353349 -0.27924344 
0.97146934 -0.19159712 -0.13977833 
0.9697711 0.06853415 0.23419474 
0.3721189 -0.18398197 -0.9097683 
0.48290533 -0.57505965 -0.6603854 
0.7690931 -0.5975025 -0.22690658 
0.87851244 0.3318342 0.34365982 
0.5929224 0.3247337 0.7368793 
-0.006419992 0.8587719 0.5123179 
0.17946443 0.6213486 0.7627047 
-0.008847011 0.39195004 0.919944 
-0.6175283 0.77689993 -0.12282199 
-0.35942543 0.93295604 -0.020163348 
0.21954949 0.92742544 -0.30278713 
0.014785936 0.9802325 -0.197296 
0.18684988 0.9767992 0.104644574 
-0.071428515 0.9628402 0.26045486 
0.11359451 0.9793304 0.16735679 
-0.14587687 0.78781766 0.598384 
0.58240753 0.71844196 0.38031906 
0.043416202 0.4454891 0.894234 
-0.62098557 0.223938 0.75115156 
-0.890721 -0.17649962 0.41888434 
-0.9577822 -0.047610357 -0.28352535 
-0.65250397 -0.43416676 -0.621078 
-0.3620082 0.39570516 -0.84401864 
0.26208773 0.01531941 -0.9649225 
-0.5137736 -0.19811751 -0.83473724 
0.27706864 0.058025096 -0.9590965 
0.21436739 0.27863485 -0.93616736 
0.69392323 0.005531964 -0.72002774 
0.88473696 0.46233204 -0.05907326 
0.9273454 -0.006753986 0.37414584 
0.9652591 0.21878268 -0.1428608 
0.84895194 -0.3879851 -0.35881492 
0.44286326 0.18541214 0.87720835 
0.78202206 0.38941827 0.4866158 
0.58779305 0.7415288 0.32347256 
0.7912181 0.0067863767 0.61149657 
0.9799775 0.10322029 -0.1702638 
0.782488 0.15815592 0.6022453 
0.37732965 -0.60814464 0.69841427 
-0.09331846 -0.46022084 0.8828865 
-0.18487434 -0.859906 0.47579753 
-0.2852604 -0.95707 0.05141568 
0.16306666 -0.96986365 -0.18103546 
0.08491886 -0.6531132 -0.75248384 
0.30534527 -0.67757124 -0.6690751 
0.9677208 -0.23542255 0.0899593 
0.8498972 -0.5069759 0.14370227 
0.9240099 -0.24158691 -0.29638046 
0.68765736 0.45976472 -0.5619108 
0.8669164 0.15618385 0.47335243 
-0.26165017 0.21029139 0.94197494 
0.41734594 -0.84088475 0.34457973 
-0.2854748 -0.94266516 -0.17287724 
0.66359055 -0.5548191 0.5018201 
0.6824136 -0.4228359 0.5962564 
0.9450989 -0.18141304 0.27180427 
0.642533 -0.5817709 0.49869242 
0.41516763 -0.2685445 0.8692064 
-0.31882203 -0.2681284 0.9090983 
0.0102717355 -0.65479386 0.7557377 
0.2666795 -0.66945094 0.69333804 
0.062385853 -0.40971133 0.9100794 
-0.34689268 -0.42503133 0.8360705 
-0.47129107 -0.63792825 0.6090422 
-0.0677067 -0.80405724 0.5906843 
-0.33657813 -0.71003765 0.6185158 
-0.16935454 -0.92311984 0.34520826 
-0.44552994 -0.8903765 -0.09344904 
-0.4096463 -0.8982878 0.15896273 
-0.19796534 -0.9680426 0.1539587 
0.114564925 -0.9432718 -0.3116299 
0.76353276 -0.61874014 -0.18487427 
0.8763574 -0.43757862 0.20130275 
0.6026805 -0.5961159 0.5304924 
0.22775328 -0.3821535 0.89559317 
0.40299067 -0.15600842 0.90180933 
0.38873553 0.33354786 0.8588543 
-0.12350259 0.86938095 0.4784599 
0.6673144 0.2767916 0.69143176 
0.39914742 -0.04613989 0.9157252 
0.6600857 -0.015605273 0.75102824 
0.53055245 -0.62929 0.5678981 
0.1526913 0.041013833 0.9874225 
-0.28533602 -0.16818003 0.94355655 
-0.74622977 0.033468794 0.6648466 
-0.22775489 0.70407254 0.67261404 
-0.60281795 0.24682449 0.75874126 
-0.48520455 -0.63589025 0.60018355 
-0.7980881 -0.026953174 -0.60193765 
-0.42171264 -0.45074064 -0.78676015 
-0.17984748 -0.78051865 -0.5987033 
0.3024631 -0.5959994 -0.74384195 
0.55633944 -0.80191076 -0.21777403 
0.77288294 -0.62264836 0.12231527 
0.7301293 -0.68082905 -0.058164507 
0.76881593 -0.61293876 0.18228644 
0.3970005 -0.9017609 0.1709329 
0.331379 -0.8343214 0.4405633 
0.35446256 -0.43652892 0.82692134 
-0.5829205 -0.4578557 0.6712466 
0.11272461 -0.09663783 0.9889158 
-0.19199531 0.16670212 0.9671341 
-0.80293804 0.1067468 0.5864262 
-0.9141867 -0.19741976 -0.35396084 
-0.44948843 -0.43031755 -0.7828072 
0.01304187 0.75789666 -0.6522443 
0.36035573 0.15222712 -0.9203102 
0.56245345 0.6916904 -0.45300174 
0.14531052 0.9893566 -0.0076421294 
0.17999117 0.9563291 0.23029941 
-0.14285594 0.9697579 0.19789387 
-0.18744685 0.9680009 0.166847 
-0.7142072 0.69867206 0.04201778 
-0.64292324 0.3606592 0.67570305 
0.34037074 0.9388082 0.052793365 
0.37835336 0.55524987 -0.74063915 
-0.66527426 0.69622445 -0.26959553 
0.30978248 0.8192647 -0.48253518 
0.23440152 0.82178885 -0.5193448 
0.044299714 0.9988484 -0.018427422 
0.38166592 0.86530924 -0.32491735 
0.04624837 0.99463016 -0.092585355 
-0.5751455 0.5602638 -0.5960806 
-0.43581372 0.63337576 -0.63945407 
0.43244174 0.751169 0.49873766 
0.24120176 0.96077496 0.13686967 
0.6617558 0.60694444 -0.44011104 
0.491658 -0.28503588 -0.82281655 
0.81680965 0.31609246 -0.48260504 
0.7895637 0.59996295 -0.1289712 
0.84593046 0.3332996 0.41630873 
-0.11685776 0.82406807 0.55430686 
-0.017274993 0.99231786 -0.12250303 
-0.41891038 0.6900801 0.5901725 
-0.7370267 0.6751925 0.030113023 
-0.11694945 0.9278733 0.35408193 
0.18019967 0.94859755 -0.26017466 
0.031479232 0.6719009 -0.7399718 
-0.6358986 0.5811906 0.50778985 
-0.098936506 0.99206793 -0.07754235 
-0.0766485 0.4122575 -0.90783745 
-0.103775404 0.91708624 0.3849461 
0.16935107 0.93765646 -0.30351374 
-0.08814034 0.9655925 0.24466816 
-0.46226332 0.82478124 0.32565093 
-0.101400346 0.8835611 -0.45720673 
0.2137493 0.9759765 0.04220253 
-0.0090782 0.9692592 0.24587439 
-0.64680743 0.7625869 -0.0100633595 
-0.014946702 0.952721 0.30347872 
0.10218326 0.68199897 0.7241796 
0.28423095 0.84299946 0.45668894 
0.043231446 0.93284845 0.35766572 
-0.5778892 0.7855711 -0.22118379 
-0.6478354 0.4478315 -0.6162438 
0.06311203 0.63940877 -0.7662724 
0.43813255 0.7414044 0.5082906 
0.514133 0.7931199 0.32653978 
0.5754834 0.48436832 0.6589433 
0.48144847 -0.1976878 0.8538894 
-0.46401456 0.74919015 0.472657 
-0.6319129 0.6149551 0.47171637 
-0.23518296 0.7200493 0.6528538 
-0.9696154 0.11526763 0.21577634 
-0.39076138 0.6325739 -0.66869706 
0.33018062 0.89822567 -0.2901234 
-0.6261362 0.7687115 -0.13052255 
-0.66577035 0.74608463 -0.010378048 
0.09400629 0.97691053 0.19185582 
0.23707959 0.9539979 -0.18352488 
-0.118210785 0.40869555 0.904983 
-0.64289546 0.75382066 0.13579345 
-0.8522872 0.4453049 0.27442688 
-0.72851276 0.44258285 -0.5228667 
-0.7844674 0.62000275 -0.014406066 
-0.6296141 0.77657187 -0.022854568 
-0.8836467 0.3992973 -0.24439777 
-0.19814074 0.89718777 -0.39470777 
-0.58566713 0.48196587 0.6516924 
-0.83919215 0.53416634 -0.1020928 
-0.34659103 -0.20883548 -0.91447383 
0.05808952 0.42258367 -0.9044604 
-0.048528954 0.6855416 -0.72641426 
0.1469493 0.60211664 -0.78476846 
0.55996114 0.5959727 -0.575552 
0.6566964 0.59931344 -0.45779178 
0.65895814 0.75207597 0.012492125 
0.51110965 0.8579197 0.05235132 
0.40030417 0.8725981 0.2798735 
0.07660795 0.7207874 0.68890995 
-0.40820253 0.8589235 0.30922654 
0.6053869 0.71681994 0.34594217 
-0.7547062 0.59836626 0.26902887 
-0.46174005 0.8785857 0.121997364 
-0.7198229 0.68961227 0.07930977 
-0.012333915 0.92841315 -0.3713448 
0.42577744 0.86755913 -0.25701115 
0.48394978 0.77017826 -0.4154736 
0.33986244 0.8995984 -0.27425578 
0.4862122 0.53767294 -0.68884367 
-0.51679367 0.75371844 -0.40599623 
-0.2870373 0.9254048 -0.24745806 
-0.36548573 0.91539705 0.16872633 
-0.20014463 0.88216174 -0.4263014 
-0.30364183 0.607812 -0.7337345 
0.8142991 -0.44884875 -0.3680376 
0.9058837 0.005763856 -0.42348722 
0.8684464 0.27946767 0.4095104 
0.6838255 0.390553 0.61632067 
-0.046473283 0.25305545 0.966335 
0.6859014 0.7248863 0.063868776 
0.5948808 0.35337347 0.7219724 
-0.23254247 -0.28361595 0.930315 
-0.68380696 0.236286 0.6903456 
-0.5501991 0.7909493 0.26773173 
-0.4063925 0.90429 0.13078552 
0.16560115 0.978915 0.119590394 
0.6368992 0.5720941 0.51678616 
0.8214219 0.19630261 0.535473 
0.72118944 0.34877887 0.5985308 
0.9426753 0.29543853 0.15517552 
0.57402456 0.16651712 0.80172807 
0.35222286 0.58391553 0.7314245 
0.57684517 0.37048337 0.7280054 
0.18914911 0.28810528 0.93873215 
-0.4974209 0.20419218 0.84313595 
-0.62876385 0.5620093 0.53740263 
-0.31408834 0.66605556 0.6765491 
-0.9930233 0.05550596 0.10403762 
-0.7547458 -0.060480624 -0.6532236 
-0.40175 -0.3506503 -0.8459559 
0.13586314 -0.3555291 -0.92473793 
-0.15547664 -0.85510695 -0.4945901 
-0.7787252 -0.00593818 -0.6273372 
-0.28965098 0.120932736 -0.94946176 
0.48791155 0.6470195 -0.585925 
0.40272793 0.6528476 -0.6415608 
-0.67296267 0.6781 -0.29546884 
0.0033141377 0.92401934 -0.3823316 
-0.26128182 0.7748361 0.5756395 
-0.12978849 0.98942626 0.06473572 
0.121052735 0.9560674 -0.26698622 
0.18846868 0.8860816 -0.42348433 
0.42282355 0.8264057 -0.37185198 
0.7131819 0.33335432 -0.6166413 
0.33331704 0.90813607 0.25335485 
-0.55566823 0.6561962 0.51052856 
-0.5679771 0.7746415 -0.27808776 
-0.6844526 0.69870436 0.20817533 
0.84901005 0.44048768 -0.29180923 
0.63778085 0.39123648 -0.66345286 
0.32093033 -0.13411945 -0.9375584 
0.3229749 0.7423768 -0.5869957 
0.6334089 0.67688656 -0.3749905 
0.907134 0.37014288 0.20025551 
0.961215 -0.24803667 0.12059711 
0.95289177 0.29193938 -0.082272165 
0.6616951 0.29333165 -0.69001174 
0.968963 0.060378917 -0.23971875 
0.6122885 0.49739343 0.6145752 
0.50616145 0.30003783 0.8085653 
0.47963232 0.80494636 0.34930527 
0.42434618 0.70498455 0.56826675 
0.20705913 0.33503792 0.91917145 
-0.0116693815 0.95921016 0.28245294 
-0.25333285 0.72022647 -0.64583004 
0.413734 0.712177 -0.56712264 
0.2581437 0.8651912 0.42989087 
0.3107926 0.91023564 -0.27364042 
0.16287099 0.98103005 0.105134465 
0.47408512 0.84238243 0.2561937 
0.028872948 0.7807256 0.6242067 
0.3326175 0.41792548 0.8454017 
0.017875144 0.4506682 0.8925126 
-0.68385965 0.42620015 0.5921904 
-0.8795552 0.4701546 0.07305754 
-0.8440656 -0.2864923 0.4532939 
-0.81219554 -0.38533506 -0.4380129 
-0.9346533 0.16195026 -0.31653652 
-0.35012603 0.47160578 -0.8093207 
-0.24960825 0.30553198 -0.91888297 
0.1707929 -0.14756356 -0.9741945 
0.17877729 -0.021216594 -0.98366076 
0.3306895 0.24883787 -0.910343 
0.8039961 -0.43718046 -0.40306765 
0.9368011 0.08113925 -0.34032395 
0.8612006 -0.05677813 0.50508416 
0.13477026 0.113674775 0.9843349 
0.44325924 -0.30578738 0.84262407 
0.94351757 -0.28564307 0.16787714 
0.8826834 0.31490755 0.34885997 
0.8307978 -0.25404868 0.49521154 
0.79412633 0.41500446 0.44399855 
0.68903154 0.42831707 0.58461964 
0.4479949 0.1506392 0.88125384 
-0.08785508 -0.32041904 0.943193 
-0.66237706 -0.7479083 0.04347239 
0.1917159 -0.93583184 -0.29574296 
-0.39322755 -0.8291739 -0.39729425 
-0.12116966 -0.39940822 -0.9087305 
0.4057475 0.1318113 -0.90443057 
0.72857165 -0.6581125 0.18992455 
0.71081835 -0.7011851 -0.055468827 
-0.044235725 -0.99901503 0.0035006767 
0.8855122 0.45699158 -0.0838265 
0.4752593 0.01143136 0.8797716 
-0.65549386 0.4548089 0.6028904 
-0.46153954 -0.23346424 0.855848 
0.38494867 -0.90699047 -0.17083026 
0.49650913 -0.34175813 0.7979224 
0.70559525 -0.51351166 0.48830447 
0.9039712 -0.23564288 0.35680333 
-0.0036328435 -0.9478379 0.31873244 
0.36153594 -0.28777954 0.8868341 
-0.092173524 -0.6009315 0.7939682 
0.06083132 -0.76648086 0.63937986 
0.18551888 -0.55998975 0.8074616 
0.45834795 -0.5715937 0.68058646 
0.15939102 -0.62094325 0.76747894 
-0.8564881 -0.5111173 0.07202227 
0.0287286 -0.9995872 -0.0005189287 
0.8248518 -0.4080005 -0.39135042 
-0.06848077 -0.8418283 -0.5353835 
-0.08762927 -0.98556226 -0.1448734 
0.16023912 -0.9841179 -0.07638969 
0.12275912 -0.9919553 -0.03090218 
0.07846697 -0.74866194 -0.658292 
0.66127443 -0.70540714 -0.2551803 
0.74285626 -0.66790074 0.045532636 
0.2819322 -0.9584375 -0.043724783 
0.6521101 -0.44830602 0.61137074 
0.39969885 -0.48549318 0.77751994 
-0.12551124 -0.057131432 0.99044585 
-0.23402537 0.038021255 0.9714868 
-0.053359378 -0.037434645 0.9978735 
0.35511377 0.31841052 0.87892497 
0.5247797 -0.53709215 0.6604077 
0.42958355 -0.41902712 0.7999214 
0.20549007 -0.58872306 0.78177947 
-0.51620966 -0.07694787 0.8529987 
-0.5891409 -0.017517311 0.80784047 
-0.13380621 0.7717324 0.6217114 
-0.5629903 -0.22125015 0.79629785 