# OOMMF: rectangular mesh v1.0
# Segment count: 1
# Begin: Segment
# Begin: Header
# Desc: Time (s) :  3.039999999999998e-07
# Title: m
# meshtype: rectangular
# meshunit: m
# xbase: 2e-09
# ybase: 2e-09
# zbase: 5e-10
# xstepsize: 4e-09
# ystepsize: 4e-09
# zstepsize: 1e-09
# xmin: 0
# ymin: 0
# zmin: 0
# xmax: 1.024e-06
# ymax: 1.024e-06
# zmax: 1e-09
# xnodes: 256
# ynodes: 256
# znodes: 1
# ValueRangeMinMag: 1e-08
# ValueRangeMaxMag: 1
# valueunit: 
# valuemultiplier: 1
# End: Header
# Begin: Data Text
-0.91899836 0.14489213 -0.36667198 
0.0137866745 0.960228 -0.27887645 
0.28302434 -0.07054478 -0.95651484 
0.91178185 0.27857944 -0.30174085 
0.48588645 0.6090228 -0.6269016 
0.20777467 0.4980421 -0.841893 
0.8321313 0.41317004 -0.36992976 
0.83974123 -0.16647583 -0.5168371 
0.67014647 0.41363657 -0.61628616 
0.57684064 0.39193752 0.7166867 
0.21645758 -0.18728742 0.95815957 
-0.71005464 -0.19396299 0.6769054 
-0.85882604 -0.23417746 0.45560825 
-0.9467157 -0.17673397 -0.26924816 
-0.89383733 -0.4403943 -0.08430752 
-0.4464783 -0.6871953 -0.5730793 
0.4432886 -0.8885392 0.11829331 
-0.7770233 -0.5357049 0.33053747 
-0.81053424 -0.07026684 -0.581461 
-0.24153982 -0.2079689 -0.9478436 
0.36569816 -0.07539974 -0.9276744 
0.081774384 -0.3749057 -0.92344934 
0.38877574 -0.25339657 -0.8858012 
0.48865786 -0.16718796 -0.856307 
0.96537656 -0.03257191 -0.25881892 
0.96001667 0.2759036 -0.047384165 
0.9155979 0.39240423 0.087746896 
0.7466549 0.05026232 0.66330993 
0.8992619 -0.34372786 0.27051672 
0.59538126 0.6831169 0.42293322 
0.7279958 0.61176205 0.30946636 
0.17609854 0.26393178 0.94832987 
0.13642325 0.86240894 0.48748285 
-0.31470755 0.7181125 0.6207041 
0.31553066 -0.26492983 0.91118205 
-0.2523903 -0.35684082 0.8994242 
-0.120236196 -0.89676 0.4258694 
-0.6282295 -0.7571373 0.17908324 
-0.374642 -0.68905544 0.62035954 
-0.4949792 -0.379254 0.7817685 
0.4448399 -0.8187378 0.36302325 
0.1555171 -0.4857165 0.8601709 
-0.89653146 -0.05805216 0.43916 
-0.40222773 -0.050078787 0.914169 
-0.61387664 0.24106076 0.751695 
0.06238603 -0.010111198 0.9980009 
-0.6018392 0.4037233 0.6890553 
-0.33081928 0.91188717 -0.24294123 
0.37185782 0.9247306 -0.08121037 
0.45848462 0.8854096 0.076432206 
-0.45399323 0.7943612 0.40358445 
-0.41129503 0.8612212 -0.29855418 
0.033992253 0.5875857 0.8084477 
0.31093004 0.2443277 0.9184915 
0.8457852 -0.31006566 0.43417364 
0.34647638 -0.35695326 0.8674898 
-0.5622532 0.008609097 0.8269204 
-0.83463037 0.31091887 0.45466653 
-0.8839063 0.06834146 0.46264362 
-0.33378842 -0.08967622 0.93837285 
-0.4171326 -0.296825 0.8590084 
-0.5825033 -0.6683653 0.46257734 
-0.64550626 -0.75339496 0.12537065 
-0.7991011 -0.41589132 -0.43413347 
-0.66052413 -0.04751942 -0.7492996 
0.3186524 0.07163249 -0.9451611 
0.93184936 -0.19805649 -0.30402395 
0.5865885 0.099050835 0.80380535 
-0.10658542 -0.13992122 0.98440933 
0.09695249 0.18905395 0.9771688 
0.041925367 0.8025196 0.5951509 
0.8627157 0.18801111 0.46943945 
0.609778 0.4911251 0.6220668 
0.35151866 0.5011983 0.790718 
0.1623302 0.93704295 0.3091916 
0.08935822 0.76887417 0.6331253 
-0.63397586 0.65553623 -0.41030103 
-0.49554056 0.24390851 -0.8336355 
0.33123958 0.9310991 -0.15275732 
-0.11304483 0.966929 0.22862437 
-0.0407206 0.75390106 0.6557248 
0.018030459 0.7690534 0.6389302 
0.2515517 0.93062276 -0.26582533 
-0.123663664 0.6575338 0.743207 
-0.0069173547 0.31281587 0.9497887 
-0.30921757 0.86178106 -0.4021417 
0.017498903 0.99507695 0.097548306 
0.11447361 0.7807937 0.61421263 
0.41124758 0.34180236 0.8450127 
0.6695649 0.7425069 -0.019143103 
0.60206497 0.79278666 -0.094907105 
0.8696533 0.49188778 -0.041828737 
0.7756683 -0.23226973 0.5868471 
0.12169747 0.17478414 0.977057 
0.1666553 0.07477946 0.9831756 
-0.2475803 0.7755769 0.580676 
-0.5109779 -0.14163545 0.8478449 
-0.31129834 -0.7659826 0.5624624 
-0.8282703 -0.18511392 0.528868 
-0.69553876 -0.18930443 0.6931015 
0.18488237 -0.4556341 0.8707561 
0.4321533 -0.56368816 0.7039171 
0.43796143 -0.30366266 0.84615535 
0.12325932 0.24510431 0.9616294 
-0.6586782 -0.285423 0.6961873 
-0.26051593 -0.8660065 0.4268069 
-0.32274714 -0.61763483 0.7171901 
0.18897632 -0.4690295 0.86272794 
0.28888664 -0.4593011 0.83999234 
0.0544358 -0.9979135 0.03471876 
0.41423208 -0.45126155 0.790427 
-0.08326563 -0.2828787 0.95553476 
0.46143848 0.016836705 0.8870124 
0.061958753 -0.7814795 0.62084705 
0.79111654 0.027314035 0.61105525 
0.4759413 -0.4832743 0.73479646 
-0.64903545 -0.11320864 0.7522878 
-0.4231472 0.452614 0.7849122 
-0.41058162 0.49549714 0.7654446 
-0.26180807 0.64693624 0.7161914 
-0.52792424 0.314345 0.7889761 
-0.13449748 -0.122026235 0.98337185 
-0.08436665 0.2135726 0.9732775 
0.42380393 0.8961213 0.13174546 
0.5619947 0.3812836 0.7340197 
0.29687735 0.37806994 0.87688476 
0.3104745 0.43771645 0.8438069 
0.009536076 0.38501182 0.92286235 
-0.1886496 -0.0017316784 0.98204297 
-0.007671894 0.9593967 0.28195578 
-0.22976825 0.9730227 0.020817628 
0.7052698 0.5480809 -0.44966853 
0.23819025 0.7442684 0.62396306 
0.7696859 0.017363701 0.63818663 
0.3835408 0.88612866 0.26013947 
0.2038381 0.9628364 0.17718945 
-0.40203476 0.46428582 -0.78918105 
-0.31479895 0.026604548 -0.9487855 
-0.23671013 0.121031545 -0.9640124 
-0.259137 -0.10184063 -0.9604565 
0.442575 0.39830637 -0.8034173 
0.44166064 0.11084459 -0.8903086 
0.829436 0.34138632 0.4421441 
-0.26844373 0.57742846 0.7710477 
-0.18531343 -0.9626028 0.19762263 
-0.25581303 -0.5445503 0.7987645 
-0.6538067 0.25245306 0.71330523 
-0.67414016 0.5232377 0.5213036 
-0.61588603 0.7863217 0.04881244 
0.045028917 0.8854314 -0.4625837 
0.30923343 0.95067054 0.024498358 
-0.15004528 0.017078374 0.9885316 
0.016167704 -0.1557927 0.9876575 
0.48567528 -0.21625322 0.8469676 
-0.08090082 0.3207511 0.9437022 
0.14778629 -0.36839554 0.9178475 
-0.50822216 -0.37600663 0.7748091 
-0.98772323 -0.0056173606 0.15611309 
-0.6455976 0.7484397 -0.15179525 
-0.3588433 0.75070465 -0.55468386 
-0.49698797 0.5857205 0.6402613 
-0.40045822 0.33823586 -0.8516042 
-0.39173648 0.057279624 -0.91829276 
0.085581645 0.3196263 -0.9436709 
-0.26752472 0.5097375 -0.81767863 
0.38523856 0.5360131 -0.75118655 
0.95936626 -0.27982637 0.036242377 
0.147466 -0.38111374 -0.9126917 
0.66892207 0.18692848 -0.719445 
0.778159 -0.05225917 -0.62588936 
0.7554753 -0.37243283 -0.5390278 
0.98794043 0.067490414 -0.13935117 
0.04113407 0.71958923 0.6931807 
-0.08348883 0.37817174 0.92196304 
-0.562798 0.18496403 0.8056344 
-0.4741402 0.14935999 0.8676882 
-0.27834672 0.9106914 0.30522835 
-0.900037 0.43067515 0.066725604 
-0.8874121 -0.46051133 0.020716319 
-0.68100494 -0.6768765 -0.27941132 
-0.43976444 0.6222882 0.6475837 
-0.6452562 0.67107046 -0.36511502 
-0.50422865 0.8154474 -0.28425193 
-0.40700728 0.5031295 -0.7623686 
0.5396701 0.6333993 -0.55458224 
-0.9115166 0.37127957 -0.1768874 
-0.8738186 0.028122503 0.48543826 
-0.6194004 -0.7796631 0.092025466 
-0.1366927 -0.9235964 -0.35816872 
-0.0025300407 -0.7104182 -0.7037753 
0.63814384 -0.39765093 -0.659277 
0.8920016 -0.25935328 -0.37022847 
0.69660103 -0.36780423 0.616009 
0.166159 0.21142474 0.9631671 
0.6694835 0.22893886 0.70666754 
0.078418456 -0.047411427 0.99579257 
0.471203 0.7674988 0.43464193 
-0.3925105 0.37345293 0.84051687 
0.08406529 -0.038726702 0.99570745 
-0.27384713 0.26703978 0.9239576 
-0.73836344 -0.114361465 0.66463596 
-0.2731835 0.4257401 0.86262167 
-0.3153079 0.9202078 0.23194546 
-0.85823745 0.11448736 0.5003212 
-0.84334785 -0.4915008 0.21723571 
-0.8623808 0.50625986 0.00067261735 
-0.9304014 -0.0634553 0.36100808 
-0.99061555 0.1230399 0.059515465 
-0.69603705 -0.097115256 -0.7114078 
-0.57128 -0.3604614 -0.7373648 
-0.9489523 -0.31355765 0.03422452 
-0.73806316 -0.6747305 0.0012601651 
0.46392736 -0.854616 -0.23324427 
0.36237466 -0.5995231 -0.7136222 
0.07177558 -0.71001196 -0.7005222 
0.55053806 -0.750253 -0.36609855 
0.68438375 -0.43015736 0.5887136 
0.9619785 -0.21283369 0.1711699 
0.94358283 -0.27791852 0.18003534 
0.6436661 -0.5962743 -0.4797406 
0.9379651 0.2548253 -0.2351287 
0.98362786 0.17523411 0.04206184 
0.5579325 -0.18592718 0.80879074 
-0.32618943 8.099694e-05 0.94530445 
-0.036420163 0.27354363 0.96116984 
-0.3827849 0.86215794 0.33190286 
-0.7485147 0.66049004 -0.058980152 
-0.775255 0.51170164 0.37032583 
-0.8843333 0.36643988 0.28926897 
-0.80818635 0.58869475 0.016532317 
-0.96072274 -0.1200788 0.25018567 
-0.7420907 0.56760544 -0.35654652 
-0.31765503 0.3677527 -0.8739871 
0.9975205 -0.036301076 -0.060292225 
0.81104577 0.11703939 0.573155 
0.46757752 0.87247515 0.14198016 
0.5731368 0.81888866 0.03058682 
-0.02219954 0.9352205 0.35336939 
0.3935394 0.7361859 -0.5505971 
0.10640833 0.9920389 -0.067351535 
0.26023668 0.9039515 0.33933556 
-0.6323783 0.547501 0.5480333 
-0.20271005 0.9765007 -0.07317955 
-0.38888294 0.7032269 -0.5951824 
0.033072796 0.9105722 -0.4120251 
-0.18951362 0.8930559 -0.40808818 
-0.6328565 0.09222627 -0.76875687 
-0.16029277 0.97892886 -0.1265092 
-0.28111255 0.7989957 -0.5315843 
-0.7002399 0.47494918 -0.53299844 
-0.49365616 -0.013103415 -0.86955845 
-0.50028944 -0.47352257 -0.72490484 
-0.6051248 0.72618103 0.32632077 
-0.9469699 -0.18148199 0.2651646 
-0.9472133 0.15369748 -0.2813611 
-0.18655044 -0.06442866 -0.9803305 
0.051557917 -0.75561446 -0.65298456 
0.3766559 0.8223264 -0.42650852 
0.47691506 0.6298326 -0.6130767 
0.7252197 0.68836033 0.014710833 
0.47868457 0.8426554 -0.24656239 
0.41879737 0.90562767 0.06668889 
0.5093502 0.8575293 0.072152056 
0.54126835 0.5484287 0.6373811 
0.57812786 0.752163 0.31625816 
0.57490814 0.018432228 0.81801033 
-0.097589135 -0.45855638 0.88329065 
-0.5564523 -0.15585326 0.81613153 
-0.83580106 0.18702939 0.51619446 
-0.9914077 -0.06470425 -0.11368514 
-0.90222335 -0.33103997 -0.27641562 
-0.8101168 -0.44541812 -0.38120022 
-0.9733417 0.023603542 0.22814193 
-0.9200988 -0.39162582 0.006902579 
-0.97051275 0.16050857 -0.1798389 
-0.3988248 0.5960645 -0.6968831 
0.01106999 0.19984014 -0.979766 
-0.41375056 0.20345357 -0.8873653 
0.0073291496 -0.11056689 -0.99384165 
0.9421127 -0.28002623 -0.18441558 
0.78368974 -0.6141515 0.092997275 
0.8192081 -0.10184751 0.5643805 
0.49403584 0.8692914 0.016159227 
0.63864 0.6202352 0.45546392 
0.50897545 0.84683573 -0.15431502 
0.82392067 0.37220883 0.4273352 
0.111037165 0.59322214 0.79734457 
-0.16620706 0.20203014 0.96517307 
-0.052651715 0.3771265 0.92466396 
0.31455964 -0.09705591 0.9442629 
0.5513606 -0.28048885 0.785702 
-0.60570025 -0.142888 0.7827581 
-0.321988 -0.8703405 0.3726004 
-0.9688953 -0.20534708 0.1381103 
-0.7005719 -0.49010792 0.5186457 
-0.6747302 -0.29585293 0.67617327 
-0.3960845 -0.8592836 0.32364917 
0.0027166158 -0.27071482 0.96265584 
-0.573787 -0.36220002 0.73456097 
-0.5806346 -0.06857651 0.81127113 
-0.72124743 0.17295144 0.6707384 
-0.5407411 0.0879519 0.8365784 
-0.6241258 -0.60968137 0.4886264 
-0.0030764134 0.19967492 0.9798574 
0.77935743 0.059753954 0.62372386 
0.4928176 0.33477226 0.80315524 
0.0137412725 0.46294332 0.8862814 
-0.5257522 0.6431674 0.55670506 
0.27228093 0.55691826 0.78466886 
0.8907984 0.41834214 0.17739287 
0.64647204 -0.29370418 0.7041391 
0.46339536 0.030371893 0.88563114 
-0.6366855 -0.3807114 0.6705896 
-0.80269116 -0.049795277 0.59431255 
-0.43204814 0.44287014 0.7856212 
-0.4366902 0.42097571 0.7950353 
-0.89678603 -0.26405215 0.35503727 
-0.67081344 -0.7310136 0.12501378 
-0.56718 -0.81279916 -0.13290812 
-0.5160474 -0.65424824 -0.55286026 
-0.6748223 -0.14772993 -0.7230428 
0.40203077 0.18488963 -0.8967649 
0.96867967 -0.15608501 -0.19312468 
0.84423137 -0.48607892 0.2258337 
0.45986062 -0.3312395 0.8238984 
0.12537068 0.084421776 0.9885117 
0.36154544 0.46644333 0.80728894 
0.5142645 0.024928508 0.85726935 
-0.027064025 0.6225019 0.78215027 
0.8540023 0.39356625 0.3402732 
0.63245016 0.5506447 0.544791 
0.08629766 0.53848743 0.8382029 
0.02488164 0.48142022 0.87613666 
0.38754898 0.86315304 0.32368606 
0.37953603 0.8221121 0.42436317 
0.3006515 0.82309115 0.48179844 
0.030541299 0.5595129 0.8282588 
0.058437314 0.6041264 0.79474306 
0.21040969 0.5090265 0.8346375 
0.29923877 0.036265228 0.9534889 
0.3846434 -0.33162916 0.8614358 
-0.37026334 0.49317867 0.78719753 
0.81810814 0.31282637 0.48253372 
0.5346826 0.6200634 0.5741394 
0.62697256 0.7682298 0.1293385 
0.67356825 0.67891407 0.29220116 
0.78284997 0.5670362 -0.25615597 
0.7109968 0.4323773 0.55455697 
0.54399216 0.20351213 0.81403655 
0.79447234 0.5250108 0.3052497 
0.3547034 0.7667921 0.5349911 
-0.4154246 0.8044993 0.42450365 
-0.1996855 0.5662472 0.799681 
-0.4660844 -0.22961602 0.85442483 
-0.25647917 0.5136357 0.8187777 
-0.051792745 0.22749466 0.9724011 
0.41509122 -0.40374103 0.8152869 
0.13016915 -0.5084817 0.8511771 
-0.39980397 -0.77436525 0.49042362 
-0.34310123 -0.44696492 0.82613796 
-0.4166686 -0.612912 0.67136145 
0.10260846 -0.9814502 0.16194755 
-0.15326521 -0.5149624 0.8434 
-0.4027466 -0.47843954 0.7803145 
-0.38469577 -0.872525 0.30118024 
0.15146197 -0.9882217 0.021843283 
0.6480197 -0.5700041 0.5051395 
0.7810604 -0.40337214 0.47669226 
0.8630206 -0.33301273 0.37986577 
0.5125228 -0.49233195 0.7035124 
0.33620968 -0.41571632 0.8450699 
0.67987573 -0.14122778 0.7195997 
-0.025647588 -0.6585101 0.7521348 
-0.918182 -0.38385695 0.09795708 
-0.98448783 0.15229629 0.08711883 
-0.028916953 0.48682222 0.8730224 
0.31208938 -0.48438272 0.81729656 
0.023678368 -0.6157035 0.7876221 
-0.16922244 0.62505454 0.7620174 
-0.08263761 0.7241882 0.68463314 
-0.09314143 0.21681501 0.9717592 
-0.16345541 0.3656331 0.91629416 
0.17494388 0.2352565 0.9560591 
-0.022764597 -0.13752374 0.9902369 
0.12770794 -0.1813058 0.9750995 
-0.37476853 -0.063118465 0.9249674 
0.29804924 0.64048654 0.7077738 
0.14013697 0.59533423 0.7911629 
0.66192454 0.15838762 0.7326455 
0.5192206 0.26737565 0.8117391 
0.75607204 0.37718356 0.5348718 
0.32544795 0.86725956 0.37675533 
0.47883683 0.10532001 -0.8715636 
-0.04193511 0.59913766 -0.7995471 
0.47068024 0.6154311 -0.63222206 
0.012085965 0.3075922 -0.9514415 
0.8755708 0.2792053 -0.3942338 
0.5545421 0.342773 -0.7582808 
0.8513272 0.3108973 0.42259303 
0.14681497 0.013266609 0.989075 
0.56736445 -0.28939155 0.770941 
0.835795 -0.29654482 0.4620693 
0.08660028 0.6354205 0.76729476 
-0.05453717 0.7164493 0.6955042 
-0.3642357 0.9296241 -0.05596027 
0.21857275 0.9063357 0.3616376 
0.29863465 0.6595908 0.68975174 
-0.1730648 0.17040671 0.9700568 
-0.64407074 -0.29167885 0.7071749 
-0.3947782 -0.2911418 0.871428 
-0.14203522 0.0073617673 0.9898343 
-0.0179983 -0.07357556 0.9971273 
-0.47948816 0.38523367 0.78847075 
-0.81681895 0.57589966 0.033858042 
-0.9017085 0.42258573 0.091341466 
-0.5619938 0.7854154 -0.25939494 
-0.6380182 0.4563005 0.62026024 
-0.76939356 0.638359 0.023049701 
-0.6740082 -0.2873289 -0.68055505 
-0.63925743 0.19740643 -0.7432232 
-0.39985836 0.507676 -0.7631372 
-0.083372466 -0.04772367 -0.99537504 
0.7766567 0.14082281 -0.61398154 
-0.06892178 0.62506217 -0.77752626 
0.64579207 0.73956877 -0.1897122 
0.7316346 0.6130031 -0.29822502 
0.97342205 0.20664434 -0.09872999 
0.04600144 0.7093535 0.7033502 
-0.059832048 -0.024422312 0.9979097 
0.110163 0.29245082 0.9499141 
0.35573137 -0.21320938 0.90994346 
-0.12781484 0.053927507 0.9903309 
0.12885088 0.9484998 0.28938848 
-0.2563196 0.74093115 0.62074256 
-0.97565967 0.021141922 0.21826881 
-0.8641456 0.37139636 0.33958393 
-0.8221282 0.08574111 0.5628087 
-0.41368154 0.9077309 0.06994594 
-0.753358 0.64393806 0.13339971 
-0.68686223 0.52713376 -0.5003502 
-0.47356775 0.84758264 0.23945202 
-0.7373957 0.66423845 0.1226172 
-0.7152262 -0.64481103 -0.26957446 
-0.83427906 -0.41077557 -0.3677524 
-0.5033752 -0.713877 -0.48681948 
0.09744135 -0.9035551 -0.41724494 
-0.016014578 -0.64337 -0.7653879 
0.37310693 -0.1511493 -0.91539353 
0.77619946 -0.2530463 0.577479 
0.42504856 0.7602928 0.49121135 
0.739779 0.40338203 0.5385258 
0.018314283 0.4218388 0.90648586 
0.15413888 0.6696528 0.72650284 
-0.302567 0.11693652 0.9459276 
-0.95681167 -0.10423676 0.27137834 
-0.94463 0.22085796 0.24268481 
-0.5217633 0.106057994 0.8464719 
-0.87831646 0.255111 0.4043249 
-0.37473822 0.8566783 0.35450476 
-0.5689324 0.18654369 0.80094784 
-0.9668713 -0.14633587 0.20915446 
-0.8056808 0.5888719 -0.06409625 
-0.9008449 0.2301851 -0.36809415 
-0.79902965 -0.58741933 0.12841448 
-0.6030646 -0.7902344 -0.10882477 
-0.76576185 -0.64307487 -0.007975869 
-0.81773245 -0.53998053 -0.19933574 
-0.394999 -0.49816146 -0.77188784 
-0.3172503 -0.5856392 -0.74590826 
0.35852668 -0.28723204 -0.8882322 
0.5460989 0.14978914 -0.8242204 
0.7502543 -0.0005019199 -0.66114926 
0.9773537 0.015652066 -0.211033 
0.6141073 0.15733346 0.7733812 
0.9071743 -0.103224024 0.40789667 
0.9835063 -0.13802715 -0.116893075 
0.93993914 -0.16474086 0.2989566 
0.8947238 0.27998167 0.34796503 
0.6565991 0.29108232 0.695808 
0.025706172 0.037255894 0.9989751 
0.10605458 0.88626546 0.4508727 
-0.35967472 0.6852777 0.6332682 
-0.364017 0.7112037 0.6013992 
-0.46138865 -0.0016419559 0.8871967 
-0.52289116 0.06412943 0.84998375 
-0.78777516 0.5936952 0.16412276 
-0.9801607 -0.1593968 -0.11780343 
-0.63690513 0.016989361 -0.770755 
-0.29222578 0.32409662 -0.8997586 
0.47557622 0.4150229 -0.7756181 
0.9131958 0.23327392 -0.334151 
0.51736736 0.8157048 0.25876033 
0.36850172 0.92940533 0.020306237 
0.16975032 0.9085885 -0.38164368 
0.38728988 0.62850946 -0.67452395 
0.5787505 0.5701651 -0.5830607 
0.43184367 0.72258323 0.53980047 
0.2718792 0.8666305 0.41836974 
-0.34383163 0.9344161 0.0929858 
-0.6110877 0.78476757 -0.10349772 
-0.6205396 0.7753308 0.117442615 
-0.657577 0.7519702 -0.046190213 
-0.52069926 0.6397366 -0.5653401 
-0.15264831 0.98753303 0.038433872 
-0.52119315 0.6457852 -0.55796 
-0.57519436 0.5455629 -0.6095183 
-0.755302 -0.090799615 -0.64905655 
-0.663946 0.17867546 -0.7261204 
-0.3930783 0.8095967 -0.4359388 
-0.4095747 0.8032525 -0.43247434 
-0.6868753 0.18667147 -0.7023932 
0.35499245 0.73154706 -0.58208185 
0.67461 0.18654025 -0.71421576 
0.5948023 0.6337127 -0.49458927 
0.48566604 0.829829 0.27479511 
0.75549394 0.60773414 -0.24472058 
0.17692533 0.09595312 -0.9795359 
0.3467303 0.9375288 -0.028599313 
0.4365335 0.82805705 -0.35179546 
0.94794375 0.3159636 0.039620403 
0.43371227 0.5611759 0.70496476 
-0.17018837 -0.3069749 0.9363772 
-0.034260705 -0.77724475 0.62826496 
-0.67754483 -0.29944697 0.6717623 
-0.93586266 0.27842838 0.21596044 
-0.9282612 -0.26882288 -0.257032 
-0.83145267 -0.4645829 -0.3047119 
-0.6156413 -0.7229014 -0.3136868 
-0.99911857 -0.026608884 0.032466847 
-0.99897885 -0.029426828 0.03428467 
-0.962347 -0.10178064 -0.2520496 
-0.36346236 0.56886923 -0.73775536 
-0.37693852 0.5881254 -0.7155599 
0.18776047 0.2524715 -0.94921243 
0.43490133 -0.38735363 -0.81290716 
0.4862579 0.22330166 -0.84480155 
0.97364163 -0.19106288 -0.12456769 
0.98684686 0.1342314 -0.09008433 
0.9314535 0.3638604 0.00029123857 
0.6351971 0.50510174 0.5842919 
0.8245643 0.45942137 -0.33019054 
0.6603041 0.58916235 0.46571046 
0.4323167 0.6634118 0.6107268 
0.5050516 0.36796317 0.7807215 
0.36507037 0.07989271 0.9275456 
-0.021087792 0.13017362 0.99126697 
-0.542303 0.027089996 0.83974624 
-0.5852289 -0.46953258 0.66109484 
-0.52717054 -0.8440084 -0.09869752 
-0.7559243 -0.19086568 -0.626218 
-0.9299735 -0.34803593 -0.11840761 
-0.6013154 -0.6242524 -0.49872723 
0.43093234 -0.90096366 -0.05061568 
0.6399256 -0.19800043 0.7424898 
0.038697172 -0.52464277 0.85044265 
-0.28156957 -0.5046194 0.81613594 
-0.83829933 0.32643837 0.43668315 
-0.964104 -0.25416243 -0.07684335 
-0.9265786 -0.37597805 -0.009633352 
-0.39633432 -0.6389419 0.6592969 
0.3000369 -0.48558223 0.8210894 
-0.033550836 0.062357984 0.9974898 
0.46279287 0.5708919 0.6781632 
0.39636365 0.5396522 0.7427459 
-0.62143004 0.5502335 0.5577345 
0.17591421 0.45460498 0.8731487 
0.075027704 0.2922804 0.95338506 
-0.06024983 -0.09304927 0.993837 
0.2977473 -0.09269894 0.9501334 
-0.6227387 0.5571861 0.5493088 
-0.35211048 -0.42675596 0.83300525 
-0.5543836 -0.02120806 0.8319911 
-0.861463 -0.21648955 0.45936233 
-0.37398872 -0.7751088 -0.5092533 
-0.52875227 -0.6267561 -0.57236165 
-0.67022663 -0.55969757 -0.48737547 
-0.7968485 0.051256366 -0.6020011 
-0.7341102 -0.44831517 -0.5099959 
0.97225887 -0.20146999 0.118838556 
0.97196007 -0.2014012 -0.12137269 
0.9065359 -0.2561437 0.33553392 
0.62404007 -0.42332682 0.6567865 
0.4927049 -0.6838204 0.5381742 
0.4112304 -0.31819895 0.8541891 
0.13740839 -0.42874795 0.8929133 
0.68605196 0.23807469 0.68749774 
0.7542204 0.45805266 -0.47046718 
0.19671161 0.47641313 0.8569336 
0.36957204 0.7325336 0.571674 
0.31024155 0.91453356 0.2595739 
0.354635 0.66923785 0.6529585 
0.5858265 0.61312926 0.5299811 
0.38100538 0.8472357 0.37017128 
0.35969114 0.41009176 0.8381211 
0.77126646 0.31529552 0.5529348 
0.25624877 -0.097054355 0.96172607 
0.09512596 -0.21391462 0.97220963 
-0.2070078 0.23955981 0.9485562 
-0.028622292 0.27218908 0.9618181 
0.0636156 -0.082202934 0.99458325 
0.7595943 0.33858097 0.5553192 
0.9786773 0.033961695 -0.20257705 
0.89635617 0.30280507 0.32381284 
0.8545207 0.32622224 0.40419492 
0.7666002 0.16067965 0.62169635 
0.4154807 0.67495644 0.60976195 
0.12356491 0.7812782 0.6118303 
-0.27605528 0.2962934 0.9143324 
-0.07657923 0.8294701 0.5532767 
-0.4183417 0.4035114 0.81373763 
-0.39469978 0.11197647 0.91196126 
-0.41049227 -0.25655383 0.87502927 
-0.8965552 -0.11174399 0.42860487 
-0.56137234 -0.7201674 0.40770105 
-0.5120115 -0.6497647 0.5618274 
-0.77577263 -0.5885795 0.22748865 
-0.105055384 -0.95625395 0.27302325 
-0.15809388 -0.985319 0.0644434 
-0.019014632 -0.67865574 -0.73421043 
0.15514436 -0.9857484 -0.06504174 
0.32998204 -0.93543136 -0.12680726 
0.8233245 -0.56231385 0.077071555 
0.9068367 -0.20761688 0.36680037 
0.98594314 0.092375524 0.13922238 
0.84461635 -0.3685594 0.38831323 
0.3785294 0.01860966 0.92540216 
-0.05016598 0.21647094 0.9749994 
-0.2741961 -0.0060566003 0.9616547 
0.008541655 -0.5453025 0.8381958 
-0.11216306 -0.28845295 0.9509019 
-0.47503778 -0.3518346 0.80656785 
0.23706825 -0.93455696 0.26533365 
0.0417955 -0.33965433 0.9396212 
-0.42412165 -0.81642085 0.39189002 
0.09800747 -0.5236935 0.8462503 
-0.46213597 0.16628656 0.8710793 
0.4458255 0.626042 0.63977426 
-0.51605475 -0.526469 0.67566115 
0.13862765 -0.83821917 0.52741927 
0.5440087 -0.71192306 0.4440948 
0.172183 -0.78265595 0.5981661 
-0.14924216 -0.6879156 0.7102809 
-0.11790265 -0.4479288 0.88626117 
-0.14896515 -0.1560591 0.97645026 
0.5820179 0.48728287 0.6510075 
0.35611302 0.37542766 0.85570884 
0.4269326 0.20821732 0.87998533 
0.56140924 0.8220472 -0.095174894 
0.44927454 0.85827965 -0.24800885 
-0.17005876 0.92906934 -0.3284968 
0.10936614 0.6814159 -0.7236791 
0.4053164 0.63186085 -0.6606592 
0.95243514 0.30473113 0.0025321876 
0.93442506 0.34702623 -0.08014209 
0.6342594 0.30664045 0.70970887 
0.41164917 -0.43214884 0.8023667 
0.5743701 0.25574246 0.7776214 
0.37401253 0.4504129 0.81070524 
0.12554577 0.81252795 0.5692423 
0.10611881 0.51793027 0.8488151 
0.315394 0.69678694 0.64421636 
0.3143813 0.6883563 0.6537049 
-0.06614194 0.69531006 0.71566 
0.45866504 0.18709962 0.86868876 
0.10226019 -0.11734858 0.98781186 
-0.24356727 -0.49603063 0.8334439 
-0.6635405 -0.45923135 0.59061044 
-0.743046 -0.17190593 0.64678514 
-0.53925294 -0.22158735 0.81246865 
-0.40841618 0.90657395 0.106395155 
-0.7544843 0.6262418 -0.19640474 
-0.41762888 0.8251238 0.38046953 
-0.8659104 0.30993462 0.3926063 
-0.24087724 0.9699428 -0.034483965 
-0.65392244 0.54082525 -0.52904963 
-0.11854788 0.77600473 -0.6194862 
-0.31866953 0.6094615 -0.7259521 
0.16100821 0.6813665 -0.71401405 
0.5043726 0.73887104 -0.44685352 
0.48504907 0.61232543 -0.6243277 
0.8838368 -0.032641433 -0.46665516 
0.91033953 0.23496224 -0.34069744 
0.97278434 -0.12801632 -0.19313891 
0.91216797 0.19661441 0.3595724 
0.25107047 0.84769326 0.4673114 
0.03815913 0.83242553 0.55282164 
0.13948546 0.22700335 0.9638534 
-0.25628424 0.18345125 0.9490332 
0.04405279 0.687349 0.7249901 
0.51135504 0.18030655 0.8402414 
-0.5180034 0.067706995 0.8526948 
0.11145656 0.24846964 0.962206 
-0.2611877 0.12622455 0.95699966 
-0.74383384 0.33503875 0.5783255 
-0.6348373 0.69414043 0.33933866 
-0.38053796 0.9207032 0.08658344 
-0.69902164 0.67674965 0.23103835 
-0.95235807 0.26945412 0.14285885 
-0.7613505 -0.43209696 -0.4833608 
-0.32874006 -0.4609154 -0.82431006 
-0.19900598 -0.8666145 -0.45757625 
-0.16031414 -0.9017952 -0.4013287 
0.33153886 -0.21636456 -0.9182965 
0.4553245 -0.43174404 -0.7786379 
0.99737036 -0.06553897 -0.030936452 
0.45015436 0.5877974 -0.6722019 
0.66435635 0.73528105 0.13413626 
0.6274044 0.6896904 0.36151198 
0.15818024 0.70253795 0.6938441 
-0.08208465 0.5773513 0.8123593 
-0.67585456 0.6771613 0.2909867 
-0.6687119 0.46551478 0.5797589 
-0.8731054 -0.21595675 0.4370925 
-0.74887204 0.04037237 0.66148376 
-0.7768988 0.5609765 0.2858909 
-0.8562119 0.041315727 0.5149702 
-0.93202186 0.09641134 0.34934253 
-0.95506406 0.29576436 -0.019397136 
-0.88932896 -0.16676307 -0.42577466 
-0.63553935 -0.16643268 -0.7539165 
-0.2482778 -0.85585284 -0.4537335 
0.064234585 -0.7198858 -0.6911138 
-0.37917688 -0.7108822 -0.59234405 
-0.46183908 -0.37377933 -0.80435926 
-0.37804633 -0.47975802 -0.7917785 
0.3762932 0.07454229 -0.9234971 
0.82015276 -0.027577462 -0.57147956 
0.8500945 -0.43010318 -0.30389267 
0.73888737 0.520085 -0.42843577 
0.7128956 0.63783646 0.29145247 
0.95244235 0.26604763 0.14856727 
0.67077905 0.27766177 0.68772054 
0.4097113 -0.12019134 0.9042626 
0.5336983 -0.071985684 0.8426056 
0.22376849 0.1640548 0.96073604 
-0.10615321 -0.3819895 0.9180499 
-0.29165226 0.5396653 0.7897471 
-0.7091659 -0.21851963 0.67032313 
-0.4857527 0.65787303 0.57554096 
-0.81022525 0.5721021 0.12741318 
-0.37852466 0.3142473 0.8706134 
-0.6212009 0.23360065 0.7480243 
-0.76008976 0.6352397 0.13687295 
-0.5636402 0.2056427 -0.80001307 
0.2921615 0.3270356 -0.8987155 
0.4992773 0.14465237 -0.8542821 
0.59706736 0.06181319 -0.79980606 
0.8693121 0.46491012 -0.16779475 
0.5768659 0.36960268 -0.72843647 
-0.0015765576 0.896413 -0.44321695 
0.43440142 0.75155324 -0.49645066 
0.010822272 0.87779033 -0.47892267 
-0.18969318 0.92450637 -0.33061233 
-0.8180524 0.5051071 0.27505863 
-0.18887149 0.8083219 0.55762297 
-0.21779358 0.91837716 0.33037788 
0.14181376 0.9891773 0.037644524 
0.20648883 0.91352516 0.35047725 
-0.39875987 0.9062242 0.14052898 
-0.55829 0.8148649 0.155909 
-0.46609923 0.8683151 0.16964826 
-0.8550058 0.011854893 -0.51848304 
-0.7203385 -0.03948194 -0.6924981 
-0.92148083 0.35517478 -0.15723884 
-0.24950124 0.7035322 -0.6654259 
-0.8855643 0.3374912 -0.31917968 
-0.14356206 0.87439173 -0.46349642 
0.3834773 0.32596824 -0.8641122 
-0.5056978 0.6609246 -0.5544804 
-0.21159968 0.97635674 0.044195425 
-0.19951664 0.97350794 0.11169396 
-0.30270344 0.5455343 -0.7815132 
0.6060382 0.32797116 -0.7246742 
0.675789 0.72016394 0.15707716 
0.87665945 0.35259828 0.32732654 
0.85915446 0.053209957 0.5089423 
0.19940487 0.69994134 0.6857987 
-0.34525087 0.3824366 0.85705554 
-0.8967207 -0.048023377 0.439984 
-0.87794614 -0.010928646 -0.47863486 
-0.8137412 -0.5769002 -0.07079272 
-0.7220821 -0.61856186 -0.30980423 
-0.56901026 -0.3316665 -0.7524791 
-0.11992353 -0.48907286 -0.8639596 
-0.78708243 -0.34706336 -0.50994927 
0.17638825 0.05051245 -0.98302376 
-0.23071629 -0.14921476 -0.9615118 
-0.8278564 0.22430876 -0.51413935 
-0.20912436 0.16020149 -0.9646774 
0.2047704 0.15472762 -0.9665032 
0.119707935 0.36527863 -0.9231694 
0.7243506 -0.06590068 -0.68627506 
0.91253686 0.2533339 -0.32108945 
0.99698424 -0.070830114 0.031711902 
0.6036763 0.7492278 0.27245656 
0.8703826 0.15160094 0.4684564 
0.68955517 0.4832527 0.5394261 
0.77760816 0.6274771 0.03997718 
0.21827586 0.67161065 0.7080218 
0.3305323 0.09488305 0.93901306 
0.09346627 0.25420994 0.96262217 
-0.26803944 0.1225826 0.95557755 
0.021696895 -0.3498412 0.93655777 
-0.6815425 -0.54424995 0.48917478 
-0.70033044 -0.6275231 -0.3402235 
-0.64416987 -0.650183 -0.40287387 
-0.46082643 -0.84064466 -0.28452724 
-0.41674164 -0.8924555 -0.17277029 
-0.2086446 -0.95734054 0.19991598 
0.05171275 -0.9469805 0.3171024 
0.102766275 -0.90630394 0.40994188 
-0.5472514 -0.71014386 0.44295776 
-0.8101593 -0.4564634 0.3678086 
-0.18511131 -0.6979831 0.69177556 
-0.528134 -0.6638163 0.52954924 
-0.60081387 -0.60071605 0.52741164 
0.28503653 0.027353592 0.9581263 
0.057391617 0.23915803 0.9692831 
0.558364 0.12923245 0.8194686 
0.06002056 0.49582273 0.86634725 
0.09110922 -0.3990755 0.9123803 
0.36568448 0.42605293 0.8274986 
-0.09559936 0.21762788 0.97133875 
-0.3758104 -0.41821742 0.8269588 
-0.18143468 -0.6736727 0.7164123 
-0.79670674 -0.32465857 0.50976 
-0.32603815 -0.9259949 -0.1903491 
-0.45442882 -0.6368043 0.6228762 
-0.84426016 -0.18579488 -0.50269777 
-0.17262344 -0.33889988 -0.9248503 
-0.51489717 -0.2608487 -0.81660205 
-0.28439024 -0.6338315 -0.71929127 
-0.12915199 -0.6074351 -0.78380007 
-0.13149792 -0.71223634 -0.68951267 
0.47088933 0.028529657 -0.88173085 
0.64888173 -0.6607409 0.37732476 
0.6830956 0.027139435 0.72982454 
-0.0021565724 -0.8319787 0.55480343 
-0.23295254 -0.7566632 0.61089605 
0.29987645 -0.5284705 0.79422486 
0.55873764 0.17617087 0.8104172 
0.3816168 -0.43213665 0.81708425 
0.18062003 0.4062543 0.895731 
0.5250774 0.15546829 0.8367338 
0.57325727 0.6021768 0.55566114 
0.35612947 0.6827853 0.63794684 
0.017082818 0.2140355 0.9766766 
0.91729987 0.045841686 0.3955498 
0.20416331 0.5433539 0.8142997 
0.42175436 0.13294876 0.8969102 
0.28748965 -0.20460393 0.93567455 
0.13491265 -0.2515919 0.9583842 
-0.045631666 -0.11902735 0.99184185 
-0.23997718 -0.37333542 0.8961204 
0.13706933 -0.8478604 0.51219594 
0.2833486 -0.5406582 0.79208726 
0.43527034 -0.68717724 0.581659 
0.963684 -0.060725357 -0.26004934 
0.6669983 0.70655346 0.23642229 
0.95463455 0.19414161 0.22579186 
0.14778972 0.7075246 0.69106233 
0.5784669 0.79904866 0.16400455 
0.26983592 0.8694932 0.41372734 
0.1626822 0.8439986 0.5110781 