# OOMMF: rectangular mesh v1.0
# Segment count: 1
# Begin: Segment
# Begin: Header
# Desc: Time (s) :  3.069999999999998e-07
# Title: m
# meshtype: rectangular
# meshunit: m
# xbase: 2e-09
# ybase: 2e-09
# zbase: 5e-10
# xstepsize: 4e-09
# ystepsize: 4e-09
# zstepsize: 1e-09
# xmin: 0
# ymin: 0
# zmin: 0
# xmax: 1.024e-06
# ymax: 1.024e-06
# zmax: 1e-09
# xnodes: 256
# ynodes: 256
# znodes: 1
# ValueRangeMinMag: 1e-08
# ValueRangeMaxMag: 1
# valueunit: 
# valuemultiplier: 1
# End: Header
# Begin: Data Text
-0.70597696 -0.69534904 0.13448523 
-0.4782315 -0.63919604 -0.60226506 
0.4396082 -0.82783926 -0.3484638 
0.86001325 -0.4800738 -0.17293486 
0.85426253 0.51911587 -0.027462518 
-0.07455412 0.97780544 -0.19580154 
0.4867175 0.8732821 0.022012109 
0.030834623 0.987395 -0.15524308 
0.18670578 0.8757387 -0.4452222 
-0.09454386 0.9928321 0.07311615 
-0.095327936 0.9825718 0.1595791 
-0.28163984 0.80453855 -0.52287346 
0.5664473 0.80386347 -0.18149623 
-0.32587793 0.7152052 0.6182922 
-0.67666084 0.6134779 -0.40715492 
-0.08364067 0.36544552 -0.92706734 
0.34793258 0.015272005 -0.9373952 
0.68662375 0.33441657 -0.6455334 
0.9298778 0.08721309 -0.35738096 
0.81837875 0.18567927 0.5438561 
0.31956604 -0.2154877 0.92273647 
0.40575024 0.77245444 0.48854986 
0.8022303 -0.34437102 0.48768362 
0.36128715 0.8644657 0.34952924 
0.0031557728 0.38854578 0.9214241 
-0.07474385 0.4119529 0.9081345 
0.20910503 0.65033925 0.7302972 
0.41905123 0.46337572 0.7808196 
-0.15738261 -0.66803986 0.72729194 
-0.627867 0.64834106 -0.43062398 
2.5695499e-05 0.50499016 -0.8631252 
-0.41648838 0.1240455 -0.9006387 
0.2628415 0.5440103 -0.7968483 
0.21292394 0.3894263 -0.8961086 
0.3283281 0.94225776 -0.065961905 
-0.1401279 0.80346876 0.578621 
-0.4088209 0.7869235 0.46218717 
-0.6490585 0.63762087 0.41492492 
-0.64766955 0.5811972 -0.49268043 
-0.22670689 0.77268976 -0.59292036 
-0.112554856 0.7663384 -0.6325005 
-0.1159771 0.56553006 -0.8165324 
-0.34387022 0.9389711 0.009307057 
-0.84600776 0.20193551 -0.49345013 
-0.45985454 0.45966533 -0.75976425 
-0.13107261 0.6800888 -0.72131765 
-0.5839227 0.29880157 -0.7548192 
-0.15911694 0.033668417 -0.98668545 
-0.4533146 -0.056614235 -0.8895509 
-0.20490727 0.06065365 -0.9769003 
-0.3881918 0.035550833 -0.9208928 
-0.3993156 -0.010309578 -0.91675556 
-0.13751315 0.21118948 -0.9677238 
-0.23789625 0.4907173 -0.8382136 
0.26591697 0.2498295 -0.93106043 
-0.27773935 -0.3242978 -0.90426314 
0.063555814 -0.38142028 -0.92221427 
0.65256906 -0.076254025 -0.7538827 
0.58139795 0.14919086 -0.79982406 
0.7061286 0.56810117 -0.42266256 
0.8657115 0.34553784 -0.36214262 
0.94359845 -0.15207516 -0.29410058 
0.89935595 0.07296803 0.43108532 
-0.11612171 0.90521264 0.40878594 
-0.5329178 0.54367 -0.64839923 
0.78134525 0.40118065 -0.47807282 
-0.36339888 -0.34021652 -0.8672913 
-0.57357335 -0.051550593 -0.8175306 
0.06876928 -0.3960523 -0.91564924 
0.30482882 -0.7310178 -0.6104854 
0.08977667 -0.7137545 -0.6946184 
0.27970487 -0.10365492 -0.95447415 
-0.09424399 -0.31930354 -0.94295466 
-0.03797458 0.48811686 -0.87195176 
0.13823737 0.028981162 -0.9899751 
-0.60913175 0.10391551 -0.7862316 
-0.007877064 -0.21499352 -0.9765838 
-0.25860137 0.31210658 -0.9141744 
0.10184384 -0.3674365 -0.92445576 
-0.28880522 0.6148916 -0.73382556 
-0.5951425 -0.00032475704 -0.8036202 
0.8330562 -0.14507237 -0.53382707 
0.8392589 -0.3745808 -0.394124 
0.9256124 -0.33167952 0.1822926 
-0.11055795 0.9489882 -0.29529378 
0.080908075 0.99526423 -0.053879812 
0.52842534 0.7300412 -0.4333666 
-0.7150605 0.6647421 0.21634814 
-0.7387133 0.6560474 0.15461059 
-0.6983496 0.028320473 -0.7151964 
-0.40710706 0.6424189 -0.649278 
-0.75669795 -0.11901399 -0.6428406 
-0.07798465 0.91713345 -0.39087704 
-0.14607894 0.1965828 -0.96954435 
-0.4005462 0.3307047 -0.8545158 
-0.5812662 -0.5068102 -0.6366107 
-0.5599832 -0.52529806 -0.6406878 
-0.3794841 -0.63713586 -0.6708575 
-0.5184516 -0.84460616 -0.13359839 
0.45604837 -0.8197262 -0.3465096 
0.7979096 -0.5848351 0.145973 
0.8753924 -0.47048613 0.111045845 
0.7403938 -0.5503863 0.3858652 
0.91472805 -0.3028681 -0.2674765 
0.7324822 0.22332357 -0.6431147 
0.67759305 0.23333272 -0.69744074 
0.76068306 0.3645769 0.5370708 
0.74140304 0.22471422 0.6323172 
0.9071118 -0.052825186 0.41756168 
0.6063338 0.37352014 0.7020271 
0.7011845 -0.21348494 0.68026805 
0.9090717 0.3021507 0.28686866 
0.6656941 0.52787405 -0.527447 
0.74451125 0.54892015 -0.37998638 
0.90117747 0.17223758 0.39776066 
0.20073025 0.46027943 0.86478347 
0.39859822 0.051494718 0.91567886 
-0.22501014 0.3360055 0.9145878 
-0.93172956 0.35917667 -0.053593677 
-0.89552736 0.38545647 0.22238278 
-0.93257797 0.28157017 -0.22586878 
-0.076745555 0.97869915 -0.19041598 
0.09023927 -0.55600035 -0.8262691 
0.2821009 -0.8233636 -0.4924343 
0.55623066 -0.8220382 0.12190412 
-0.66482675 -0.74583375 0.041682087 
-0.59198576 -0.78119475 -0.19821149 
-0.73304737 0.11761828 -0.669931 
-0.16003047 -0.8777653 -0.45157313 
0.25748035 -0.8394399 -0.47858593 
0.09277558 -0.9892519 0.11301961 
0.55540425 -0.7814757 -0.28429213 
0.7181002 -0.5740054 0.39350986 
0.44122094 0.38920745 0.80860484 
0.24756412 0.057074156 0.9671891 
0.04282419 -0.13317497 0.99016696 
-0.2365059 -0.11184731 0.9651711 
-0.41163775 -0.4917333 0.7673022 
-0.24822837 0.08813452 0.96468395 
-0.51815796 0.36261922 0.7746094 
-0.8784702 0.22507091 0.4214656 
-0.99524856 0.019345593 0.09542547 
-0.7688516 -0.5570734 0.31390545 
-0.54716253 -0.7139976 -0.4368302 
-0.1265767 -0.73849607 -0.6622703 
0.0065131844 -0.7742663 -0.6328265 
0.21742256 -0.026836017 -0.9757086 
0.110057555 0.054679208 -0.9924201 
0.387534 0.27387944 -0.88023156 
0.780115 -0.049281057 -0.6236922 
0.54378647 0.37868428 -0.74892896 
0.24181655 -0.2521417 -0.9369895 
0.8983507 0.43911508 0.011997658 
0.9006929 0.42013678 -0.11062303 
0.7862238 0.41012958 0.46221828 
0.1533891 -0.70008385 0.6973913 
0.18398306 0.019092333 0.982744 
0.13697192 -0.3432621 0.92919856 
0.98153174 0.18298359 -0.05578935 
0.4588315 0.39914447 0.7938247 
0.46299064 0.32841146 0.8232774 
-0.015757143 0.78983134 0.6131217 
-0.5450813 0.8378972 -0.028540585 
0.23405652 0.9525747 -0.1944714 
-0.63187176 0.63756675 0.44073448 
-0.7557639 0.6434187 -0.121792324 
-0.8773931 -0.14189814 -0.458308 
-0.53630865 0.013612526 -0.84391224 
0.6477712 -0.39963153 -0.64860404 
0.88894063 -0.31760544 -0.33001733 
0.095896885 0.6035791 -0.791515 
-0.31152582 0.48200855 -0.8189135 
0.4505509 0.1440666 -0.88104975 
0.36026007 0.801676 -0.47699943 
-0.23939796 0.70212615 -0.6706024 
0.17870775 0.083614394 -0.98034286 
0.09134055 0.5898968 -0.80229586 
0.7522366 0.30911958 -0.58188075 
0.73056376 0.6795124 -0.06737677 
0.9741898 0.15057912 0.16816753 
0.42943463 -0.61365914 0.66257715 
0.17608517 -0.04991022 0.98310894 
0.27527043 0.3166284 0.9077295 
0.6460148 0.5491165 0.53022254 
0.83650845 0.36309952 0.41038102 
0.75534534 0.6363246 -0.15666653 
0.31594288 0.94626015 0.06907881 
0.1700326 0.45320466 0.87503976 
-0.288193 0.14616598 0.94635105 
-0.7534707 0.41959596 0.50618315 
-0.85807085 0.51157504 -0.044782083 
-0.9041685 0.18357255 -0.38572082 
-0.12362548 0.68034124 -0.72239363 
-0.04584469 -0.077750005 -0.99591833 
-0.10147041 0.19037023 -0.97645426 
-0.13380703 0.015573728 -0.9908851 
0.5499275 0.70345724 -0.45025295 
0.727548 0.57261515 0.37787023 
0.8700083 -0.073063165 0.48759362 
0.18299417 0.7926291 0.58159465 
-0.41366237 -0.12658837 0.90158683 
-0.07986688 -0.34025165 0.93693656 
-0.811995 -0.06705669 0.57979953 
-0.95431596 -0.1846296 -0.23493187 
-0.13149866 -0.6715895 -0.7291609 
-0.20141098 -0.26919183 -0.9417905 
0.6544647 0.031308103 -0.75544405 
0.98937136 0.010092843 -0.14506046 
0.4937917 -0.4493781 0.74446565 
-0.23742813 0.058928087 0.9696161 
0.27682042 -0.21618249 0.9362883 
-0.24031582 0.6477501 0.72295797 
-0.6144837 0.7102219 0.3435036 
-0.54192287 0.79225403 0.28045204 
0.19501895 0.97319156 0.12192506 
0.036229655 0.9168973 0.39747542 
0.4576467 0.76911956 0.44611058 
0.08262579 0.9828784 0.16469093 
-0.635182 0.65371364 0.4113421 
-0.79563844 0.5426085 -0.2693242 
-0.9730859 0.032087047 0.22819825 
-0.82896984 -0.367986 -0.4211835 
-0.39793372 -0.42915767 -0.81084675 
-0.36477178 -0.53700393 -0.7606368 
0.44805217 -0.03876395 -0.8931666 
0.007687202 0.19424868 -0.9809223 
0.032254856 0.16616708 -0.98557 
0.8857957 0.32730836 0.32899126 
0.8445341 0.51696646 0.13967033 
0.2556691 0.89726627 0.35992578 
0.13002202 0.6243749 0.7702274 
-0.09699447 0.99338686 0.061439127 
0.56508815 0.7495718 -0.3446993 
0.8007996 0.5958004 -0.061170988 
-0.2482332 0.72152007 -0.6463661 
-0.49669585 0.010178183 -0.8678651 
-0.66064936 -0.426698 -0.6176337 
-0.8038665 0.27705878 -0.5263431 
-0.9747932 0.19597347 -0.10664273 
-0.77959913 0.580168 -0.23586065 
-0.8593399 0.45324346 -0.23686595 
-0.48899665 0.35987508 -0.7945894 
0.3613021 0.93211627 0.024900978 
0.3773381 0.7712132 -0.5126854 
0.41676486 0.3673051 -0.8315011 
0.26157358 0.8729396 -0.41177142 
0.23624407 0.80145377 0.5494185 
0.10823653 0.9646198 0.24040273 
-0.20947751 0.93618983 0.2822551 
0.4575586 0.7980071 -0.39220494 
0.30450466 0.40685368 -0.8612474 
0.36419547 0.64796925 -0.66895264 
0.35689157 -0.37527412 -0.8554518 
0.5299747 -0.6281285 -0.5697205 
-0.20081425 0.6024662 -0.77246886 
0.065654926 0.6769371 -0.7331069 
-0.84485227 -0.40804374 -0.34601298 
-0.63384485 -0.04385134 -0.77221626 
0.3979239 0.0014521945 -0.9174174 
0.63539886 -0.03531515 -0.77137625 
0.9918481 -0.063093156 -0.11070938 
0.4236759 0.74923086 0.5090697 
0.44756985 0.8912038 -0.07373604 
0.23563097 0.8917513 -0.3863388 
0.77233136 0.53890866 -0.33627662 
0.9250127 0.32056257 0.20393883 
0.86187184 0.27831557 0.4239309 
0.85886663 0.5104521 0.04227242 
-0.7112869 -0.0356978 0.70199484 
-0.59468585 0.29527253 0.74777204 
-0.63771653 0.446998 0.6273042 
-0.60032654 0.64336497 -0.47506794 
-0.3970357 0.64257336 -0.6553337 
0.81060356 0.20062286 -0.5501567 
0.5787708 0.4312177 -0.6921529 
0.7870589 0.6141572 -0.057873417 
0.7549441 0.30096814 0.5826471 
0.36020407 0.93107617 -0.05788163 
0.49809352 0.8653586 -0.055294868 
0.66254705 0.6945671 0.28037143 
0.018960442 0.9498631 0.31209096 
0.32756066 0.8248311 0.46082288 
0.66469544 0.5707985 0.48204672 
0.57017314 0.58966696 0.5720101 
0.07867085 0.18198198 0.98014975 
-0.16170394 0.97184163 0.17139389 
0.49925345 0.8526495 -0.15406188 
0.31483307 0.9453132 -0.085223846 
0.42333096 0.8801235 0.21488084 
0.6288414 0.7748461 -0.06459148 
0.13485824 0.9853231 -0.10465016 
0.28985927 0.90872246 0.30034152 
-0.37055528 0.9262381 -0.0690777 
-0.4922423 0.85211575 -0.17775363 
-0.5887134 0.76566577 -0.25917652 
0.22421014 0.97162366 -0.075348035 
0.36000043 0.889887 -0.28018025 
-0.0029006442 0.798294 -0.6022611 
0.018507803 0.90724665 -0.42019165 
-0.49820068 0.6790758 -0.53912175 
-0.0024884567 0.6401723 -0.7682273 
-0.10520833 0.8989368 -0.4252573 
-0.061398365 0.8506965 -0.5220592 
0.16047423 0.71520346 -0.68024415 
0.49299988 0.85226774 -0.17490233 
0.6931666 0.57832074 -0.4301922 
0.30290613 0.58629364 -0.7513373 
-0.449247 0.610829 -0.6519702 
0.051143225 0.8673172 -0.4951216 
-0.29004267 0.3015863 -0.9082516 
0.2580108 0.63408995 -0.7289447 
0.47252527 0.17119934 -0.8645292 
0.20527568 -0.0087883985 -0.97866476 
0.7752824 -0.32243678 -0.543113 
0.7291528 -0.041423213 -0.6830962 
0.32507122 0.5797006 -0.7471787 
0.5070421 0.43958187 -0.7414015 
0.6613258 0.51650864 -0.54393667 
0.7687163 0.48838434 0.41298416 
0.024798604 0.5440138 0.83870983 
-0.3914964 0.6237337 -0.6765256 
0.3516997 0.32883504 -0.8764559 
-0.38325882 0.15226123 -0.9110046 
-0.073312975 -0.091191106 -0.9931311 
0.20308284 -0.14331351 -0.96861684 
0.49662662 -0.27749994 -0.8224087 
0.026523573 -0.65357167 -0.7563998 
0.17262104 -0.4914681 -0.8536165 
0.3546986 0.012004672 -0.9349036 
0.2852015 0.27080673 -0.919415 
-0.21811213 0.15217325 -0.96398675 
-0.58702487 0.72679293 -0.3566145 
0.10448124 0.8065591 -0.58184725 
0.15917687 0.5982431 -0.78534573 
0.11641547 0.378474 -0.91826195 
0.33705184 0.31183067 -0.88834554 
0.30082637 -0.550348 -0.7788586 
0.642813 -0.41508144 -0.6438159 
0.8261892 0.029648768 -0.56261206 
0.7695713 0.5203626 0.3701119 
0.58852947 0.77998775 0.2127255 
0.47175574 0.25371477 0.8444379 
0.2755611 0.93974835 0.20233451 
-0.025681853 0.77981156 0.62548727 
-0.7291802 0.6819339 -0.057118524 
-0.5712444 0.79707575 -0.1958322 
-0.35837603 0.8778443 -0.31773603 
-0.55750006 0.6612706 -0.5019112 
-0.29820204 0.7837156 -0.54485357 
0.28087193 0.41210273 -0.86676556 
-0.49624962 0.43211386 -0.75300336 
-0.55494314 0.30468124 -0.77408504 
-0.35452533 0.50301605 -0.7882175 
-0.47319406 -0.35243052 -0.807391 
-0.060184207 -0.93556815 -0.3479803 
0.15728655 -0.9835933 0.08834793 
0.69715196 -0.70573527 -0.12616253 
0.4415232 -0.8474359 -0.29480472 
0.45186073 -0.8910508 0.04301658 
0.5175071 -0.57469726 -0.6339633 
0.8735166 -0.19861375 -0.44443375 
0.8723726 -0.43234333 0.22813421 
0.8988185 -0.26156446 0.35172352 
0.77936494 0.55281377 0.29493612 
0.77364165 0.13439515 0.61920637 
0.62457156 0.6928181 0.36043528 
0.92997473 0.056293756 0.363288 
0.100311585 0.9543776 0.2812493 
0.26139554 0.9584147 0.114514865 
0.6679388 0.68782467 -0.28417432 
0.6269316 0.774619 -0.08319996 
0.56283164 0.7041541 0.43288293 
0.21721755 0.27218887 0.9374059 
-0.23671369 0.511548 0.82600564 
-0.6625444 0.6647833 0.34510598 
-0.5792598 0.8029977 0.14018834 
-0.5892531 0.25884977 -0.7653611 
-0.7798438 0.6124698 0.129323 
-0.77750266 0.50025153 -0.38110107 
-0.41980296 -0.7263059 -0.5442842 
-0.0064962083 -0.5834376 -0.81213206 
-0.25266278 -0.750655 -0.61047417 
0.18903024 -0.6440826 -0.7412322 
-0.56524813 0.24028945 -0.78914857 
0.2958297 -0.10349843 -0.9496172 
0.26720208 -0.78061485 -0.5650165 
0.87043434 -0.4881031 0.06402783 
0.64965063 -0.51431066 0.559856 
0.9120028 -0.406401 -0.055579536 
0.51667154 0.7683325 0.37777767 
0.7077024 0.43381032 0.5576433 
-0.2545598 -0.12663215 0.9587303 
-0.022039907 0.0061123935 0.99973845 
-0.37007952 -0.33290395 0.8673039 
-0.5995173 0.046738945 0.79899603 
-0.75948423 0.009934964 0.65044993 
-0.47676316 0.44738346 0.75666714 
-0.45141593 0.032388344 0.8917257 
-0.6344338 -0.6799468 -0.3676496 
-0.44119886 -0.8974043 0.0030074182 
-0.22220293 -0.93782026 -0.26668167 
-0.2989043 -0.36479 -0.88180757 
-0.42119935 0.44540167 -0.7900686 
-0.15710422 0.22548637 -0.9614959 
0.27095336 -0.3077248 -0.91207993 
0.31716472 0.10038638 -0.94304246 
-0.31317055 0.17818771 -0.93283087 
0.24414334 -0.02775428 -0.9693419 
0.8969558 0.3151465 -0.31008556 
0.9772134 -0.0042726537 0.21221633 
0.84668434 0.4966605 0.19092955 
0.30272657 -0.6725933 0.6752591 
0.14612696 -0.5341427 0.8326695 
0.23941886 -0.86983085 0.43136188 
0.2184212 -0.662716 0.7163099 
-0.43304044 0.14103077 0.89027315 
0.12765448 -0.20709947 0.96995574 
0.15665585 0.9137608 0.37483367 
-0.37386897 0.89358044 0.24846724 
0.23268484 0.89067715 0.390579 
-0.5373882 0.5447065 0.6438236 
-0.84074455 0.17184833 -0.5134364 
-0.16096644 -0.49144688 -0.85590297 
0.02436309 -0.38443512 -0.9228305 
0.45063266 0.29038844 -0.84415925 
0.22651806 0.6886177 -0.68883616 
0.062420193 0.903666 -0.42366424 
0.07152886 0.9900316 0.12133017 
0.3661937 0.8918604 -0.2654944 
0.5301989 0.7856278 -0.3188703 
0.75326407 0.15154791 -0.64002067 
0.8021904 0.45417652 -0.38757488 
0.73760104 0.5351393 -0.4117897 
0.3667576 0.8206132 -0.43827254 
0.75980574 0.6326813 0.14969854 
0.83640456 -0.49721444 -0.23066305 
0.967785 -0.2504379 -0.025944868 
0.70288825 -0.49543718 0.5103824 
0.5209871 -0.35025257 0.778393 
0.45147943 0.15563184 0.87860405 
0.24040064 0.88255703 0.40410495 
0.08785385 0.91843134 -0.38570136 
0.108632475 0.6764063 0.7284734 
0.09649387 0.6045162 0.7907271 
-0.33569297 0.5782787 0.74357516 
-0.5800138 0.7920319 0.19044572 
-0.8087504 0.56560934 -0.16127239 
-0.75686085 0.5467644 -0.3580648 
-0.7397376 -0.14035529 -0.6580949 
-0.55196446 0.5553624 -0.62201923 
0.18690805 0.60572225 -0.773412 
0.02396221 0.958729 -0.28330982 
0.7542264 0.59848654 -0.27010474 
0.6167057 0.4356953 0.6556246 
0.314481 0.20304205 0.9272948 
-0.1842576 0.18646811 0.96502787 
0.06099951 -0.8403453 0.53860843 
0.18533035 -0.9011272 0.391947 
-0.2383562 -0.9461735 0.21895705 
-0.57853615 -0.78831226 -0.2094277 
-0.61741745 0.29436335 -0.72948337 
-0.14080143 -0.080769256 -0.9867378 
0.5016052 0.3101654 -0.8075827 
0.7677043 -0.5906861 -0.2484355 
0.97763973 -0.20064875 0.06293319 
0.2527241 0.1541314 0.95518273 
0.353471 0.016453596 0.93530077 
-0.2664863 -0.3066329 0.9137623 
-0.29799104 0.49457914 0.81645143 
-0.85885036 0.4607618 0.22377402 
0.13432384 0.8412411 0.5237085 
-0.3195748 0.41691977 0.8509113 
-0.50870454 0.43656227 0.74204654 
-0.016596884 0.3255181 0.94539016 
-0.45348823 0.45128658 0.7685629 
-0.6847689 0.7225737 0.09475693 
-0.99407226 -0.057282515 -0.09240799 
-0.73357815 -0.5745438 -0.36299112 
-0.54172254 0.0002829493 -0.84055734 
-0.705159 0.1527651 -0.69239706 
-0.7876042 0.05309682 -0.61388963 
-0.29423612 0.29188254 -0.91007125 
0.08498635 0.385787 -0.9186653 
0.7369665 0.5804495 0.34635064 
0.1411438 0.6510367 0.7458082 
0.10159754 0.9948214 -0.0028744265 
-0.22239648 0.71934485 0.6580903 
0.13271347 0.8246479 0.54985726 
0.4637465 0.85071427 0.24743553 
0.6001336 0.68928504 0.40586445 
-0.10154354 0.98529816 -0.1373919 
-0.59849 0.5987923 -0.53221947 
-0.75738645 0.03655338 -0.6519431 
-0.36024025 0.2303376 -0.9039754 
-0.9574484 -0.13864622 -0.25311998 
-0.7388991 0.6607806 0.13189846 
-0.3085415 0.9051999 -0.29225928 
-0.3262706 0.2267233 -0.917684 
-0.10597543 0.9933932 -0.044038445 
-0.26569903 0.76850253 -0.58207214 
0.06467134 0.55207455 -0.83128303 
0.0530677 0.83474267 -0.54807717 
0.9110108 0.40855122 0.056082334 
-0.17749196 0.803876 0.56769705 
-0.18839584 0.90463114 0.38229534 
0.43260354 0.8389692 0.33012882 
0.5787069 0.8124737 -0.07060332 
0.63658106 0.52588344 -0.56410205 
0.4188894 0.045782596 -0.9068824 
-0.06778778 0.46037394 -0.88513315 
-0.13768162 0.75340945 -0.64297587 
-0.024645748 0.92661244 -0.37520915 
-0.013327342 0.73680884 -0.67596984 
0.20577927 0.11438153 -0.9718908 
-0.25001743 0.023556663 -0.9679548 
0.65371245 0.3886024 -0.6493445 
0.069596045 0.15213199 -0.98590684 
0.9789045 0.11550151 -0.16853936 
0.9429313 0.11077986 0.3140197 
0.90433276 0.2743985 -0.32693705 
0.7743366 0.62761223 -0.080659375 
0.71114874 0.50181836 0.49238795 
0.6140156 0.32968047 0.71714413 
0.5677652 0.81826895 0.089881845 
-0.5596911 0.18253417 0.8083484 
-0.09234746 0.28044128 0.9554186 
-0.72557247 0.68678105 -0.04331675 
-0.74706966 0.5655179 0.34939435 
-0.37647384 0.6355484 -0.6740517 
0.15673597 0.9772665 -0.1427731 
0.46911553 0.58116215 -0.66496706 
0.78264874 0.5998754 -0.16616407 
0.5851516 0.42765376 0.688992 
0.5677009 0.39579436 0.7218466 
0.77585703 0.4220957 0.4689148 
0.8909075 0.3386346 -0.3026721 
0.7332767 0.60378873 -0.31264102 
0.8720568 -0.22198871 0.4361628 
0.9772657 0.2095174 -0.03246821 
0.76724577 0.22763342 0.59959733 
0.13864404 0.47802934 0.86733264 
-0.80733144 0.52149093 0.27615795 
0.52258456 0.6697312 0.5276036 
0.3866069 0.85578614 0.34375146 
0.2886195 0.7670565 0.5729949 
0.46795738 0.6922486 0.5493704 
-0.09084019 0.7875002 0.60958314 
0.24622698 0.961372 -0.123029076 
-0.053952344 0.99328995 0.10229528 
-0.24984615 0.47237659 0.84524405 
0.20420346 0.58539146 0.78461313 
0.68976516 0.2956957 0.6608996 
-0.110179394 0.95880616 -0.2618229 
-0.062528834 0.8835874 -0.4640727 
0.19049066 0.9787627 0.0757439 
-0.081159174 0.9294334 -0.3599539 
-0.3324936 0.9419124 0.047424458 
-0.8922071 0.31625018 0.32241663 
-0.5358529 0.67833316 -0.50271857 
0.9189517 0.36428666 0.15107317 
0.47226804 0.8729344 0.12226355 
0.23129013 0.8368377 0.4961931 
0.017192697 0.98949623 0.14353272 
-0.1588437 0.9151703 0.37044862 
-0.23189218 0.9648556 -0.12361174 
0.15426439 0.6284556 -0.762395 
-0.19360045 0.9666628 -0.16757692 
-0.22312818 0.580079 -0.78340423 
-0.0739415 0.55620396 -0.82774997 
0.06434683 -0.035324402 -0.9973023 
0.33079427 0.6730609 -0.66148645 
0.4335188 0.51968443 -0.7361994 
0.38144198 0.6859822 -0.6196213 
0.76461715 0.6425878 -0.049412515 
0.6431148 0.7406299 0.19460404 
0.3397148 0.94013196 0.027309174 
0.3853719 0.6645383 -0.6402167 
0.23741263 0.64012897 -0.7306642 
0.08760989 0.6903263 -0.7181742 
0.1798637 0.6876658 -0.70339525 
-0.6793347 0.37108248 -0.6330895 
0.36725459 0.50624406 -0.78028274 
0.5075943 0.49543488 -0.7049059 
0.35884827 0.5252731 -0.77156734 
0.34728935 0.5606823 -0.75168175 
0.3173197 0.25221252 -0.9141648 
0.27253067 0.6354207 -0.7224733 
0.441186 0.76108587 -0.4755033 
0.18042134 0.8705202 -0.45786777 
0.41317865 0.738015 -0.5334954 
-0.24835066 0.7299915 -0.6367374 
0.097259305 0.38549665 -0.9175691 
0.1768663 0.44724533 -0.87674975 
0.39581177 0.84988093 -0.34790146 
0.8304173 0.54157734 0.13077119 
-0.014088867 -0.13428304 0.99084294 
0.611211 0.19518465 0.76702297 
0.91917527 0.08165337 0.3852915 
0.45365557 0.49276984 0.742546 
0.33255893 0.24619257 0.9103812 
-0.39330864 0.8752829 0.28140417 
-0.47617105 0.44018942 0.76124537 
-0.9207997 0.25337604 0.2965276 
-0.31607497 0.7022255 -0.6379468 
-0.65793526 0.5735096 -0.48806554 
0.021095108 0.37922308 -0.9250648 
-0.53560704 0.781021 -0.32114077 
-0.41368207 0.9014954 -0.12717383 
-0.41670048 -0.022844255 -0.90875685 
-0.44839746 -0.39072317 -0.8039124 
0.2336945 -0.43193638 -0.8711016 
-0.40751323 -0.35442305 -0.84161586 
0.2430668 -0.6551386 -0.71534044 
0.86361825 -0.41583616 -0.2850329 
0.30215666 -0.8355266 -0.45890823 
0.6220811 -0.7618992 -0.18034644 
0.8489206 -0.5284797 0.0065737893 
0.9039713 -0.38236794 0.19139144 
0.7700147 -0.3507832 0.5329434 
0.6798103 0.63464385 0.36753944 
-0.17404863 -0.5536386 0.81436574 
0.43412757 0.32057723 0.84188104 
0.47619277 0.11090875 0.8723186 
-0.17620206 0.48662442 0.8556574 
-0.026569152 0.87248945 0.48791006 
0.24676745 0.89643717 0.36811206 
0.46360624 0.39078805 0.79520696 
0.28270584 0.81851906 0.50010395 
0.07342536 0.20328088 0.9763635 
-0.5240817 0.18971932 0.830268 
-0.8029942 0.475626 0.35913852 
-0.51214004 0.13867937 0.84763235 
-0.8970037 0.25649542 -0.35999236 
-0.74713004 0.5014838 0.4362463 
-0.88713527 0.41182467 0.20830624 
-0.58262336 -0.19239986 -0.7896407 
-0.08927198 -0.124919534 -0.98814255 
-0.22584862 -0.56149614 -0.7960619 
0.2598973 -0.30298176 -0.9168726 
0.49260762 -0.41850334 -0.76301545 
0.58511436 -0.6771547 -0.4462093 
0.42230245 -0.5586123 -0.7138719 
0.81717974 -0.20011549 -0.54052866 
0.5139166 -0.8447027 -0.14955652 
0.8915683 -0.3300577 0.31010953 
0.815442 -0.5160958 0.26210606 
0.718504 -0.14033808 0.68121755 
0.53701794 -0.0712623 0.8405554 
0.35191947 -0.34976032 0.8682284 
-0.63664335 0.45667902 0.6213932 
-0.6871636 -0.14112109 0.7126648 
-0.5482924 0.49759492 0.6721419 
-0.89809644 0.091577925 0.43015838 
-0.9535285 -0.2985471 -0.040657856 
-0.91309226 0.09326048 -0.3969448 
-0.39079687 0.3658978 -0.8446281 
-0.7785035 -0.28487393 -0.5592666 
-0.5036046 0.012635935 -0.8638419 
-0.29771972 0.30050033 -0.906125 
0.28553185 0.19609673 -0.9380926 
0.16369508 0.11873862 -0.9793392 
0.12424861 0.21173884 -0.9693962 
0.09103973 0.7546123 -0.6498247 
0.15075374 0.43591702 -0.8872709 
0.72598004 0.66418916 -0.17834198 
0.8058988 -0.23749653 0.54233086 
0.7268468 -0.6841136 0.060682382 
0.2161746 -0.8534732 0.47418562 
0.6845247 -0.3608064 0.6334388 
0.6053573 -0.258525 0.7527997 
0.7958398 0.3462723 0.496724 
0.41266447 -0.33388495 0.8474839 
-0.16522837 0.15562193 0.97390014 
-0.65872365 0.39383486 0.6410752 
-0.74460626 0.659592 -0.10246999 
-0.5841027 0.5563486 0.5910163 
-0.69106793 0.1785573 0.70038736 
-0.8396237 0.4565289 -0.29430172 
-0.3990218 0.31201664 -0.86222225 
-0.33145016 0.3074287 -0.8919801 
-0.39796177 0.482838 -0.78006023 
0.29349384 0.85499495 -0.4276038 
0.5978179 0.7783969 0.191604 
0.6346295 0.77189666 0.037696 
0.70831585 0.6616206 -0.24606292 
0.5045856 0.851109 -0.14493693 
0.6034768 0.7809149 0.16120727 
0.22462983 0.96299934 -0.14890839 
-0.43738794 0.8969131 -0.06510584 
0.5059025 0.84523153 -0.17218061 
0.6399324 0.76711506 -0.044955652 
0.8577387 0.35040298 -0.3761678 
0.72793967 0.64085895 0.2437288 
0.6574946 -0.37941617 0.65095645 
0.26789567 -0.2684795 0.9252841 
-0.03385618 0.4122061 0.91046137 
-0.21943225 0.6170601 0.7557026 
-0.048608623 0.86026835 0.507519 
-0.1991854 0.18611006 0.962127 
-0.62006396 0.59781116 0.5080774 
-0.7144749 0.48996925 0.4994556 
-0.13545251 0.6306427 0.7641613 
-0.5877415 0.77493817 0.23244555 
-0.9160589 0.39646697 -0.06041711 
-0.9530526 0.18565543 -0.23921332 
-0.7489171 0.5804165 -0.3197497 
-0.26659814 0.6294603 -0.72986656 
-0.61263865 0.7894346 -0.038299527 
0.12428008 0.9133184 -0.38781953 
0.20770384 0.107568376 0.9722594 
-0.24031459 -0.17721352 0.9543817 
-0.29734004 -0.6305285 0.7169539 
-0.07286608 -0.91593885 0.3946476 
0.21997793 -0.9623236 -0.15982187 
-0.4866747 -0.4584005 -0.743651 
-0.13784903 -0.8263093 -0.54608667 
-0.33671567 -0.3301262 -0.8818386 
0.38928127 -0.21953163 -0.89457595 
0.86922616 -0.394167 -0.29846004 
0.8223371 -0.56217754 -0.08785329 
0.9069135 -0.29617795 0.29964417 
0.7373176 -0.0644473 0.6724651 
0.75386584 -0.36460537 0.5465796 
0.25118527 -0.9178818 0.30724433 
0.34587628 -0.07511185 0.93526894 
0.024296664 0.31860125 0.9475775 
-0.46315968 -0.17673986 0.86847353 
-0.98494285 0.032429747 0.16981153 
-0.72555393 0.22987923 0.64863473 
-0.55848897 -0.044047233 0.82834166 
-0.7858672 0.34543648 0.51291937 
-0.9149762 0.30593687 0.2630993 
-0.9827461 0.10090117 -0.15501359 
-0.9563092 0.024173956 -0.29135615 
0.18847258 0.57138246 -0.7987492 
-0.26932472 0.92110366 -0.28112686 
0.093857855 0.91717595 -0.38727137 
-0.2611535 0.6077938 -0.7499237 
-0.17264749 0.7441592 -0.6453061 
0.038303345 0.90850174 -0.4161219 
-0.20430735 0.9757754 0.07823697 
-0.15491831 0.63753843 0.7546822 
-0.061014567 0.68163836 0.7291409 
-0.5152314 0.8462448 -0.13566995 
0.37862808 0.85352397 0.35796332 
0.049515452 0.5657562 0.82308453 
-0.472643 0.8754334 -0.10111882 
-0.77959234 0.53454477 -0.32634014 
-0.6092964 0.7908943 -0.05695778 
-0.67576313 0.56451315 -0.47399288 
0.04414419 0.9223284 -0.38387695 
-0.21890588 0.52620125 -0.821701 
-0.47207755 0.6707835 -0.57200724 
0.19434403 0.92424786 -0.32862785 
0.23441346 0.79437584 -0.5603727 
0.45201144 0.76569045 -0.45760658 
0.37933257 0.9251895 0.011456002 
-0.07953748 0.966809 0.24280478 
0.98360777 -0.04840523 0.17370315 
0.65309113 0.08034565 0.75300497 
0.008157921 0.9934462 0.114009775 
-0.7568012 0.5698348 -0.32021913 
0.38851058 0.06041828 -0.91946137 
0.23309225 0.6603674 -0.71385074 
-0.5721697 0.5971348 -0.56218493 
-0.4429844 0.6515491 -0.6158317 
-0.62592924 0.7688181 0.1308868 
-0.62620026 0.7033432 0.33642486 
-0.4753365 0.48293546 -0.7354106 
-0.2881535 0.8114137 -0.508503 
0.024839142 0.21873653 -0.97546786 
0.26472482 0.29414707 -0.91836727 
-0.009203326 0.29125026 -0.9566027 
0.62583756 0.32714984 -0.70802575 
0.70697314 0.38790068 -0.5913731 
0.8170015 0.44553608 -0.36606878 
0.98490226 -0.079086415 0.15399036 
0.91368955 0.2719321 -0.30203357 
0.5478028 0.108586274 0.8295307 
-0.1658258 0.5248931 0.8348587 
-0.24303892 -0.08677039 0.96612793 
0.16696277 0.57337934 0.8020971 
-0.32856005 0.8686792 0.37073535 
-0.25571576 0.9623388 -0.09226926 
-0.03775716 0.883297 -0.46729094 
0.4623133 0.84694695 0.2625782 
-0.039451323 0.99893194 0.024057038 
0.9917594 0.12080581 -0.042652816 
0.93956524 -0.2824119 -0.19354819 
0.607284 -0.044011645 0.79326487 
0.7768891 0.44332924 0.44710457 
0.75221145 0.35130292 -0.5574623 
0.8373401 0.54210824 0.0705718 
0.7005129 -0.08113879 0.7090122 
0.5508732 -0.2979833 0.7795798 
0.18391182 -0.28996542 0.9391999 
-0.26614445 -0.39843872 0.87773216 
-0.49188313 0.43736833 0.7528346 
0.15041587 -0.12084615 0.9812091 
0.15256308 0.54419076 0.8249733 
0.020203574 0.6881627 0.7252751 
0.17931366 0.35631073 0.91700023 
-0.49680996 0.5071267 0.7042744 
0.5460563 0.773068 0.32278237 
0.71644515 0.69383377 -0.07280848 
0.86702895 0.042578258 0.49643517 
0.24166332 -0.031630304 0.9698446 
0.2935399 0.38067287 0.87688226 
0.37068847 0.77621204 0.5099852 
0.2827679 0.95163137 0.12016742 
0.07675657 0.6315366 0.7715375 
0.21496624 0.975431 -0.048207473 
-0.23855701 0.91640174 -0.32140073 
-0.28043267 0.94599336 -0.1626476 
0.17216884 0.96908224 -0.17674133 
0.47795624 0.8743628 0.083950356 
0.60368043 0.7201371 0.34201244 
0.054368798 0.99611354 0.0692955 
0.17528039 0.8549038 0.4882789 
-0.14104323 0.79443973 0.59073895 
-0.18250541 0.8583334 0.47953695 
-0.008819109 0.99539775 0.0954239 
-0.20849156 0.7246874 0.6567797 
-0.85095894 0.50564754 -0.14208975 
0.03724861 0.67625374 -0.7357265 
0.24287918 0.24758959 -0.9379281 
0.6187466 0.61911124 -0.48358458 
0.58181006 0.78082913 -0.2276025 
0.6601809 0.37141633 -0.6528484 
0.65203047 0.7246949 -0.22287582 
0.17516997 0.6620286 0.7287206 
0.47040224 0.6223414 0.62563014 
0.2383357 0.9470087 -0.2153383 
0.1694415 0.7756344 -0.6080138 
0.29296276 0.93598485 -0.19520578 
-0.2551893 0.9663393 0.03266297 
-0.9046708 0.30150715 -0.3011051 
-0.2258807 0.49592477 -0.8384728 
-0.06621694 0.5210847 -0.8509324 
0.1609731 0.84979254 -0.5019366 
0.5689087 0.7011714 -0.4297694 
0.056568503 0.62130374 -0.7815252 
0.10135551 0.9748687 -0.19838865 
0.8895203 0.4498167 -0.08011641 
0.28258032 0.8475689 0.44919422 
0.38918394 0.9111905 -0.13515791 
0.04570655 0.9661617 -0.2538554 
0.02652816 0.92495453 -0.37915087 
0.13125968 0.9898198 -0.055025496 
0.0011156949 0.99598867 -0.089473434 
0.070024446 0.9961788 0.052196346 
0.5527696 0.33553633 0.76279825 
0.46476153 0.2781068 0.84062684 
0.37841964 0.13979103 0.9150176 
0.35797203 0.42297956 0.8324329 
0.6147872 -0.033281192 0.7879905 
0.18384977 0.60046595 0.77822876 
-0.0855699 0.39539644 0.91451603 
-0.7579426 0.17319486 0.6289092 
-0.27625775 0.9393098 -0.20341793 
-0.88135374 0.45620605 -0.122848324 
0.10841271 0.16918594 -0.9796034 