# OOMMF: rectangular mesh v1.0
# Segment count: 1
# Begin: Segment
# Begin: Header
# Desc: Time (s) :  3.1599999999999986e-07
# Title: m
# meshtype: rectangular
# meshunit: m
# xbase: 2e-09
# ybase: 2e-09
# zbase: 5e-10
# xstepsize: 4e-09
# ystepsize: 4e-09
# zstepsize: 1e-09
# xmin: 0
# ymin: 0
# zmin: 0
# xmax: 1.024e-06
# ymax: 1.024e-06
# zmax: 1e-09
# xnodes: 256
# ynodes: 256
# znodes: 1
# ValueRangeMinMag: 1e-08
# ValueRangeMaxMag: 1
# valueunit: 
# valuemultiplier: 1
# End: Header
# Begin: Data Text
0.69312155 0.49686345 0.5222158 
0.78560257 -0.1249534 0.60598284 
-0.29623345 -0.047245346 0.9539464 
-0.04799771 -0.6419543 0.76523924 
0.24464856 -0.21108349 0.9463566 
-0.21929096 -0.36780488 0.90367645 
-0.06473179 0.12477052 0.9900718 
0.42385188 -0.27848095 0.86185724 
0.27693558 -0.074578516 0.95799 
0.65114284 0.600759 0.4637905 
-0.5158811 0.68793494 0.51050204 
-0.69713396 0.5747242 0.42859823 
-0.8275537 0.02472941 -0.56084174 
-0.8931841 -0.38915113 -0.22535244 
-0.6589547 -0.17641133 -0.73120296 
-0.42921752 -0.40533894 -0.80713856 
0.22546904 -0.04707752 -0.9731122 
-0.030006336 0.021678654 -0.99931467 
0.5176933 -0.8027815 -0.2958643 
0.60038924 -0.26474988 -0.75461274 
0.65181667 0.60490394 -0.45741275 
0.86397976 0.17290221 0.47291 
0.111301355 -0.12847011 0.9854479 
0.42248172 -0.1057927 0.9001762 
0.5744354 0.20336835 0.79288423 
-0.3700933 0.20157099 0.9068628 
-0.24798024 0.51360524 0.82141066 
-0.27373236 0.31689173 0.90810263 
-0.0073909755 0.8531384 -0.52163225 
0.6447328 0.2999684 -0.7030923 
0.65424263 0.23721425 -0.7181198 
0.8429533 -0.034569696 -0.5368749 
0.6515873 0.24185027 0.71898717 
0.64208835 0.7594242 0.104869515 
0.32517302 0.71041304 -0.6241602 
0.6962422 0.30610257 -0.6492673 
0.4464763 -0.22510728 -0.8660172 
0.11270521 -0.39196265 -0.9130514 
-0.44596317 -0.32246178 -0.83494633 
0.10455034 -0.3104943 -0.9448082 
0.045250785 -0.26601672 -0.96290576 
0.047328383 -0.21145004 -0.9762423 
0.26599702 -0.06315925 -0.9619026 
0.21451585 -0.2544338 -0.94299865 
-0.38238126 -0.273685 -0.8825425 
0.73074675 -0.66459584 0.15595415 
0.92968976 0.34257984 -0.13533655 
0.36170998 0.9320649 -0.020517146 
0.14017448 0.827863 -0.54313356 
0.41749766 0.9074145 -0.047902957 
-0.10340756 0.99337107 -0.050207675 
0.4724729 0.55100775 0.68786615 
-0.3873764 0.3061036 0.8696207 
-0.47422245 0.8789242 0.051043145 
-0.7313564 0.53260744 -0.42596623 
-0.11952283 0.73789394 -0.6642492 
-0.15166655 0.9862433 -0.06573815 
-0.13230889 0.99110717 -0.014177488 
-0.03495383 0.06991295 0.9969406 
-0.31456685 0.8442734 0.43387812 
-0.5606477 0.6721951 0.48355764 
0.43704948 0.3241614 0.8389919 
-0.757301 -0.49341422 0.427829 
-0.71486014 -0.69866145 0.029107692 
-0.9876623 -0.098622754 -0.12164185 
-0.22986229 0.5423462 -0.808099 
-0.32597253 0.7730578 -0.5441723 
0.75037605 0.0009657856 -0.6610105 
0.65518636 0.67662126 0.33602765 
0.14069995 0.9525842 -0.2697903 
0.9976081 0.05709843 -0.038957994 
0.9508373 0.28190267 -0.12821543 
0.8841083 -0.07847154 0.46064606 
0.28735495 0.7517306 0.5935724 
0.21363409 0.5283854 0.821687 
-0.28630835 0.69475305 0.6598074 
0.31223464 0.5974859 0.73859334 
-0.13928346 -0.09818395 0.9853731 
-0.603866 0.6829816 0.4109525 
-0.51134163 0.5571976 0.6542635 
-0.41839328 0.74830264 0.51477206 
0.3848183 0.58639115 0.7127835 
0.23349693 0.6352056 0.73620176 
-0.5357615 0.8252335 0.17874402 
-0.38480118 0.7319293 0.5623234 
-0.9782024 0.20120537 -0.051347546 
-0.99653965 -0.017938053 0.081160225 
-0.8682286 0.19596007 -0.45582753 
-0.4500358 0.5415616 -0.7100555 
-0.34275228 0.62668484 -0.69984794 
-0.6793276 0.19845696 -0.7064906 
-0.12863855 0.59937966 -0.79006094 
-0.74896723 -0.3271976 -0.5761857 
-0.6635897 -0.47552818 -0.5775134 
-0.53752035 -0.08631452 -0.83882165 
-0.37850237 -0.24480045 -0.8926415 
-0.45785627 -0.70788836 -0.5378307 
-0.2361906 -0.68030995 -0.69382447 
0.13629659 -0.75115246 -0.64590496 
-0.19468209 -0.24557748 -0.94962656 
0.26013902 -0.09055503 -0.9613155 
0.92834485 0.34677377 0.13387978 
0.81702036 -0.43477154 0.37874988 
0.93713546 -0.32841972 -0.117973395 
0.6043329 -0.14140421 0.7840833 
0.9258927 -0.13549243 0.35265365 
-0.07085089 0.20024869 0.97718 
0.5584503 -0.2038643 0.80409753 
-0.38558057 0.45665923 0.8017419 
-0.046159204 0.8700174 -0.4908555 
-0.37114367 0.7951704 0.47953773 
-0.6181375 0.44643283 -0.6469961 
-0.7671179 0.62807757 -0.13057107 
-0.41234496 -0.023189967 -0.9107327 
-0.3178428 0.30010077 -0.8993973 
-0.57343173 -0.46263078 -0.6761278 
0.06483394 -0.65075535 -0.7565144 
-0.24327868 0.42226353 -0.8732176 
-0.20717703 0.3198487 -0.9245402 
0.44830498 -0.33951572 -0.8268929 
0.37925768 -0.7487846 -0.54358566 
0.5446761 -0.74902475 -0.37721324 
0.5711187 -0.8172958 0.076491855 
0.119734935 -0.08544228 0.9891225 
-0.16233967 -0.26932195 0.94926894 
-0.6051045 -0.09740706 0.7901649 
-0.27998215 -0.1792878 0.94311506 
-0.7026626 0.29554984 0.6472369 
-0.14587244 0.28454503 0.9474996 
-0.005223688 -0.527206 0.84972143 
-0.42182636 -0.13200246 -0.89701617 
-0.18914297 -0.09271123 -0.9775631 
-0.008725295 0.13326761 -0.9910417 
0.43384936 0.77391773 -0.46133092 
0.49917233 0.39763463 -0.76987904 
0.9207553 -0.032496396 -0.38878486 
0.6963845 -0.047472376 -0.7160972 
0.7563605 -0.04548125 -0.6525721 
0.6580475 0.65307325 -0.37479186 
0.9147078 0.37085396 -0.16055217 
0.98864686 0.15022694 -0.0030519888 
0.26039445 0.63453406 0.72770965 
0.11952942 0.7953881 -0.59419733 
-0.09436448 0.89818096 -0.42937914 
-0.23169789 0.6978215 -0.677762 
-0.09923832 -0.059747316 -0.99326843 
-0.95623344 -0.27354762 -0.103872165 
-0.818204 0.48707604 -0.30544913 
0.9714723 -0.011926205 -0.23685315 
0.6142034 -0.0070312805 0.78911656 
0.08530092 -0.42104122 0.90302163 
0.50156724 0.6775465 0.537923 
0.30239242 0.62728053 0.7176894 
-0.49771816 0.8639007 0.077150844 
0.0646048 0.9327008 0.35481745 
0.5477965 0.83187705 0.08888055 
0.5662283 0.17245826 0.8060049 
-0.157107 0.8980993 0.41077396 
-0.87675875 0.39968705 -0.26747787 
-0.15109567 0.7206102 -0.6766765 
0.06982866 0.22849123 -0.97103846 
0.036648005 0.79970855 -0.59926903 
0.079697736 0.21622206 -0.97308594 
0.67671555 0.5655617 -0.47137678 
0.4873995 0.3965326 -0.77794844 
-0.59139407 0.54679334 -0.5926805 
-0.5258829 0.4077063 -0.74647355 
-0.5527893 0.77951807 -0.29457718 
0.22018927 0.69098014 0.6885224 
0.08212949 0.88618726 0.4559902 
0.3579243 0.046150763 0.93260944 
-0.0629954 0.54905 0.83341223 
0.09922272 -0.64613885 0.75674266 
-0.13375285 -0.49309093 0.8596346 
-0.3395672 0.16932434 0.9252153 
-0.4781693 0.05089799 0.87679166 
-0.041301403 -0.08396261 0.9956126 
-0.3199633 -0.14224052 0.93669164 
-0.11238573 0.0038352897 0.99365735 
-0.6113013 -0.71864575 0.3314499 
-0.74249107 -0.3489228 0.57180417 
-0.92278355 -0.094237536 -0.37361714 
-0.607431 -0.14890592 -0.7802915 
0.6130023 -0.07812343 -0.7862092 
0.51171595 -0.60484254 -0.61017406 
0.24300739 -0.82471573 -0.5106775 
0.28457677 0.56277484 -0.77608037 
-0.23035331 0.56639993 -0.79128283 
-0.0740027 0.10181198 -0.9920473 
-0.34678823 0.1563692 -0.9248171 
-0.62838906 0.41151705 -0.6601371 
0.07822485 0.29578796 -0.9520454 
0.32844833 0.42541698 -0.8432924 
0.42315605 0.3296364 -0.8439662 
-0.39043447 0.8034359 -0.4495015 
-0.98131067 0.19234368 -0.005782577 
0.039183564 0.8370769 0.5456803 
-0.7379021 0.6186809 0.26969332 
-0.3281719 0.734898 0.5934882 
-0.8377319 0.533972 0.114364184 
-0.93856317 0.30546978 -0.16058497 
-0.7450878 0.39058667 -0.54063517 
0.29441065 0.48939973 -0.82085955 
0.79053605 0.36302415 0.49322024 
0.21634379 0.38620257 0.89668447 
0.078267016 0.5771831 0.8128554 
-0.78135216 0.38713196 0.4895077 
-0.84066164 -0.06718174 0.53737754 
-0.9882843 0.15261996 -0.0012113437 
-0.82219905 -0.53065044 -0.20590964 
-0.95501167 0.184109 0.23250088 
-0.2931628 -0.65340734 0.69793594 
-0.479436 -0.6569212 0.5818898 
-0.97169167 -0.07858727 0.22279905 
-0.8576966 0.49650374 -0.13356894 
-0.59611356 -0.112009935 -0.7950488 
0.17095686 0.44374555 -0.8796953 
0.35196254 0.6211248 -0.70023316 
0.74951375 -0.21754797 -0.6252216 
0.8973739 -0.07705112 -0.43449202 
0.96746606 -0.20540443 0.14771126 
0.9536661 0.27984858 0.11048036 
0.64987653 0.21441045 0.72916985 
0.22147927 0.6180494 0.75429565 
0.58275557 0.69370717 -0.42328048 
0.5050512 0.83746046 -0.2087664 
0.53415495 0.70341253 -0.46892366 
-0.011769284 0.005086945 -0.9999178 
-0.26811486 0.5499673 -0.7909808 
0.07207888 0.36283466 -0.9290617 
-0.30647233 -0.4222811 -0.8530847 
0.80933017 -0.4641595 -0.3599178 
0.9385507 0.34175164 0.04825534 
0.64526016 0.09103535 0.75851965 
0.958557 -0.00017955633 -0.28490072 
0.6674147 0.42903018 0.60867953 
0.58199626 0.60799545 0.5400203 
0.9004803 0.036147453 0.4333922 
0.21174479 -0.92206186 0.32398462 
-0.19519123 -0.7162001 0.6700432 
-0.029828805 -0.9654415 0.25890723 
-0.031148024 -0.7969488 0.6032433 
-0.078422435 -0.20051226 0.97654736 
0.9362544 0.27511024 -0.21849975 
0.8723627 0.44231492 0.20818461 
0.6642977 -0.37570387 0.6461851 
0.807901 -0.17330979 0.5632582 
0.7366747 -0.4832641 0.4730394 
0.05802969 -0.18016078 0.98192394 
-0.08760515 -0.0546709 0.99465394 
0.39967403 -0.30833647 0.8632436 
0.4453948 0.32095712 0.835829 
0.26289234 0.27630544 0.92441493 
0.19763266 0.1422824 0.9698955 
-0.32361883 -0.42865983 0.84351736 
-0.47135067 -0.56092423 0.68058264 
0.9376494 0.21202502 0.27542493 
0.6801187 -0.4846755 0.5500257 
0.11797493 -0.55589676 0.82283694 
0.26857367 -0.89555675 0.3547485 
0.05316559 -0.9297427 0.3643516 
-0.61827916 -0.6922564 0.37217197 
0.37431082 -0.42528388 0.82402974 
0.048978046 -0.12758152 0.99061805 
-0.6244219 0.16218361 0.764064 
0.17376614 0.46649402 0.86728823 
-0.31168753 0.54030544 0.7816144 
-0.8874107 0.4499498 0.10023741 
-0.99789506 0.049463905 0.041937537 
-0.8404431 -0.2693295 -0.470231 
-0.7727163 -0.38471818 -0.5048778 
-0.68108 0.32791805 -0.65467536 
-0.3733755 -0.32313302 -0.8695837 
-0.40122446 0.08404696 -0.9121158 
0.36512157 -0.6005258 -0.7113754 
0.5038041 -0.65884775 -0.55866015 
0.92535573 0.37579793 -0.049927622 
0.97098 -0.021794774 0.23816569 
0.28724954 -0.13346851 0.9485114 
0.58619356 -0.23447895 0.7754978 
0.2873351 -0.56343234 0.7745854 
0.31297326 0.031353008 0.9492443 
0.11775627 0.07126509 0.99048215 
0.51686 0.7928737 0.3228114 
0.34039184 0.9287178 -0.14702606 
0.43916538 0.8871278 -0.1419091 
0.5831101 0.67490816 -0.45219645 
0.7594245 0.6398896 -0.11754093 
-0.0039654975 0.5847523 0.8112022 
0.5946842 0.54116595 0.5945504 
0.4730883 0.54577214 0.691607 
-0.005415002 0.9995463 -0.029633041 
-0.8428332 0.2674634 -0.46700716 
0.08551622 0.12505084 -0.9884581 
-0.29675692 -0.08138707 -0.9514786 
-0.2312712 0.40419227 -0.88495326 
-0.10380385 -0.119923584 -0.98734146 
-0.03521501 -0.30148953 -0.95281893 
0.009544864 0.485474 -0.874199 
0.14871386 0.50477767 -0.8503434 
0.59744525 0.0679842 -0.79902285 
0.91938007 0.37903592 -0.10522498 
0.7044976 0.6449491 0.2961821 
0.8280433 0.43576044 0.3527848 
0.53805774 0.7368679 -0.40929165 
0.12552795 0.9653449 0.22880565 
-0.05543713 0.76641303 0.63995147 
-0.34510177 0.7521688 0.56137955 
0.034378257 0.4832341 0.874816 
-0.31974334 0.5597358 0.7644999 
-0.8591747 0.33502698 0.3867504 
-0.7238336 0.68445474 0.08710109 
-0.22022839 0.9151202 0.33771968 
0.024034282 0.99770683 -0.0632742 
0.22262964 0.44477463 0.8675319 
-0.26143885 0.6090381 0.748814 
-0.67102295 -0.7223287 0.16724098 
-0.13494696 -0.28589362 0.9487119 
-0.92327493 -0.12410311 0.36354077 
-0.86902994 -0.23124279 -0.43739456 
-0.9210381 -0.17161846 -0.34962258 
-0.14163119 0.07688536 -0.9869292 
-0.3627642 0.36657333 -0.8567533 
0.54021734 0.31921148 -0.778633 
0.99892145 0.0020695801 0.04638745 
0.3411334 0.8227644 0.45462835 
0.6830804 0.34997034 0.64103204 
0.6919333 0.037143312 0.7210054 
0.8891424 -0.16309923 0.42757976 
0.60653955 0.23411332 0.7598031 
0.4144368 0.12821412 0.9010014 
-0.1711029 0.48412982 0.8581039 
-0.22020824 -0.29178625 0.9307896 
-0.23678319 -0.7368653 0.63321674 
-0.43849406 -0.18309376 0.87988615 
-0.59250826 0.15822683 0.7898724 
0.09931902 -0.0072757 0.9950291 
-0.14490132 -0.67346305 0.7248801 
-0.3212708 -0.27894807 0.90497136 
-0.42076185 0.49293384 0.7615615 
-0.21668513 0.7207252 0.65848535 
-0.4984169 0.866801 0.015380694 
-0.769644 0.4114832 0.4881904 
-0.88129383 -0.056125116 -0.46922415 
-0.62081563 0.72395295 -0.3007992 
-0.71165115 0.70130646 -0.041495647 
-0.7022206 0.36572734 -0.61084354 
-0.09917105 0.5306026 -0.84179926 
-0.6011089 0.5662146 -0.5639762 
-0.14054404 0.06626324 -0.9878546 
-0.57935077 0.30918446 -0.7541603 
-0.7007711 -0.11704866 -0.7037183 
-0.531403 -0.76200557 -0.370079 
-0.38692555 -0.42592034 -0.81785125 
-0.16106305 0.0011336445 -0.9869435 
0.28776154 0.36771527 -0.8842957 
0.44962332 0.12350873 -0.88463813 
0.9042071 0.14058515 -0.40329325 
0.8897407 0.4553773 -0.031513777 
0.86364585 0.49181077 -0.1106263 
0.52004033 0.11300085 0.846634 
0.5288987 -0.31260306 0.7890156 
0.25603196 0.21632542 0.9421523 
0.85286564 -0.021272914 0.521697 
-0.33555353 -0.05837987 0.9402105 
-0.92297673 0.27000463 0.27424747 
-0.8791367 0.35942346 -0.31294352 
-0.6816616 0.31191137 -0.6618526 
-0.4709878 0.30842602 -0.8264647 
-0.16128501 0.60442746 -0.7801632 
-0.49583304 0.33719966 -0.8002788 
-0.51935136 -0.11126238 -0.84728676 
-0.31345126 -0.5386306 -0.7820649 
-0.15483914 -0.48443398 -0.8610161 
-0.20143814 -0.07631719 -0.97652364 
0.28866512 -0.29275832 -0.9115728 
-0.046880525 -0.5740183 -0.81749946 
0.2999563 -0.46154955 -0.83486414 
0.4807309 -0.87015307 -0.1083122 
0.27769083 0.14524728 0.9496268 
-0.3595314 -0.33235338 0.87193954 
-0.5197754 -0.22809683 0.82328945 
-0.24387853 -0.05935738 0.96798766 
-0.25389817 -0.40239254 0.8795544 
-0.60401237 -0.39461136 0.692424 
-0.94345534 -0.068086885 -0.32443222 
-0.49727252 -0.37411878 -0.7827868 
-0.11617179 0.86104864 -0.49507526 
0.053906746 0.54571027 -0.8362382 
0.5672952 0.45170635 -0.68857646 
0.13240454 0.91783535 -0.3742291 
0.76434165 0.05498132 -0.64246327 
0.9908653 -0.037396774 0.12956719 
0.7752302 0.63058156 0.037216824 
0.92788 0.21564755 0.30419567 
0.8846657 0.45305765 -0.11002502 
0.6969484 0.7147993 0.05766277 
0.30966437 0.4069345 0.85936743 
0.20317931 0.974848 0.09159479 
-0.0976273 0.93014085 0.35398716 
-0.3062472 0.72506034 0.61684704 
-0.8277169 0.24845031 -0.5031475 
-0.86583036 0.21971752 0.44951314 
-0.7408329 0.6651974 0.09316201 
0.9422914 -0.33479175 -0.0012250834 
0.8752756 -0.4822316 -0.03667991 
0.5044357 -0.002679246 0.8634451 
0.73720753 -0.011264095 0.6755726 
0.39326164 -0.16796121 0.9039549 
0.295358 0.1807114 0.9381403 
0.5635942 0.48482963 0.6688063 
0.41772613 0.7099668 0.5669674 
0.4470979 0.6532332 0.6110565 
-0.031805046 0.8256004 0.56335837 
-0.83189106 0.4082356 0.3759001 
-0.7026731 0.7040579 -0.10272834 
-0.12022252 0.9714291 -0.20462678 
-0.18461646 0.8711926 0.454907 
0.021479297 0.7800392 -0.62536204 
0.46592414 0.72552115 -0.50649166 
-0.0087429825 0.99600995 -0.08881418 
0.73971355 0.6685872 0.076257 
0.697568 0.6678712 -0.259513 
0.26639682 0.7522271 0.60265017 
-0.06491911 0.29954877 0.95186985 
0.43135586 0.51177955 0.7429764 
-0.08451737 -0.086276844 0.99267983 
-0.2094805 -0.23713565 0.9486226 
-0.2658237 -0.8860428 0.37982345 
0.3206624 -0.6015288 0.7316684 
0.10829612 -0.185296 0.97669727 
-0.44969526 0.064442426 0.89085424 
-0.025307203 0.09061652 0.99556434 
-0.73709387 -0.42223454 0.52764636 
-0.792106 -0.6009032 0.107161365 
-0.8759374 -0.48239172 -0.00564726 
-0.73193204 -0.40143713 0.55056673 
-0.72191274 -0.61622155 0.31482223 
-0.3233988 -0.7069747 -0.6289675 
-0.00040410683 -0.5065129 -0.8622323 
0.1530542 -0.6266028 -0.7641619 
-0.20975333 -0.6398505 -0.73932064 
-0.69461584 -0.24412185 -0.67669296 
-0.5790493 0.11905189 -0.80655354 
-0.23683594 0.07740054 -0.9684617 
0.6588842 0.3111896 -0.68485963 
0.5752776 0.81699675 -0.0396484 
-0.6768557 0.7143975 0.17748988 
-0.037066486 0.9583241 -0.28326833 
0.22912125 0.9574258 -0.17561162 
-0.21386802 0.89918065 -0.38175198 
-0.6104087 0.7903282 0.052751873 
0.09019536 0.92420226 0.37109992 
-0.13029827 0.95192105 0.277252 
-0.029704694 0.6943002 0.71907234 
-0.16011722 0.9170883 0.36511865 
-0.7773762 0.42431012 -0.4643784 
-0.5676439 0.6143853 -0.54800653 
-0.25763136 0.9647493 0.053712085 
0.30464163 0.7503157 0.5867026 
-0.7081129 0.43973747 0.5524556 
-0.5251009 0.5028993 0.68655765 
-0.76551276 0.11569312 0.6329339 
-0.8538072 -0.3164072 0.4134003 
-0.7756961 -0.6098025 0.1625932 
-0.8731566 -0.47979644 0.08598247 
-0.6992721 -0.5662346 0.43634492 
-0.4782224 -0.83594406 0.26925993 
0.14937118 -0.98346347 0.10241065 
-0.64322317 -0.19437669 0.74059546 
-0.87866896 0.27773714 -0.38833368 
-0.027070314 0.6750304 -0.7372932 
0.014017228 0.103680976 -0.9945119 
0.50597423 0.15393637 -0.8487013 
0.77733564 -0.45054647 -0.4390415 
0.69041014 -0.48404372 -0.5376203 
0.98980266 0.11740318 -0.08066739 
0.5285043 0.8353903 0.15101746 
0.60135984 0.7902674 0.117659576 
-0.118298516 0.98049164 0.15697713 
0.010441113 0.99890155 -0.04568129 
-0.070470706 0.8388688 -0.53975284 
0.18409257 0.97517496 -0.123059936 
-0.2131321 0.8374539 -0.50323534 
0.19736814 0.30552846 -0.93150324 
-0.08180863 -0.20555064 -0.9752212 
0.2858093 -0.41363475 -0.8644185 
0.7927187 0.26363245 -0.5496316 
0.8936909 0.37008652 0.25367832 
0.9738506 0.0021839102 0.22717927 
0.8983923 0.3901529 0.20167282 
0.62800014 0.6149279 0.4769482 
0.55785626 0.7750679 0.2967595 
0.82369846 0.40090412 0.40099493 
0.24244368 -0.94710773 -0.21025716 
0.301421 -0.8885308 0.34591705 
-0.2693043 -0.70879716 0.65198296 
-0.08618659 -0.31645536 0.944684 
-0.34454927 -0.32131204 0.8820683 
0.20993727 0.5280482 0.8228557 
-0.37924528 -0.3770816 0.8449748 
0.2643796 -0.26846373 0.92629945 
-0.060321208 0.038337238 0.9974426 
0.7214958 -0.48048717 0.49857387 
0.20012441 -0.76895076 0.607178 
0.4780555 -0.61880946 0.623328 
0.07174951 -0.15702192 0.98498535 
0.047074206 0.09800298 0.99407214 
-0.49533418 0.046289716 0.8674683 
0.11158773 0.1803795 0.97724694 
0.3379768 0.105267696 0.9352489 
-0.7950723 -0.054846324 0.6040298 
0.95984405 -0.10408972 0.2605085 
0.34833694 -0.89427483 0.28095192 
0.47834972 -0.3407914 0.80934715 
0.90633196 -0.41227013 0.092713 
0.37091166 -0.07711744 0.92546064 
0.26258644 -0.10040919 0.95966995 
0.37516162 -0.634627 0.67564964 
0.62169474 -0.0026220905 0.7832553 
-0.11443998 0.19481586 0.9741408 
-0.018555287 0.5350859 0.8445938 
-0.5471836 0.40364674 0.73325264 
-0.4662821 0.681965 0.5634756 
-0.69510865 0.7045274 0.14305681 
-0.4450424 0.8637272 0.2364588 
-0.8371001 -0.16958326 0.52010113 
-0.966497 0.054958142 -0.2507254 
-0.6153967 -0.4990481 -0.6101131 
-0.39252013 -0.2803087 -0.875988 
-0.046808537 -0.7731834 -0.63245267 
0.1290205 -0.07839116 -0.98853856 
0.95645785 0.10327215 -0.27298936 
0.89878637 -0.21719179 0.38080284 
0.8567292 0.11400037 0.5030101 
0.83863544 -0.5273589 0.13632068 
0.54834867 -0.44941935 0.7052205 
0.19426234 -0.14065129 0.97081375 
0.54842126 -0.23095861 0.80367416 
0.619657 0.62121475 0.47970563 
0.5182347 0.8418085 -0.15096785 
0.5916339 0.2619059 0.7624793 
0.6287674 0.6826035 0.3724301 
0.55645555 0.77352166 -0.30335042 
0.7308676 0.6012199 0.3230592 
0.61344045 0.6518871 0.44579607 
-0.017844645 0.7093367 0.70464396 
0.022792576 0.88662964 0.46191823 
-0.98697376 -0.04479232 0.15452015 
-0.8346596 0.5473757 0.061019972 
-0.17479704 0.5753376 -0.7990199 
-0.4687696 0.461366 -0.7532572 
-0.2696653 0.29190055 -0.9176463 
0.005223576 0.59628135 -0.8027586 
0.48657152 0.34958485 -0.8006488 
-0.035475485 0.45310992 -0.8907485 
0.23917314 0.31465665 -0.918579 
0.6058604 0.7826231 -0.14294827 
0.94223124 0.3019093 0.14508966 
0.9553136 -0.14433071 0.25796226 
0.9614004 -0.0647292 0.26743114 
0.5094775 0.7055434 0.49258623 
0.49627078 0.5631576 0.66073364 
-0.022602463 0.6138707 0.78908294 
0.2904956 0.64562356 0.7062455 
-0.45400193 0.7425664 0.49242005 
-0.40818033 0.80353844 0.43326098 
-0.30488232 0.5572538 0.7723439 
-0.38865018 0.7673089 0.5100865 
0.23161447 0.86873513 0.43778312 
-0.6706905 0.43463078 0.6010577 
-0.9619222 -0.1483503 0.22956039 
-0.7321721 -0.3476949 0.5856896 
-0.7387916 0.4812164 0.47182402 
-0.96567076 0.21161512 -0.15066195 
-0.6765835 -0.6775677 -0.2883345 
-0.96651477 0.006315483 -0.2565334 
-0.46332824 0.75618434 -0.46207395 
-0.31014076 0.58542603 -0.74905884 
0.5301326 0.14049833 -0.8361935 
0.9244219 -0.34898892 -0.15378827 
0.08676147 0.70480967 0.70407087 
0.044012256 0.48265496 0.8747041 
0.86564755 -0.02757032 0.49989423 
0.8531157 0.41982955 0.30973676 
0.4210456 0.21811694 0.88042355 
0.3902231 0.21119332 0.8961715 
-0.040703066 -0.16721904 0.9850792 
0.07331696 -0.49334788 0.86673677 
-0.33489838 -0.49625456 0.80098355 
-0.36885017 -0.3502192 0.8609855 
-0.8254772 0.16474059 0.53985924 
-0.41917995 0.20916113 0.8834816 
-0.6082277 -0.7618135 0.22293334 
-0.3890227 -0.3619918 0.8471266 
-0.53779334 0.4124727 0.73528546 
0.11193239 0.751259 0.65044683 
0.13712943 0.9905414 0.004821889 
-0.51862055 0.7876416 0.3326463 
-0.82427067 0.37075 0.42792818 
-0.97914344 0.06198758 0.1934834 
-0.4062422 0.571123 -0.7132923 
-0.6898285 0.23522303 -0.68469465 
0.28317952 0.7361016 -0.6147875 
0.7795773 0.5883578 -0.21469602 
0.14795503 0.7779871 -0.6106107 
0.22304992 0.5152267 -0.8275206 
-0.08691904 -0.07676314 -0.9932535 
-0.448444 -0.15979666 -0.8794107 
0.039980963 0.039502446 -0.99841934 
-0.8409192 -0.20226888 -0.5019386 
0.35455823 0.5120923 -0.7823363 
0.36912623 0.78832066 -0.49223617 
0.94253796 0.33267033 0.030866183 
0.9680046 0.020095997 0.25012678 
0.7295988 -0.21622308 0.6487936 
0.31847116 -0.5438295 0.7764185 
0.6433172 -0.043764483 0.7643479 
0.7955992 0.029402446 0.6051095 
0.6537675 0.23380743 0.7196681 
0.11852788 0.59736794 0.79315996 
-0.9909856 0.11377018 0.070739396 
-0.8177421 0.3550004 -0.45307016 
-0.83809125 -0.18233238 -0.51415753 
-0.582712 0.7390058 -0.33810815 
-0.8293712 0.53462374 -0.16223751 
-0.07031959 0.017615896 -0.997369 
-0.11240989 0.4065519 -0.90668607 
0.13367006 -0.1530043 -0.97914356 
-0.31293374 -0.22556266 -0.9226018 
-0.3449361 -0.37521172 -0.8603694 
0.13838533 -0.64242035 -0.75375444 
0.90377396 -0.30828425 -0.29690653 
0.41980582 -0.8948467 0.15169904 
0.8589708 -0.46076193 0.22331046 
0.5515564 -0.27486116 0.7875512 
-0.04762971 -0.27599734 0.9599776 
0.2572035 -0.25542375 0.9319899 
-0.8487496 -0.033460192 0.5277354 
-0.7575412 0.15862028 0.63322264 
-0.9144344 -0.17291899 0.36593577 
-0.6619847 -0.07222529 -0.7460294 
-0.73313725 -0.579337 -0.35619998 
-0.27963915 0.9378852 -0.20536138 
0.80535156 0.57042754 0.16131143 
0.7288339 0.61562306 0.29968217 
0.035518967 0.9295585 0.36695984 
0.27257574 0.670698 0.6898309 
0.37655097 0.89421326 -0.24205786 
0.8185907 0.53805405 0.20101506 
0.29312626 0.2684827 0.9176023 
0.59759396 0.71384144 0.36511898 
0.26945576 0.8763042 0.3993552 
0.23099256 0.48234287 0.84497803 
0.5689862 0.76841843 0.29289588 
0.34746298 0.37221867 0.8606526 
-0.26685965 0.47795543 0.8368659 
-0.6506304 0.69503725 -0.3059467 
-0.38206446 0.6803124 0.6254613 
-0.04739883 0.38680634 0.92094207 
0.52133846 -0.5085697 0.6852467 
-0.010254699 -0.78667855 0.6172777 
0.024104362 -0.7937888 0.6077156 
0.26840216 -0.439746 0.85707873 
0.5219701 -0.3708445 0.76812875 
0.873375 -0.45420182 0.17583218 
0.5904141 0.03805025 0.8062032 
0.90128046 -0.15899463 0.40300655 
-0.05025161 0.29778093 0.95331067 
0.4054342 0.6115251 0.6794559 
-0.54014575 -0.03913878 0.84066087 
-0.5873936 0.35928968 0.72517574 
0.16584006 0.5883685 0.79140365 
-0.19763331 0.3480243 0.916417 
-0.03469277 0.9987653 0.03555716 
-0.09527845 0.812647 0.5749147 
-0.42862743 0.83058494 0.35553798 
0.47229892 0.69458723 -0.5426623 
0.52445763 0.7730625 0.3568174 
0.46637252 0.5005211 0.7293664 
0.01243374 0.10205274 0.9947013 
0.6710738 0.04069629 0.7402728 
0.37356883 0.02793528 0.9271818 
-0.11158231 -0.48306823 0.8684437 
0.503509 -0.8631172 0.03882563 
0.051360074 -0.80895483 0.5856231 
0.5806707 -0.3649958 0.727736 
-0.35157815 -0.23432885 0.9063569 
-0.6559303 -0.29743156 0.6937506 
-0.6821357 0.33060268 0.65222144 
-0.9488369 -0.14411831 0.28095984 
-0.737504 -0.56110525 -0.37583092 
-0.45421016 -0.88660485 0.08732162 
-0.56260103 -0.81571007 0.13452645 
-0.25421625 -0.68155223 -0.6861929 
0.7192046 -0.39234856 -0.57341725 
0.89828354 0.2289877 -0.37503532 
-0.2730297 0.68020207 -0.6802794 
-0.20317975 0.5467208 -0.81228966 
0.066183954 -0.15517518 -0.9856675 
0.5248455 0.36722997 -0.7679058 
0.8598801 0.45179048 -0.2376797 
0.7146764 0.5195958 0.46824986 
-0.027183509 0.65417963 0.7558507 
-0.38193658 0.61650723 0.6885081 
-0.03819399 0.45312673 0.89062756 
0.29213038 0.77515244 0.5601774 
-0.15222734 0.9446373 -0.29066697 
0.6900761 0.68082666 0.24549964 
0.2662987 0.95341134 0.14174564 
0.61869687 0.3836964 0.68555915 
0.18344608 0.6200731 0.76279545 
-0.43350476 0.51875126 0.7368656 
-0.5687076 0.3491489 0.7447595 
-0.58780915 0.6957735 0.4127708 
0.39396414 0.24052237 0.8870972 
-0.38115242 0.35724795 0.85269964 
-0.23993433 0.14508119 0.95988697 
-0.6762895 0.6698764 0.30642816 
-0.22712046 -0.2467795 0.94208074 
-0.86521137 -0.5004819 0.030450655 
-0.73156184 -0.6793474 -0.057484526 
-0.744431 -0.5004173 0.44204652 
-0.18763812 -0.9163866 -0.35359263 
-0.20687869 -0.9748562 0.08280516 
-0.8801412 -0.3242787 -0.3466915 
-0.63485837 0.22720064 -0.7384679 
-0.5553069 0.07045012 -0.8286562 
-0.031372193 0.016575823 -0.99937034 
0.47845563 0.26277265 -0.8378728 
0.40985397 -0.4836842 -0.7733495 
0.49652782 0.025200613 -0.8676549 
0.80333525 0.59479046 0.029612124 
0.570307 0.82142603 -0.0030638792 
0.40779364 0.88346565 0.23063622 
0.54887486 0.8178263 0.1729063 
0.29373562 0.8931935 0.34047753 
0.16527653 0.86051095 0.4818761 
-0.3024396 0.8362657 0.45737314 
-0.27133512 0.8128355 -0.51543736 
-0.21354154 0.27926508 -0.93616825 
-0.1082292 -0.4223655 -0.899941 
0.291778 -0.5227165 -0.80102015 
0.56562144 0.23320143 -0.7910054 
0.9137972 0.38189402 -0.1383175 
0.90984553 -0.13890308 -0.3910076 
0.7299014 -0.6103328 0.3077953 
0.9917802 -0.11435675 0.057399355 
0.7018244 -0.23003544 0.6741856 
0.40336046 0.2178217 0.8887374 
0.9991662 -0.03400673 0.022596706 
0.78872865 -0.26393148 0.55520034 
0.18967035 0.24039051 0.95196515 
0.2985951 -0.5458013 0.7829061 
0.03311399 -0.7663949 0.64151573 
-0.32366204 -0.43575868 0.83985555 
0.019981166 -0.86916536 0.49411783 
0.28309268 -0.16850257 0.9441745 
-0.2812951 0.23637223 0.93005455 
-0.18800123 -0.67037785 0.71780854 
0.35838872 -0.7988473 0.48311543 
-0.120460555 -0.5419745 0.8317169 
-0.26425037 0.064767845 0.96227694 
0.3533112 0.84050673 0.4107549 
-0.022037614 0.4673909 0.88377607 
-0.48806575 0.25576484 0.8344916 
-0.1941998 0.00881513 0.9809224 
-0.4141019 0.66864365 0.6176045 
-0.022120474 -0.974944 0.2213481 
0.57995814 -0.6432767 0.49984378 
0.18885936 -0.3844613 0.9036159 
0.08682933 0.10097498 0.9910927 
-0.024341825 0.23191066 0.9724325 
0.15839559 -0.25108734 0.95491683 
0.0863517 -0.41349423 0.9064028 
0.2974634 -0.5002077 0.8132083 
0.14430152 -0.27739847 0.94985646 
0.040717963 0.37744963 0.92513454 
-0.35484046 0.11754233 0.9275086 
-0.3254031 0.1265652 0.93706673 
-0.52832955 0.53300124 0.6608916 
-0.83681476 -0.098119065 0.5386221 
-0.7890869 -0.3609071 -0.4970794 
-0.69089437 -0.16290501 -0.7043628 
-0.62174445 -0.39927962 -0.67380244 
0.10715875 -0.4672028 -0.8776324 
0.31325343 -0.90751183 -0.2798119 
0.14988634 -0.8672926 -0.47469768 
0.63098085 -0.7628797 0.14098817 
0.95847064 -0.27888885 0.059625797 
0.9830228 -0.15573174 0.09702546 
0.9945866 -0.10203993 0.019628664 
0.6934359 0.045092996 0.71910596 
0.42415863 0.061839648 0.90347403 
0.52070427 0.48974872 0.69929487 
0.4149385 0.32931742 0.8481605 
0.5914555 0.20303418 0.7803574 
0.5098862 0.17572916 0.84210175 
0.7101032 0.29895464 0.63747907 
0.7513976 0.65382636 0.08895349 
0.49626017 0.84605426 -0.19472548 
0.84602785 0.11799995 0.51991624 
0.11983844 0.25953418 0.95826966 
-0.5407328 0.31730947 0.7790525 
-0.77912724 -0.01211924 0.6267486 
-0.36749804 0.92283833 0.11538963 
-0.26213205 0.9490656 -0.17481767 
-0.3812169 0.73906356 -0.5553907 
-0.26542285 0.9142034 -0.30624002 
0.14087044 0.5218656 -0.8413155 
0.29550046 0.7842321 -0.5455819 
0.15674251 0.8884778 -0.43132257 
0.60381323 0.43622738 -0.6671697 
0.7515327 0.59671044 -0.2813101 
0.7032941 0.24086682 0.66885024 
0.40285155 0.5530278 0.7292949 
-0.15289564 0.14092892 0.9781421 
-0.2892884 0.424155 0.8581404 
-0.0028651056 0.43935555 0.8983087 
0.3807091 0.39203668 0.8374771 
0.08124781 0.7481932 0.6584875 
-0.36970997 0.47301298 0.7997333 
-0.30464572 0.8138448 -0.49482095 
-0.58804065 0.6286366 -0.5089442 
-0.08959287 0.8069514 -0.58378315 
0.82088965 0.09901898 0.5624372 
-0.4600896 0.74271905 0.486504 
-0.87441534 0.48214406 0.054174732 
-0.8328051 -0.10785711 0.5429573 
-0.69119215 0.43543786 0.5767559 
-0.88347214 0.4526936 0.12060509 
-0.77753896 0.4763583 -0.41050726 
-0.6107783 0.045645665 -0.79048496 
0.13683262 0.2911517 -0.9468408 
0.19788243 0.24730822 -0.9485153 
0.55828637 0.48034966 -0.67644703 
0.9925569 0.12160739 0.0065147383 
0.62354594 0.14296769 0.7686031 
0.083814345 0.06061626 0.994636 
0.4615628 0.6091263 0.6449225 
0.32623988 0.53003347 0.7827082 
0.12344539 0.39729568 0.90935 
0.5910756 -0.0011956239 0.8066153 
-0.44772792 0.03774151 0.89337295 
-0.68741274 0.51080364 0.51627845 
-0.6226888 -0.15792042 0.766368 
-0.6869166 -0.12539802 0.71583587 
-0.89154845 -0.42091578 0.16724643 
-0.39035985 -0.8971882 0.2065734 
-0.40146652 -0.5914821 0.69926643 
0.5580296 -0.6925036 0.45721105 
0.8019514 -0.43408874 0.41041547 
0.8312754 0.426642 0.3563113 
0.33008516 0.9127724 0.24060422 
-0.3352951 0.9340668 0.12286821 
-0.08722879 0.7959899 0.59899205 
-0.54423296 0.80597323 0.23284735 
-0.5749618 0.693395 -0.4343069 
-0.7003492 0.3999386 -0.59123605 
0.1912649 0.80582047 -0.5604206 
0.36254478 0.8612206 -0.35617465 
0.26936054 0.061365537 -0.9610823 