# OOMMF: rectangular mesh v1.0
# Segment count: 1
# Begin: Segment
# Begin: Header
# Desc: Time (s) :  3.249999999999999e-07
# Title: m
# meshtype: rectangular
# meshunit: m
# xbase: 2e-09
# ybase: 2e-09
# zbase: 5e-10
# xstepsize: 4e-09
# ystepsize: 4e-09
# zstepsize: 1e-09
# xmin: 0
# ymin: 0
# zmin: 0
# xmax: 1.024e-06
# ymax: 1.024e-06
# zmax: 1e-09
# xnodes: 256
# ynodes: 256
# znodes: 1
# ValueRangeMinMag: 1e-08
# ValueRangeMaxMag: 1
# valueunit: 
# valuemultiplier: 1
# End: Header
# Begin: Data Text
-0.5253561 0.85045034 0.027112328 
-0.5044744 0.85597295 -0.113206945 
-0.25545934 0.939813 0.2269187 
-0.112649225 0.85240084 0.5106104 
-0.5131771 0.6524079 0.5576857 
-0.34156293 0.77579707 -0.5305412 
-0.018599702 0.8899327 -0.45571256 
-0.1566739 0.63314277 -0.75801295 
0.28534967 0.9338002 -0.21585357 
-0.6662379 0.73134047 0.14583664 
-0.06551704 0.9314114 -0.35802302 
-0.37589553 0.26321146 -0.8884944 
0.033104155 0.9846428 -0.17141382 
0.27356002 0.37008208 -0.8878087 
0.46626922 0.75210977 -0.465751 
0.563843 0.8087263 -0.16746026 
0.5201158 0.8312868 0.19606608 
0.57733494 0.5343035 0.61741734 
-0.2562437 0.6569677 0.7090364 
-0.41430014 0.25253344 0.874404 
-0.74599755 0.5815606 -0.32446113 
-0.92780894 0.18783897 -0.32231542 
-0.5116236 0.21899799 -0.8308316 
-0.24922085 -0.6982347 -0.6710867 
-0.17564194 0.7483626 0.6396119 
-0.51125574 0.84763014 -0.14191787 
-0.8008502 0.5985841 0.018334348 
-0.01167814 0.91051155 -0.41331878 
0.1094052 0.6687419 -0.73540115 
-0.67572564 0.3449128 -0.65148306 
-0.53072554 0.73122483 -0.42853326 
-0.25645992 0.34895962 -0.9013632 
0.34428346 0.89175224 -0.29367828 
0.029504178 0.8284051 -0.55935186 
0.23307961 0.9629852 -0.13540085 
0.6696147 0.57737803 -0.46717316 
-0.1279981 0.81603634 -0.5636499 
0.32739803 -0.4150994 -0.8488245 
-0.0047402247 -0.11288845 -0.9935964 
0.35610938 0.40451407 -0.84235054 
0.6902747 0.68740773 -0.225813 
0.5183066 0.79408294 -0.3174752 
0.772352 0.52260464 -0.3610498 
0.57978606 0.06853569 -0.8118812 
-0.1857953 0.93404347 -0.30502933 
-0.05411298 0.72474277 -0.6868913 
0.6425351 0.11520651 -0.7575461 
-0.017620413 -0.78502584 -0.6192125 
0.35425532 -0.35527322 -0.8650342 
0.79679716 -0.3723963 0.47585207 
0.2843959 -0.61793983 0.7329866 
-0.4029241 -0.47728974 0.7809268 
-0.41854507 -0.6746407 0.6080131 
0.028525934 -0.11144309 0.99336135 
-0.3484868 0.23630427 0.9070376 
-0.6953306 -0.1875397 0.6937898 
-0.17691189 -0.55732095 0.811231 
-0.6784612 -0.4123861 0.6079706 
-0.47653264 -0.65944856 0.5814157 
-0.34572348 -0.93738335 0.04228257 
-0.50802857 -0.39451697 -0.76567847 
-0.09137558 -0.9277689 -0.36179492 
-0.32060432 -0.91594 -0.24138537 
-0.18706207 -0.9353484 0.30021846 
0.11534668 -0.9929636 -0.026805425 
0.57487416 -0.15693294 0.80305153 
0.2678409 -0.9536282 0.1373118 
0.4261774 -0.4275475 0.7972303 
0.08632611 -0.3921242 0.91585296 
0.1189997 0.21610218 0.96909183 
-0.44528815 0.44015992 0.77972925 
-0.87623394 0.047292914 0.47955972 
-0.30940545 -0.02468113 0.9506099 
-0.08269401 -0.08823949 0.9926609 
-0.6139505 -0.29025984 -0.7340396 
0.22145939 -0.074156925 -0.9723459 
-0.8281196 -0.26515615 -0.4938726 
-0.30912673 -0.09131805 -0.94662654 
-0.70793563 -0.035078812 -0.7054054 
-0.24895035 -0.8470434 -0.46961823 
-0.10309158 -0.7163451 -0.69008833 
0.18290171 -0.69111955 -0.69921446 
0.7472215 0.075595744 -0.6602615 
0.44512397 -0.13107957 -0.8858232 
0.5898616 -0.34131816 -0.7318233 
0.9145978 -0.13531908 -0.38105097 
0.90946144 -0.2594875 -0.32487896 
0.8575697 -0.48910108 0.15923052 
0.7231041 0.24553116 0.6456276 
0.35469142 0.309209 0.88237405 
-0.8363611 0.051536903 0.5457508 
-0.8441637 0.53587085 0.015172509 
-0.21220556 0.92150474 -0.32526597 
-0.07245805 0.9318671 -0.35549045 
-0.5149139 -0.83952606 0.17337751 
-0.33795288 -0.8817177 -0.32918355 
-0.9641657 0.13274433 -0.22970305 
-0.36888674 -0.2389299 -0.8982401 
0.027913619 -0.69932437 -0.7142593 
0.08818295 -0.06682999 -0.99385995 
-0.026116572 0.22572091 -0.9738419 
-0.6628346 -0.5531771 -0.504624 
-0.7084322 -0.65341145 -0.26679087 
-0.6757109 -0.5925403 -0.43853265 
-0.40878192 -0.6126302 -0.67644787 
0.55056065 -0.3805041 -0.74303406 
0.78518975 -0.5902844 0.18719357 
0.4787925 -0.7797468 0.40342638 
0.7928386 -0.522655 0.31343055 
0.60583526 -0.5700812 0.5549516 
0.9143439 -0.399371 0.06691829 
0.53820753 -0.40053508 0.7415554 
-0.0028579093 0.03656565 0.9993272 
-0.6528483 0.1798051 0.73583925 
-0.06938959 0.24583098 0.96682584 
0.14669342 0.51406384 0.8451151 
-0.24582833 0.23321688 0.94083923 
0.15095353 -0.03637885 0.98787135 
0.21456069 -0.16199602 0.9631828 
0.058957893 -0.7293783 0.6815654 
0.19069116 -0.6286343 0.75396013 
-0.18595451 -0.6368115 0.74825937 
0.09727523 0.49591777 0.86290395 
-0.17957497 0.20478372 0.9621936 
-0.6527956 -0.43218318 0.6221541 
0.15980728 0.68374604 0.7120064 
-0.3930505 0.5813507 0.71242034 
-0.533312 0.29186806 0.7939719 
-0.5383903 0.7805276 0.31766734 
-0.7245829 0.44583547 0.5255572 
0.49027818 0.7156376 0.4974838 
-0.016860634 0.70194495 0.71203166 
-0.2015768 0.9510075 0.23441792 
0.01787423 0.7708592 0.6367548 
-0.26972678 0.9102673 0.3141034 
0.6959504 0.48576576 0.52885234 
-0.06667473 0.971309 0.22828336 
-0.2073557 0.6732983 0.70969933 
0.38455117 0.103526674 0.91728014 
0.19943872 0.46199083 0.8641693 
-0.106510796 0.5327448 0.83954656 
-0.8680475 -0.039758638 0.49488682 
-0.99267656 0.118112475 -0.025351541 
-0.30277187 -0.74196357 -0.59817994 
-0.2507428 -0.29728112 -0.92127746 
-0.14940278 -0.45569518 -0.8775082 
0.63748187 0.7225939 -0.2673482 
-0.3441106 0.4932767 -0.7989156 
0.049997408 0.4630924 -0.8848988 
0.13395312 0.1487868 -0.9797546 
-0.7637964 -0.4232429 -0.48731995 
-0.0033663216 -0.23281412 -0.9725155 
0.5096568 0.019692399 -0.8601524 
0.73504305 0.00691591 -0.6779852 
0.6324132 0.3280282 0.70174855 
0.46875954 0.50066113 0.7277382 
0.020565335 0.97941965 0.20078398 
0.2243598 0.8807105 -0.4171474 
-0.13422959 0.8678499 -0.47835037 
-0.47133732 0.3083178 -0.8263059 
0.07561839 0.55769205 -0.82659626 
0.79860467 0.48178607 -0.36071154 
0.34379876 0.5547328 -0.7576768 
-0.59112084 0.79627836 0.12851791 
0.2669851 0.96341914 -0.023293918 
-0.21072851 0.9561295 -0.20349395 
0.072169796 0.8805782 0.46837336 
-0.73720014 0.6723199 0.067245476 
-0.5327045 0.70270073 0.4716331 
-0.86104923 0.440696 0.2537346 
-0.9897056 0.08689848 -0.113716535 
-0.63118726 -0.1546096 -0.76006484 
-0.8919931 -0.110338084 0.43837634 
0.30219978 -0.4182727 -0.8565765 
0.5896485 -0.47206816 -0.6553368 
0.16797847 -0.019220088 -0.98560333 
0.40645075 -0.23923023 -0.88179743 
0.15842108 -0.8022325 -0.575609 
0.61963713 -0.73874295 -0.26515806 
0.7699814 -0.39873993 0.49813157 
0.75753707 -0.36831096 0.53896636 
0.69625133 0.023209872 0.7174228 
0.6846507 0.20188309 0.7003547 
0.35322955 0.910316 0.21576299 
0.5909026 0.08567573 0.8021807 
-0.43497103 -0.407261 0.80308074 
-0.25683913 0.13482288 0.95700395 
-0.24586296 0.19019985 0.95046073 
0.122906424 -0.29500932 0.9475567 
-0.77188706 -0.2845993 0.5685011 
-0.70030063 -0.5185202 0.49062818 
-0.42789176 -0.7911756 -0.43697804 
-0.15627436 -0.94610214 -0.2836709 
0.2768591 -0.7094086 -0.6481424 
0.8084253 -0.48271468 -0.33680123 
0.80126417 0.21390912 0.5587653 
0.5748581 -0.07011778 0.8152434 
0.6481287 -0.4020739 0.6467347 
-0.33203796 -0.10195865 0.9377395 
-0.13746011 -0.32485217 0.9357221 
-0.6382393 0.19136508 0.7456742 
0.13490753 0.24870631 0.95913774 
0.37786338 0.6445727 0.6646393 
-0.29245284 0.79938835 0.5248331 
0.09951142 0.2496334 0.96321374 
-0.57031274 -0.5911478 0.5703401 
-0.80273676 -0.5647954 0.19136341 
-0.9601376 0.118718594 0.25306448 
-0.7845664 -0.6192759 0.030870657 
-0.837855 0.45124733 -0.30720505 
-0.7424345 -0.036504745 -0.6689234 
-0.6410903 -0.0049847285 -0.7674493 
-0.58403164 -0.12278249 -0.8023911 
-0.46031922 0.07047434 -0.88495183 
-0.17238675 0.64071596 -0.7481751 
-0.6979839 0.49662855 -0.51592505 
-0.30424395 0.606598 -0.7344893 
-0.13274205 0.38258573 -0.91433465 
0.1581716 0.46008453 -0.8736728 
-0.5016662 0.3825834 -0.77586144 
-0.4049086 0.395641 -0.8243284 
0.14367254 0.46658278 -0.8727307 
0.6067812 0.7753969 -0.17486125 
0.7395335 -0.55366284 0.38281554 
0.6967937 -0.5246025 0.48915318 
-0.45368746 -0.13662174 0.8806261 
-0.20478666 0.95270497 0.22453423 
0.18121299 0.6564106 0.73231626 
-0.6820891 0.6977569 0.21883766 
-0.72519606 0.2258492 -0.6504482 
-0.65101427 -0.57696575 -0.49324542 
-0.57580864 -0.27248764 -0.7708405 
-0.12039275 -0.37471795 -0.919289 
-0.1794578 0.6612417 -0.7283916 
-0.3323069 0.52249753 -0.78521883 
-0.2684638 -0.455009 -0.84905475 
-0.46393222 0.86818975 -0.17610668 
-0.3517519 0.9357142 0.026639845 
-0.03657467 0.9992897 0.009087693 
-0.17561172 0.82509094 -0.5370154 
0.029371686 0.7309246 -0.6818259 
0.38353962 0.4462268 -0.80856603 
0.63082415 -0.09065274 -0.7706121 
0.971528 0.07767239 -0.22383134 
0.49398315 0.730379 -0.471728 
0.27652496 0.9592575 0.057958495 
0.6005523 0.4040851 0.68996537 
0.4623068 -0.6656444 0.5858243 
0.7392404 -0.64039296 0.20837602 
0.93713343 0.31193775 0.15644737 
0.14825597 0.97439504 0.16904013 
-0.10450856 0.59320295 -0.79824084 
-0.7293786 0.506324 -0.46004668 
-0.7604373 -0.17897846 -0.624261 
-0.31596538 0.82988024 -0.45985284 
-0.36040694 0.13313799 -0.9232449 
-0.49298698 0.8549929 0.16109349 
0.1138055 0.9916931 0.05994458 
0.15081628 0.93710595 0.3147806 
0.21773739 0.58261734 0.7830373 
-0.079390995 0.6892464 0.7201642 
0.14791436 0.81086063 0.5662388 
-0.6688898 0.74275994 -0.02990174 
-0.5558202 0.8242938 -0.1077208 
0.3832806 0.92347986 -0.016764428 
-0.43435353 0.7422355 -0.51031715 
-0.7535438 0.40138596 -0.5206355 
-0.33116043 0.574193 -0.7487558 
-0.29174483 0.19670542 -0.9360513 
0.13048151 0.52100426 -0.84352183 
0.35457104 0.36510134 -0.86080223 
0.7637428 -0.39430892 -0.5110945 
0.8230926 0.56236786 -0.0791262 
0.7815494 0.5118903 0.3565793 
0.25347728 0.5352407 0.8057709 
-0.49537507 0.5936702 0.63416034 
-0.3947051 0.83392096 0.38572517 
-0.9153586 0.3984916 -0.057646118 
-0.8567275 -0.19606502 -0.47705 
-0.58519936 -0.30215478 -0.752492 
-0.6076254 0.6614562 0.43962154 
-0.7629751 0.5983036 -0.24474868 
-0.77220976 0.6347186 -0.028713508 
-0.65823966 0.7276352 -0.19304827 
0.0110021625 0.9642268 0.2648505 
-0.7554985 0.61262745 -0.23218444 
-0.9564691 -0.26089394 -0.1307714 
-0.39045745 0.21886812 -0.8942258 
0.17509377 0.5957756 -0.78383267 
0.6326473 0.75263107 -0.18249363 
0.4096765 0.91119117 0.043541513 
-0.09330098 0.9708989 -0.22056805 
-0.37137246 0.82458633 -0.42677864 
-0.91951466 0.1532222 -0.36196113 
-0.48165333 -0.13915792 -0.86524284 
0.39073756 0.6743777 -0.6265293 
0.4508196 0.4214688 -0.78684545 
0.86568916 0.22286631 0.44823307 
0.8245578 0.52169436 0.21895067 
0.84146416 -0.06016412 -0.53695285 
0.7016436 0.44083014 -0.55979025 
0.32062685 0.83135563 -0.45392329 
0.76907176 0.6389449 0.0166759 
0.8684156 -0.13413297 -0.47734985 
0.739764 0.13663146 -0.6588484 
0.7209393 -0.29065695 0.62909865 
-0.3514162 -0.44176576 0.8254391 
-0.23340799 -0.8353443 0.49771526 
-0.39056593 -0.9189577 0.05454321 
0.6383762 -0.5583216 0.5298613 
-0.10247816 -0.32474297 0.9402341 
-0.0034573197 -0.7673542 0.64121425 
0.32425204 -0.7209767 0.61241597 
0.09494879 -0.990027 0.104073934 
-0.19591391 -0.8972027 0.39578405 
-0.9980541 -0.013505709 0.060873672 
-0.024268081 -0.9672447 -0.2526833 
0.01924058 -0.675327 -0.7372675 
-0.97019416 0.00943434 0.24214552 
-0.044781096 -0.73258024 0.67920613 
-0.09296197 -0.5872659 0.8040379 
-0.6506282 -0.1261192 0.7488504 
-0.5436001 -0.34967372 0.7630381 
-0.6733823 -0.26289776 0.69097114 
-0.6124327 -0.36967444 0.69876105 
-0.27786255 -0.08189841 0.9571234 
-0.59145266 0.20110586 0.78085864 
-0.7153127 0.017211495 0.6985926 
-0.6220997 -0.16471796 0.7654149 
-0.97670156 -0.06428723 0.2047468 
-0.88585275 0.34118763 -0.31441355 
-0.7502654 0.6389021 0.17001767 
-0.52892894 0.755547 -0.3865009 
-0.74587137 0.32741308 -0.58006614 
-0.36001652 0.26592433 -0.894244 
-0.40662158 -0.35605407 -0.8413586 
-0.6493371 -0.27760807 -0.70802194 
-0.27612054 -0.36810043 -0.88783985 
0.40885055 -0.09952745 -0.90715796 
-0.08468042 0.22939345 -0.9696432 
0.6979029 -0.01960033 -0.7159242 
0.89792496 -0.34113127 -0.27813727 
0.8708456 -0.26610756 0.41329733 
0.69990057 -0.65069234 0.29451448 
0.8424781 -0.25347617 0.47537413 
0.38871378 0.120800324 0.9134051 
0.009820576 -0.61198443 0.790809 
-0.898335 0.4392719 -0.005867466 
-0.18401681 0.95529395 0.23141183 
-0.3314632 0.54882294 0.76741487 
-0.55013233 -0.14147705 0.82300586 
-0.20493525 -0.90476066 0.37337616 
-0.9585542 -0.04068663 0.28199032 
-0.61277664 0.08443942 -0.78573203 
0.070445664 0.11853287 -0.9904481 
-0.38194925 0.19504811 -0.90336657 
0.24985385 0.22612426 -0.94150996 
-0.013717158 -0.36606792 -0.93048704 
-0.24776024 -0.26731318 -0.93121344 
0.025745647 -0.32179862 -0.94645804 
0.3440344 0.12285146 -0.9308856 
0.7687756 -0.6293509 -0.11358489 
0.80623734 -0.5324467 -0.25784093 
0.9166167 -0.35998183 -0.17385916 
0.90453976 -0.33132264 -0.26838988 
0.21738781 -0.93176866 0.29077435 
0.9576623 -0.24342631 0.15370962 
0.9027305 -0.06516417 0.4252426 
0.114004835 0.32383993 0.93921816 
0.21202901 0.23600702 0.94833773 
0.3546536 0.1703694 0.9193449 
0.03674459 0.11805811 0.9923267 
-0.48170635 -0.07858027 0.87280256 
-0.5146239 -0.17591985 0.8391749 
0.14162488 -0.7184926 0.6809631 
-0.07177048 -0.8227664 0.56383026 
-0.2808022 -0.8003136 0.52976257 
0.5271548 -0.59201485 0.60961163 
0.16242982 -0.7275746 0.66652215 
-0.1957519 0.112904206 0.9741324 
-0.20379172 -0.7791032 0.5928466 
-0.22906907 -0.27950376 0.9324189 
-0.49266508 0.62375724 0.6068015 
-0.61673164 0.6898472 0.37914795 
-0.29363748 0.8702496 -0.39552847 
0.08444858 0.9897753 0.114949375 
0.2952109 0.42740786 0.8545016 
0.1530643 0.8235813 0.5461549 
0.19931497 0.5853152 0.7859261 
-0.01032705 0.31030732 0.95058024 
0.6551303 0.28717986 0.6988076 
-0.04719126 0.4075077 0.91198164 
0.5550317 0.33300042 0.76226676 
-0.2328522 0.47471273 0.8487802 
-0.21597168 -0.0150072435 0.9762843 
0.16131441 -0.5380369 0.8273415 
-0.22967641 -0.12695192 0.9649519 
-0.7007975 -0.15150842 0.6970855 
-0.5872542 0.8055526 0.07885101 
-0.4138485 -0.042589046 -0.9093491 
0.55445784 0.4911267 -0.67184156 
-0.26214436 0.32510927 -0.9086168 
-0.3069834 0.7923468 -0.52720755 
0.28352723 0.8772789 -0.38729066 
0.67138153 0.3059442 -0.6750149 
0.51207614 0.117728665 -0.8508337 
0.25066614 0.1318635 -0.9590509 
0.51027066 0.17720847 -0.8415587 
0.2515551 -0.28342357 -0.925414 
0.4875927 0.52570117 -0.69705933 
0.59564936 0.59975916 0.5343134 
0.20562342 0.6046598 0.769484 
0.3655175 0.8785331 0.307533 
-0.15318766 0.97592366 0.15526351 
-0.51696897 0.65041894 -0.5565055 
-0.062497437 0.90968734 -0.4105644 
-0.17460246 0.94258595 -0.28468525 
0.7684754 0.63344145 -0.09054104 
0.2340617 0.91105413 0.3394048 
-0.28916752 0.11190834 0.9507148 
0.15821898 0.974007 -0.16210212 
0.051186644 0.89440626 -0.4443167 
0.44430366 0.719269 0.5340847 
-0.45901734 0.5797315 0.6732122 
0.2855838 0.6994951 0.6550944 
-0.64464796 -0.3066223 0.70029414 
-0.7221461 0.44983885 -0.52549994 
-0.44952387 -0.0945219 -0.88825333 
-0.92265946 0.018109266 -0.38519028 
-0.65439886 -0.44116873 -0.61411107 
0.13944677 0.057019632 -0.9885866 
-0.105030306 -0.30888063 -0.94528383 
0.5510217 -0.17133126 -0.8167134 
0.43800667 -0.77355826 -0.45799312 
0.5881738 -0.49697483 -0.6380186 
0.59534746 -0.80186903 0.050671052 
0.26900688 -0.21839724 0.93805015 
0.9121487 -0.033261955 0.40850765 
0.5550813 0.6750234 0.48603317 
0.6153429 0.05239061 0.78651655 
0.72939515 0.3902254 0.56187797 
0.04460378 -0.41865855 0.9070477 
0.2257016 -0.07346374 0.9714226 
-0.30590278 -0.3519026 0.88464004 
-0.23774928 -0.71549445 0.6569194 
-0.42894164 -0.88054794 0.20160443 
0.099477746 -0.9268239 -0.3620798 
-0.20238589 -0.8554842 -0.476641 
0.562674 -0.28644386 -0.7754662 
0.6669701 -0.7280293 -0.1585066 
0.7217142 -0.6244681 0.29861078 
0.95549905 -0.06009388 0.28880873 
0.50699306 -0.07123111 0.8590018 
0.52478135 -0.5129433 0.67933327 
-0.20192595 -0.5030674 0.8403269 
0.008865552 0.3239804 0.9460223 
0.3979178 0.69044054 0.6041137 
0.10157829 0.42365763 0.900109 
-0.39083996 0.41460103 0.82179695 
-0.62436146 0.38562647 0.67931217 
-0.5636491 0.088902906 0.8212162 
-0.64015657 -0.62030727 0.45323116 
-0.946762 -0.116635844 0.3000629 
-0.6659241 -0.5584724 0.4946249 
-0.938539 -0.34030414 0.05777316 
-0.8742351 0.101853505 -0.47469887 
-0.19882469 0.016565727 -0.97989506 
-0.35065004 -0.13962202 -0.9260401 
-0.015779544 0.44733036 -0.89422965 
0.35362017 0.43930432 -0.82581145 
0.32585654 0.33838347 -0.88278776 
0.17045707 0.26941982 -0.9478172 
-0.2938412 0.42229712 -0.85750943 
0.052793287 -0.14236253 -0.9884057 
0.22511993 0.51194316 -0.8289966 
-0.114008926 0.9448567 -0.30699795 
-0.063634425 0.60939604 -0.79030836 
0.35227588 0.90926003 -0.22169353 
0.27011746 0.9364182 0.2239591 
0.1405592 0.47126397 0.87072 
0.34447193 0.29343274 0.8917603 
0.07294275 0.09538122 0.9927647 
-0.3733594 -0.008405851 0.9276487 
-0.24348293 0.16578175 0.955632 
-0.63590366 0.5275572 0.56330276 
-0.963848 0.00018807357 -0.26645264 
-0.9414955 -0.19715153 0.27334523 
-0.77169484 -0.004618307 -0.6359763 
-0.097735964 0.53297406 -0.840468 
-0.39067382 0.4981547 -0.7740903 
-0.41170976 0.575079 -0.7069507 
-0.10184648 -0.34335977 -0.93366563 
-0.7649442 0.54693323 -0.34018314 
-0.43149853 0.8841886 0.17894007 
-0.36531362 0.5048449 0.78209823 
-0.20397736 0.8237957 -0.52891785 
0.59573096 0.5525508 -0.5829171 
0.48840445 0.3443102 -0.8018178 
0.4137874 -0.28313816 -0.8652242 
0.6210124 -0.066947386 -0.7809364 
0.5117108 0.72883314 0.4549223 
0.43955207 0.0069219465 0.89819044 
0.37353274 0.2859596 0.8824401 
0.18459192 0.552393 0.8128886 
0.42437547 0.015988713 0.90534526 
0.07066651 0.27083904 0.9600274 
0.4313666 0.6947016 0.57559764 
-0.14262852 0.7628783 0.6306139 
-0.77479833 0.5785905 0.25479534 
-0.6541834 0.17638808 -0.73548037 
-0.61922044 0.4823193 -0.61962426 
-0.76505613 -0.20371148 -0.61089355 
-0.3172325 0.895003 0.31358123 
-0.4102126 0.9055434 0.10824491 
-0.041516818 0.5239079 0.8507626 
-0.44800597 0.2030285 0.87067217 
0.021451434 0.037974883 0.9990484 
-0.4187195 0.7130659 0.5623264 
-0.24643898 0.9663106 -0.07424088 
-0.23083164 0.8879664 0.39778438 
-0.33354726 0.9313037 0.14635463 
-0.46697968 0.85434514 0.2280886 
-0.59073794 0.7189924 0.36616746 
-0.5738675 0.8188976 0.0091080265 
0.060879156 0.5151802 -0.854917 
0.42085922 0.5578424 -0.71532476 
0.57980204 -0.10789585 -0.8075817 
0.99987197 0.0152497 0.004843332 
0.5767347 0.7938764 0.1927107 
0.62324876 0.67471045 0.39538202 
-0.44336206 0.35502014 0.8230375 
-0.6941282 0.29284474 0.6575926 
-0.886788 0.37320146 0.27263114 
-0.9120937 0.045001812 -0.40750462 
-0.5057339 0.0501762 -0.8612291 
-0.96690875 0.19741662 -0.16159895 
-0.32839063 0.20058249 0.9229986 
-0.71309966 -0.16798717 0.68063885 
-0.86561716 0.47806808 0.1488554 
-0.4423354 0.49338377 0.7489406 
-0.22766866 0.45300037 0.86195004 
-0.1917421 0.7647845 0.61509323 
0.051916942 0.5315293 0.8454474 
-0.59642696 0.6535747 0.46595597 
-0.51665753 0.85363895 -0.06607342 
0.14851889 0.97930926 0.1374616 
-0.055431485 0.9649395 -0.2565528 
0.51894295 0.8088777 -0.276433 
0.5976744 0.59530634 0.53702486 
0.23138122 0.93299925 -0.27563596 
0.69489884 0.32617626 -0.64087814 
0.60224825 0.78369987 -0.15202495 
0.8200836 0.5720985 0.0128954975 
0.9649302 -0.17923789 -0.1917902 
0.8920059 0.3961294 -0.2177312 
-0.087796755 0.7443042 -0.6620446 
0.5473074 0.8189468 -0.17257182 
0.70581377 0.7012082 0.100667834 
0.340551 0.36321402 0.86723745 
0.63750196 0.32468703 0.6986914 
0.008050777 -0.23928878 0.9709151 
0.13746127 -0.51262057 0.84754044 
-0.5406889 -0.766666 0.34623545 
-0.22460218 -0.91642654 0.33123475 
-0.6684378 -0.7273918 0.15521647 
-0.5482972 -0.8076716 0.21687941 
-0.33818197 -0.6783656 0.65226775 
-0.11707389 -0.097541764 0.98832154 
-0.51227015 -0.855735 -0.0727807 
0.33543307 -0.91108364 0.23960632 
-0.27759716 -0.9090167 0.3108512 
-0.8656709 -0.3391202 0.36825478 
0.059386842 -0.98926824 -0.13349748 
0.13344565 -0.9181684 -0.37304047 
0.39676315 -0.6422922 0.6557742 
-0.9182734 -0.39223608 -0.05408304 
-0.099573955 -0.99415916 -0.04162419 
0.044778123 -0.813344 0.58005744 
-0.22208662 -0.4817695 0.8476885 
0.07570618 0.39514107 0.91549563 
-0.5825904 -0.11449911 0.80466056 
-0.6381913 -0.3670316 0.67675674 
-0.96424377 0.25083426 -0.085535 
-0.87790084 0.092311665 -0.46986035 
-0.87901753 0.14024632 -0.45569634 
-0.97623783 0.08270734 -0.20029809 
-0.8556702 0.5002939 0.1324178 
-0.82859147 0.46176198 -0.31656304 
0.26482272 0.95173717 -0.15513049 
-0.7800806 0.32080376 -0.53717715 
-0.4810959 0.42084906 -0.76904684 
-0.5076924 -0.33782825 -0.7925406 
-0.98731464 0.14544122 -0.06369304 
-0.39615047 -0.040694993 -0.91728336 
0.27130708 0.7275317 -0.6301509 
0.4603325 0.2536046 -0.8507519 
0.45311153 -0.23657407 -0.85948986 
0.23386301 -0.23588093 -0.94322234 
0.855662 -0.4029004 -0.324829 
0.7765708 -0.62919176 -0.032488853 
0.9689321 0.23885885 -0.0641652 
0.59519297 0.2917266 0.7487597 
-0.67939174 0.57911813 0.45060965 
-0.6024344 0.6849458 0.4097831 
0.19729419 0.9298553 0.3105545 
-0.4807002 0.68273115 0.55027777 
-0.48047873 -0.31668758 0.8178321 
-0.6346571 -0.5075219 0.5827795 
-0.8894586 -0.074276 -0.45093971 
-0.8089878 -0.48801675 -0.32768628 
-0.32067057 0.13390414 -0.9376781 
-0.13661359 -0.077831216 -0.9875622 
0.24527085 0.52135754 -0.81733006 
-0.30520713 0.33623207 -0.8909527 
-0.727057 0.42925382 -0.53584456 
-0.23171796 0.49132738 -0.83958584 
-0.23718354 -0.03563695 -0.97081107 
0.22474106 -0.45659116 -0.8608228 
0.68346703 -0.70210993 -0.19978604 
0.89555854 -0.09881256 -0.43383303 
0.8848877 -0.19032301 -0.42514798 
0.65804935 -0.596467 -0.45956302 
0.61682075 -0.7398067 -0.2687346 
0.6206405 -0.17259954 0.76486266 
0.43698537 -0.24072236 0.8666584 
0.25093535 0.11486717 0.9611645 
0.05726784 0.068020515 0.996039 
-0.15167274 -0.24624301 0.9572668 
0.16568173 -0.7209652 0.6728735 
-0.21017432 -0.7756584 0.5951309 
0.31351808 -0.78253424 0.53790957 
-0.0032068666 -0.2810133 0.95969856 
-0.006652929 0.020090293 0.99977607 
0.113016136 -0.22212744 0.9684456 
-0.11088158 -0.5595389 0.82135344 
0.21639833 -0.57689315 0.7876332 
-0.082262196 -0.7544828 0.651144 
-0.52573997 -0.03481649 0.8499325 
-0.0975222 0.30720085 0.94663465 
-0.20973113 0.32053027 0.923728 
-0.24901068 0.7480663 0.6151346 
-0.2849874 0.688958 0.6664227 
0.18717551 -0.2250553 0.9561985 
-0.19260691 0.07738874 0.9782196 
0.13696691 -0.5637828 0.81448704 
-0.03255584 -0.4226172 0.9057234 
0.10189285 0.26170316 0.9597548 
-0.09974055 -0.5865603 0.8037406 
0.3708238 -0.351785 0.85949814 
-0.25794396 -0.25565514 0.9317218 
-0.061191898 -0.14255422 0.9878937 
-0.5170434 -0.465339 0.7184189 
-0.5367235 -0.53350616 0.6536812 
-0.9965795 -0.03091636 0.07663924 
-0.94441485 0.29466358 -0.14578721 
-0.59631735 0.4648393 -0.6544694 
0.49907345 0.5095021 -0.7009517 
-0.08772311 0.6124524 -0.78562516 
0.21418492 0.97300714 0.085918106 
0.17052022 0.9830153 0.06785262 
0.25477952 0.7004581 -0.66666776 
0.41700786 -0.16240285 -0.8942762 
0.65992707 0.6095 -0.4393246 
0.63352925 0.77244455 0.044386156 
0.6859645 0.7091122 -0.16313396 
0.72184414 0.6084955 -0.32965785 
0.1106243 0.51360315 0.8508668 
0.17531244 0.31917527 0.93133926 
0.2684274 0.7850248 0.55828553 
-0.5552331 0.6201529 0.55419016 
-0.76679045 0.4924222 0.41176796 
-0.26489547 0.7965928 0.543388 
0.73230845 0.4194567 0.5364519 
0.52180564 0.6789009 0.51653904 
0.22283244 0.15950525 0.9617192 
0.07309777 0.6829457 0.7268025 
0.08306787 0.586004 0.80603915 
0.330391 0.69592917 0.63759273 
-0.11462353 -0.012748696 0.9933272 
-0.22983876 0.34529883 0.90991366 
-0.7313018 -0.41946003 0.5378207 
-0.86299694 -0.40585503 0.3008623 
-0.91611373 0.17356133 0.3614032 
-0.82114714 0.47462565 -0.3169353 
-0.9737066 -0.21902707 0.062631086 
-0.5454305 -0.061649065 -0.8358857 
-0.5273093 0.2472034 -0.81291795 
-0.51591134 0.088110454 -0.8520986 
-0.28940812 -0.051099375 -0.95584095 
0.0880218 -0.3543856 -0.9309474 
-0.085541084 -0.40314388 -0.91113 
0.25414965 -0.5055757 -0.82450056 
0.5419433 -0.48620653 -0.6854931 
0.9306268 -0.17036559 0.32389706 
0.3888265 0.61668015 0.6844849 
0.14655496 -0.06620358 0.9869847 
0.64218265 -0.32435963 0.69454473 
0.5745483 0.11150427 0.8108397 
-0.05542419 -0.5876535 0.80721223 
-0.3299016 0.064074874 0.9418384 
-0.5651865 -0.65407073 0.5027483 
-0.57398206 -0.7192833 -0.39137727 
-0.009477217 -0.74157804 -0.67079973 
0.50774246 -0.49332237 -0.70627946 
0.3767776 -0.16941947 -0.91067874 
0.8488206 -0.44656837 0.28298497 
0.68872625 0.1990027 0.6971758 
0.90061355 0.16084127 0.40376392 
0.5142877 -0.004870933 0.85760385 
0.09695289 0.103491314 0.9898938 
-0.12927884 -0.029208781 0.99117804 
0.3941921 -0.28935677 0.87228745 
0.8598278 0.40515143 0.31072244 
-0.21380004 0.53214943 0.819211 
-0.65468425 0.5065962 0.5610249 
0.4688141 0.6845839 0.55817413 
-0.21466462 -0.19790632 0.95642686 
-0.81897 0.03733957 0.57262015 
-0.9213082 -0.31086048 0.23357457 
-0.886808 -0.34551778 0.30690235 
-0.85011023 -0.025333712 -0.5259952 
-0.49183762 -0.3214562 -0.8091734 
-0.26070648 -0.17615189 -0.94921166 
-0.62734604 0.07114597 -0.77548385 
-0.5826969 0.29768768 -0.75620526 
-0.14473836 0.36254603 -0.920658 
0.46036482 0.44151706 -0.77014726 
0.35308024 0.7410741 -0.5710899 
0.28100726 0.9100396 -0.30473405 
0.35932228 0.9329261 0.023163663 
0.23083696 0.62665105 -0.74432707 
0.2928282 0.9238146 0.24661346 
0.5819514 0.72671723 -0.364986 
-0.00084279187 0.98407453 0.17775454 
-0.24061267 0.96381676 0.11472993 
0.92779523 0.3676076 0.06372429 
0.4702654 0.15001418 0.8696817 
0.75648636 -0.16802585 0.6320568 
-0.39258942 0.047445875 0.9184892 
-0.27761328 -0.13501501 0.9511582 
-0.7481889 0.45305872 0.48471764 
-0.8853131 0.17308271 0.43158218 
-0.9872212 -0.155799 -0.033482738 
-0.62484384 -0.24175452 -0.742378 
-0.77102274 0.14126362 -0.6209417 
-0.12146505 0.9244774 -0.36136928 
-0.635969 0.1652688 -0.7538101 
-0.31281435 -0.2762905 -0.9087414 
0.39571342 0.48192614 -0.781766 
0.6355209 0.562447 -0.5289297 
0.615399 0.7777384 -0.12809028 
0.5218203 0.85003823 0.071683526 
0.7517574 -0.47346032 -0.45901662 
0.8236151 0.10913388 -0.5565502 
0.93293536 -0.00026090795 -0.36004385 
0.712109 0.63304836 -0.30356327 
0.45082447 0.8780096 0.16079937 
0.63834393 -0.02634825 0.76930034 
0.84651285 0.51317585 -0.14165649 
0.25540185 0.19251059 0.9474754 
0.55585533 0.28771815 0.7798994 
-0.2211815 -0.29292977 0.93019944 
-0.040010914 -0.18455254 0.9820079 
-0.6644928 0.14051636 0.733965 
-0.9383839 0.106868036 0.32865646 
-0.7202204 0.6661341 -0.19377308 
-0.5077957 0.7026915 -0.49836552 
-0.16927952 0.31180888 -0.93494374 
0.16214685 0.22895321 0.9598379 
-0.05743886 0.8363562 0.5451688 
0.6071854 0.43018055 0.668035 
-0.06326147 0.2838636 0.9567756 
-0.58541805 -0.34982032 0.73137647 
-0.84193456 0.06536799 0.5356056 
-0.77928776 0.55523777 0.29055437 
-0.3961556 0.78651625 -0.4737647 
0.11216128 0.9611054 0.25238147 
-0.90703845 0.011254004 -0.42089748 
-0.9329414 0.11002927 -0.3428031 
-0.30290097 0.70602065 -0.6401452 
-0.35667905 0.49227563 -0.7940056 
0.0365172 0.53915715 -0.8414132 
0.08998294 -0.04853708 -0.9947599 
0.9023035 0.1936101 -0.3851801 
0.6844109 0.61882925 -0.38552833 
-0.1532876 0.80441767 0.5739471 
-0.3733257 0.23430975 0.89762294 
-0.32276154 -0.46446082 0.82468253 
-0.9485187 0.07170701 0.30849695 
-0.8456947 -0.34811097 -0.40449876 
-0.92633206 0.37601218 0.02288647 
-0.49374527 0.7130873 -0.49771708 
0.031494252 0.3612648 0.93193126 
0.38305077 0.02948407 0.9232567 
0.3561015 0.002838321 0.93444294 
-0.08267211 0.33431602 0.93882805 
0.12899137 0.438468 0.889442 
0.24431354 0.78743565 0.5659117 
0.17857127 0.1627583 0.9703722 
-0.13959497 0.13376226 0.98113257 
-0.5477891 0.593111 0.5900395 
-0.036344282 0.38800722 0.9209395 
0.3423697 0.6820386 0.64622474 
0.42371023 0.90372854 0.061191496 
0.9597292 0.28091022 -0.0030783913 
-0.09371196 0.83768356 0.53805625 
-0.19928539 0.93518233 -0.2927788 
-0.04325152 0.90188444 -0.42980674 
0.48577642 0.79131174 -0.37127784 
0.8703325 0.4208847 0.2556903 
0.34365046 0.385767 0.8562058 
0.46440867 0.85427773 0.23352545 
0.13363476 0.462651 0.8764107 
0.22138222 0.2656832 0.9382976 
0.011387469 -0.31492522 0.94904816 
0.20106122 0.7949936 0.5723283 
0.12783046 -0.042728793 0.99087524 
-0.111433886 0.1314696 0.98503727 
-0.72600144 0.10454786 0.6796997 
-0.11743903 -0.892853 0.43476623 
0.28876787 -0.85388756 0.43300036 
-0.12802507 -0.6267454 0.7686351 
-0.19181037 -0.86842227 0.45722175 
-0.18167187 -0.7800082 0.59881765 
0.18900883 -0.87466055 0.44636825 
0.14336789 -0.9474404 -0.28601152 
0.043813474 -0.9534223 -0.29843986 
-0.021951621 -0.7049509 -0.7089163 
0.62439424 -0.67494476 -0.39316845 
0.67517304 -0.7335742 -0.07752584 
0.56459814 -0.8068618 -0.17378995 
-0.2695841 -0.95347035 0.13497707 
0.423298 -0.84003776 -0.33934554 
0.6359127 -0.42382452 0.64497113 
-0.19364622 -0.23418017 0.95271236 
0.064408384 0.20416266 0.9768158 
-0.9993766 0.0344023 -0.007934747 
-0.7431953 -0.48514548 0.46075457 
-0.956044 0.29041687 0.04047277 
-0.8726334 0.48796326 0.020071432 
-0.97796 -0.18272486 -0.10102494 
-0.95708334 0.0058025722 -0.2897548 
-0.989927 0.08352894 -0.1143137 
-0.9621069 0.27266574 -0.0019356181 
-0.7024089 0.6538878 -0.2811629 
-0.14309213 0.69318044 -0.70641744 
-0.49382445 0.44394758 -0.74769515 
-0.25590873 0.83020854 -0.49524182 
-0.14562792 0.94315153 -0.29876044 
-0.13725989 0.3100249 -0.94076794 
-0.5022111 0.72176623 -0.47627482 
0.34412494 0.7920406 -0.504232 
-0.03699915 0.9183532 -0.3940285 
0.28921255 0.059653834 -0.9554044 
0.5526373 -0.15171635 -0.8194963 
0.8406894 0.48393264 -0.24300326 
0.80286056 0.46467823 0.37348232 
0.836617 -0.34879822 0.42238846 
-0.26215667 0.70045644 0.6638033 