# OOMMF: rectangular mesh v1.0
# Segment count: 1
# Begin: Segment
# Begin: Header
# Desc: Time (s) :  3.3399999999999995e-07
# Title: m
# meshtype: rectangular
# meshunit: m
# xbase: 2e-09
# ybase: 2e-09
# zbase: 5e-10
# xstepsize: 4e-09
# ystepsize: 4e-09
# zstepsize: 1e-09
# xmin: 0
# ymin: 0
# zmin: 0
# xmax: 1.024e-06
# ymax: 1.024e-06
# zmax: 1e-09
# xnodes: 256
# ynodes: 256
# znodes: 1
# ValueRangeMinMag: 1e-08
# ValueRangeMaxMag: 1
# valueunit: 
# valuemultiplier: 1
# End: Header
# Begin: Data Text
0.036369056 -0.6672125 -0.7439791 
-0.21377917 0.81073964 0.544977 
-0.87425643 0.33808815 -0.34838504 
-0.74700683 0.6472762 0.15170476 
-0.98840594 -0.14590831 -0.04200651 
-0.0019062033 0.4946874 -0.8690689 
0.528808 -0.40035787 -0.7483821 
0.5191074 0.10684367 -0.8480047 
0.5732485 0.09148108 -0.8142588 
0.701235 -0.6456826 -0.30226395 
0.7658044 0.38170758 0.5175355 
0.40562066 0.020113952 -0.9138202 
0.76766896 0.31291807 -0.55925554 
0.95274097 0.06886078 -0.2958766 
0.6856414 0.6608241 0.30529884 
0.15897329 0.9446355 0.28703904 
0.20855667 0.7234527 0.6581188 
0.34985888 0.25774932 0.90064657 
0.20043308 -0.7694473 0.6064467 
-0.9221099 0.18571272 0.33944693 
-0.80302167 0.49383467 0.33359197 
0.054824177 0.8833197 0.4655541 
0.04314783 0.7924555 0.60840166 
0.09219812 0.77523875 0.62490344 
-0.539653 0.50978005 0.6699993 
-0.98622566 0.15761635 0.050160475 
-0.2901871 -0.9358705 -0.19984446 
-0.25421432 -0.3642033 -0.8959526 
0.22716568 -0.2778347 -0.933383 
0.7351281 0.46805623 -0.49041823 
0.09549219 0.63188034 -0.76916087 
-0.052208602 0.58590496 -0.8086963 
0.15226924 0.67760754 -0.7194874 
0.42407164 0.67869085 -0.5996182 
0.35028175 0.46105748 -0.81530905 
0.36920968 -0.032358512 -0.92878264 
0.5260025 0.8457975 -0.089151725 
-0.02940169 0.97661924 0.21295647 
-0.2395992 0.9579891 -0.15763597 
0.14108007 0.8905812 -0.4323907 
0.1309713 0.2844141 -0.94971323 
-0.7290051 0.68212754 0.057041187 
0.040881727 0.3425337 -0.93861574 
0.5078052 -0.35552847 -0.7846869 
-0.31028047 -0.19647269 -0.93012077 
0.44152173 -0.87959605 0.177114 
0.011855565 -0.7658725 -0.64288324 
0.11222418 -0.9617768 -0.24978201 
0.18343414 -0.42140827 -0.8881256 
0.53269047 0.19285883 -0.82404274 
0.8305936 -0.039220143 -0.55549634 
0.9696299 0.24181817 0.036633953 
0.50608736 0.83658504 -0.20976464 
-0.03327498 0.995104 -0.09306446 
0.934223 0.29119375 0.2059947 
0.6229503 0.76633483 -0.15704758 
0.57157797 0.78151095 -0.25007844 
0.21187882 0.46119344 0.8616311 
-0.4918766 -0.08221071 0.86677504 
0.08058016 0.96377695 -0.2542457 
-0.45998168 0.5746885 0.67686784 
-0.35800478 0.28181186 0.8901768 
-0.9555374 -0.16013335 0.24760015 
-0.7245504 -0.59332603 -0.35070062 
0.46828324 -0.80672145 -0.360432 
-0.57253575 -0.75487626 0.3199448 
-0.9632543 -0.21683894 -0.15850013 
-0.9301821 -0.35773978 -0.0823617 
-0.7655521 -0.5855517 0.2665695 
-0.5609303 -0.5978478 -0.57265633 
-0.10564243 -0.32245222 -0.9406723 
-0.36703297 -0.331863 -0.8689959 
-0.25408253 -0.104222186 -0.9615508 
-0.23768476 0.14742763 -0.9600891 
-0.018666295 -0.133595 -0.9908603 
0.60248065 0.050725583 -0.79652005 
0.31323886 0.44171283 -0.8406969 
-0.09174573 0.5270123 -0.8448911 
0.55098206 0.027458588 -0.83406526 
0.9158033 0.11150439 -0.3858382 
0.9875177 0.1335105 -0.08356933 
0.9855843 -0.12839772 0.11017153 
0.9330472 0.22561614 -0.2802149 
0.9383691 -0.3426876 -0.04504209 
0.70967376 0.18174839 0.6806841 
0.99208176 0.0028351347 0.1255623 
0.4392656 -0.06594367 0.8959338 
0.17064412 0.78923845 0.58990115 
-0.1893086 0.604519 0.77376944 
0.06915209 0.9955173 0.06452362 
-0.31137532 0.73361266 0.6040348 
-0.829256 0.2996517 0.47174507 
-0.82763034 -0.47772735 -0.29462618 
-0.53978634 -0.6031945 -0.5871858 
-0.11583296 -0.045883343 -0.99220836 
0.30434415 0.17178853 -0.93694365 
0.7017002 0.21664295 -0.6787361 
0.6378016 0.76932037 0.036817335 
-0.011892211 0.93819374 -0.34590626 
0.3186023 0.3525027 -0.87990594 
0.8955829 0.4037075 -0.186953 
0.98122984 -0.17369024 0.083783366 
0.64661 -0.048400387 0.7612837 
0.7676907 0.5376482 0.34869096 
0.2161718 0.22908 0.9491007 
0.59644854 0.19317758 0.7790583 
0.71415275 0.011762405 0.69989115 
-0.7787752 0.45016944 0.43687144 
-0.38679808 0.72178906 0.5739407 
-0.67488647 -0.6511759 0.3471287 
-0.872048 0.027411694 -0.48865217 
-0.72116804 -0.35642454 -0.5940356 
-0.07826785 -0.8149956 -0.5741571 
0.78820443 -0.5994051 0.13945329 
0.16864213 -0.90571946 0.3888858 
-0.020172173 -0.91845655 0.3950071 
0.21329986 -0.48338524 0.8490241 
0.41112307 -0.42561013 0.8061227 
-0.56462175 -0.73396623 -0.3774864 
-0.11496749 -0.6897415 -0.71487004 
0.021698453 -0.48017392 -0.87690496 
0.19801612 0.4744397 -0.8577276 
-0.14102425 0.91623837 -0.37499273 
-0.6578043 0.72002655 -0.2210322 
-0.51002365 0.24904531 -0.8233178 
-0.0058894157 0.49017745 -0.8716027 
-0.19557667 0.48236153 -0.8538602 
0.27068558 0.5339593 -0.8010099 
0.90146554 0.2363998 -0.36259493 
0.68654644 0.72598594 0.039981075 
0.87509215 0.3227142 0.36065122 
0.99704146 0.07304415 0.02393727 
0.7036221 0.055673093 0.70839006 
0.6446461 -0.7614141 0.0684105 
0.300946 -0.9241772 -0.23521914 
0.293017 -0.5559479 0.777858 
0.108464636 -0.7552863 0.6463576 
0.73272574 -0.40607077 0.5460948 
-0.2046686 -0.17670608 0.9627491 
-0.5891893 0.10851819 0.80067456 
0.21488747 0.13660482 0.9670381 
-0.16218802 0.23573698 0.9581875 
-0.1922748 -0.07261965 0.97865057 
-0.5279212 0.009985314 0.84923476 
-0.46246737 0.85133415 0.24769793 
-0.6898884 0.048855707 -0.72226536 
-0.2165639 -0.14559388 -0.96535105 
-0.32242906 0.13835044 -0.93642867 
-0.91615885 -0.3041266 -0.26107493 
-0.88352066 -0.444826 -0.14670084 
-0.85674167 0.19917503 -0.47573423 
-0.50563264 0.16614209 -0.84660065 
-0.5338484 0.6935847 -0.48367995 
-0.99800754 0.03196925 -0.054397367 
-0.8558961 0.41284323 -0.3114521 
-0.73523676 -0.318944 -0.59808165 
-0.018153086 0.3857044 -0.92244387 
0.12150809 -0.08352769 -0.98906976 
0.1750843 -0.09264636 -0.9801848 
0.26089114 0.1908988 -0.9463052 
0.7425094 0.32677314 0.5847215 
0.6088017 -0.6576093 0.44374618 
-0.3163507 -0.6030868 0.7322627 
-0.47066942 0.23829363 0.84952134 
-0.10889659 0.6097636 0.78506684 
-0.57557356 0.7945853 -0.1932595 
0.13387653 0.43191043 -0.8919252 
0.59266585 0.030004542 -0.8048895 
0.14700276 0.2470755 -0.9577807 
-0.6049147 -0.5017623 -0.6183146 
0.08787558 0.7319141 -0.6757068 
0.18028958 0.4980515 -0.8481983 
-0.7676404 -0.35976404 -0.53037536 
-0.52596575 0.35310987 -0.77373993 
0.28125456 0.074181944 -0.9567617 
0.9879052 0.15348954 0.02200749 
0.7083371 0.7055879 -0.02010752 
0.20917355 0.9717186 0.10958791 
-0.0730383 0.87321186 0.48183665 
-0.3418337 0.9103325 -0.23333324 
-0.5785414 0.75721884 -0.30316618 
-0.44298422 0.7082934 -0.5496231 
0.3316539 0.21548872 -0.9184609 
0.053413674 0.4862933 -0.8721617 
-0.41668594 0.9071352 -0.058979265 
-0.52016115 0.5561507 -0.6481736 
-0.5808847 -0.57452714 -0.5766208 
-0.33245632 -0.8164212 -0.47215372 
-0.41718042 -0.076171726 -0.905626 
-0.13850819 0.47435853 -0.86936736 
-0.5977304 0.10812129 -0.7943729 
-0.11205916 -0.03393492 -0.993122 
0.63274443 -0.13351639 -0.7627634 
0.7626454 -0.15489961 -0.6279953 
0.90095156 -0.036996502 -0.43233976 
0.2780856 0.77675545 -0.56508356 
0.7242327 0.54422987 -0.42343956 
0.8608343 0.4086821 -0.30322182 
0.6211729 0.17610565 -0.7636303 
0.7694768 0.634413 0.0736591 
0.7795654 0.57946694 -0.2376887 
0.08980099 0.60160124 -0.7937328 
-0.19882317 0.6443838 -0.738403 
0.085636966 0.9959988 -0.025547188 
-0.26534086 0.8795545 -0.39494082 
0.5650601 0.8230395 -0.057560846 
0.63439155 0.75966114 -0.14304732 
-0.4694704 0.86700076 0.16705444 
-0.8801191 -0.40347108 0.25020295 
-0.4822466 0.3618273 -0.79782164 
-0.32020563 -0.4266266 -0.84584755 
0.55205923 -0.44463503 -0.7053584 
-0.5969805 -0.7711047 -0.22138616 
-0.07906061 -0.86990553 -0.48684075 
-0.0032236527 -0.5498183 -0.83527803 
-0.112856634 0.5640426 -0.81799716 
-0.47061044 0.7771481 -0.4178118 
-0.33667699 -0.6614955 -0.6701286 
0.23861608 -0.8303765 -0.5035249 
0.25546274 -0.4250012 -0.86839676 
0.773575 0.309468 -0.55300206 
-0.42147502 0.8895781 0.17609593 
-0.52305424 0.61902255 -0.5858545 
-0.4962692 0.65931344 -0.564821 
-0.8632573 0.3792247 -0.33313012 
-0.49727786 -0.46902257 -0.72988534 
0.2091383 -0.1693046 -0.9631185 
-0.2682904 0.34594145 -0.89908 
0.37108302 0.4985437 -0.78342295 
0.9374534 -0.14507373 -0.31644082 
0.7504922 -0.13197991 -0.6475668 
0.120457 -0.3117508 -0.94249755 
0.08747944 -0.050654 -0.99487764 
0.19310473 0.97373736 -0.1206072 
-0.15990712 0.8837766 -0.43973717 
0.2408739 0.96862143 -0.061256193 
0.28576264 0.9162909 -0.28062576 
0.8875419 0.45764813 0.053176038 
0.6548 0.7456113 0.12369668 
0.6760146 0.59415436 0.43587267 
0.89239943 0.38751328 0.23120736 
0.7791036 0.58618176 0.22223559 
-0.31261528 0.7584257 0.57189345 
0.18577182 0.8527142 0.48822892 
-0.4968124 0.58638024 0.6397936 
-0.3040621 0.9501164 -0.06946366 
0.3262685 0.9452691 0.0038880315 
0.43992323 0.81492764 0.37730682 
-0.3297825 0.4435179 0.833388 
0.102215014 -0.42954597 0.89724153 
-0.66737694 -0.077745974 0.7406509 
-0.94828004 -0.25032428 0.19519934 
-0.82513154 -0.55372614 0.11200625 
-0.7223816 -0.50738806 0.46981084 
-0.50982594 -0.49076712 0.70655864 
-0.39891416 -0.20212314 0.8944349 
0.81259495 0.5764592 0.08593186 
0.1941978 0.7874485 0.58498895 
-0.6725718 0.68562776 0.27849925 
-0.9334341 0.3502829 0.07747684 
-0.92547613 0.036387514 -0.3770544 
-0.35055426 -0.18171073 -0.9187454 
0.1953417 0.01924424 -0.9805465 
0.7857362 0.21204565 -0.58108115 
0.93764526 -0.08424104 -0.33723122 
0.887837 -0.35001075 -0.2987272 
0.8781884 0.33207902 -0.34425113 
0.64819914 0.40273836 -0.64625055 
0.52107996 0.8511996 0.06273018 
0.8485557 0.50781834 -0.1485727 
0.76870245 0.4181906 0.48395592 
0.73950225 0.11441613 0.66335917 
0.75978947 0.20741586 0.616197 
0.39564386 0.15357111 0.9054733 
0.4021332 0.0033978645 0.9155749 
-0.40917292 -0.129683 0.9031943 
-0.105135955 0.40957725 0.90619695 
-0.2630542 0.80392104 0.53339815 
-0.06770266 0.3774347 0.923558 
-0.36278647 0.2520543 0.8971369 
-0.6846447 0.25936732 0.6811684 
-0.7584026 0.6290483 -0.17065719 
-0.532853 -0.57160825 -0.6239646 
-0.46441296 -0.2634291 -0.84553283 
0.23780815 -0.13169263 -0.9623432 
-0.56961685 0.8166955 -0.09244036 
-0.69711 0.67923653 -0.2295114 
-0.38020068 0.575935 -0.72370327 
-0.037482917 0.8428193 -0.5368898 
0.51135916 0.73355114 -0.44767687 
0.45639846 0.23104583 -0.85925454 
0.44790646 0.23310114 -0.8631591 
0.72829974 0.6848655 0.023212334 
0.5904823 0.4380517 0.67782104 
0.30883327 0.63310224 0.7097913 
-0.024944365 0.9752382 0.21974589 
-0.54661584 0.78180915 -0.29997608 
-0.43544823 0.7552529 -0.48987558 
0.112383924 0.4761221 -0.87216836 
0.21179068 -0.23762032 -0.94798803 
0.24953039 0.26999015 -0.92996776 
0.06618197 -0.85174674 -0.51975715 
0.06610419 0.13681713 -0.98838824 
0.3843393 -0.12059204 -0.91528195 
0.16721688 0.37640664 -0.9112391 
0.4008392 0.7184115 -0.5685182 
0.78288585 0.51503 -0.3490469 
0.73631924 0.6758349 0.032883264 
0.70350343 0.71068907 0.0020021088 
0.7684128 0.6034406 0.21307583 
0.7306232 0.3388697 0.59275395 
-0.027599027 0.68090725 0.73184943 
-0.42498404 0.84287745 0.3300702 
0.08231564 0.96877664 0.23387206 
0.07368303 0.22088575 0.9725124 
-0.62692463 0.7124359 0.31527856 
-0.69729733 0.5691061 0.43576905 
-0.9075978 0.11854665 0.40275684 
-0.882199 -0.3675191 -0.294372 
-0.5173511 -0.7909425 -0.32673827 
-0.44190806 -0.5009907 -0.7441274 
-0.644207 -0.75300294 -0.13410471 
0.30091143 -0.5828013 -0.7548477 
0.1268364 -0.42305213 -0.89718425 
-0.35206985 -0.8738108 0.33541247 
-0.20495032 -0.97855407 -0.020672083 
-0.21321613 -0.5922264 -0.7770501 
-0.3449813 0.013789747 -0.93850833 
0.14917211 0.11676513 -0.9818929 
-0.04232522 0.06574741 -0.9969382 
0.36876705 0.24548389 -0.8965202 
0.6307527 0.71263504 -0.30708688 
0.7879214 0.60160536 -0.13134272 
0.6839513 0.71562916 -0.14172366 
0.37427008 0.6174763 -0.6918418 
0.9825048 -0.12427172 0.1387119 
0.82909733 -0.51812184 0.21011321 
0.47098526 -0.4580883 -0.7538753 
0.6239631 0.58338636 -0.51993304 
0.98498464 0.17245783 -0.007979485 
0.7942341 0.44947094 0.40886194 
0.96766317 0.18994984 0.1659737 
0.841351 0.08237548 0.53417504 
-0.16923748 0.011016095 0.9855138 
0.042951748 -0.58854675 0.8073215 
-0.27130902 0.39483193 0.87778085 
-0.011207318 0.26203576 0.9649932 
-0.84134275 -0.37406638 0.39014977 
-0.9089386 -0.1827211 -0.37475815 
-0.19177395 -0.5111682 -0.83781266 
-0.52061146 0.64400226 -0.5605576 
0.15302743 0.7761249 -0.61172944 
0.48041567 0.7258717 -0.4922511 
0.8815152 0.31554255 -0.3512321 
0.9475122 0.31912228 -0.019537695 
0.57153904 0.23067777 -0.787484 
0.6332219 0.77334034 -0.031221962 
0.664144 0.5865479 -0.4635456 
0.8810553 0.4422271 0.16785969 
0.8118668 0.30860096 0.49561843 
0.40150654 0.6973762 0.5936826 
0.10447898 -0.36709422 0.92429763 
0.21849987 0.34882128 0.91136247 
0.23399714 0.5419097 0.80720454 
-0.70798284 0.4689805 0.5280319 
-0.94853103 -0.25547922 0.18713462 
-0.8914326 0.014511197 -0.45292106 
-0.6434662 -0.34910533 -0.6812319 
0.53541017 -0.66251403 -0.52384263 
0.6189781 -0.40427577 -0.6733702 
0.67885166 -0.71126485 -0.18238093 
0.30111253 -0.9359309 -0.18265975 
-0.03985289 -0.6031368 0.79664165 
-0.2891043 -0.94753987 0.13633363 
-0.16480225 -0.9839744 -0.06807879 
-0.3966765 -0.88014036 0.2607694 
0.58985287 0.8074051 -0.013065227 
0.5893429 0.7376693 0.32942227 
0.20276 0.9739436 0.10159877 
-0.5786089 0.788392 0.20892586 
0.093670025 0.9653692 0.24349153 
-0.27662465 0.95806694 -0.07474467 
-0.09166372 0.8780103 -0.46978277 
0.5507225 0.76746976 -0.32816896 
0.70157045 0.7004279 0.13114826 
0.4374286 0.75912553 0.48206314 
0.88942784 0.45630243 -0.026574342 
0.8201382 -0.02146278 -0.57176274 
0.96129984 0.26899168 0.059550464 
0.73243594 -0.664885 0.14651154 
0.9529289 -0.23702481 0.18906568 
0.18033953 -0.5725083 0.79982007 
-0.4798413 -0.4702812 0.7406673 
-0.10078557 -0.4119059 0.9056356 
-0.5495122 -0.15936735 0.8201454 
-0.65505147 -0.5615616 0.50552577 
-0.092225194 0.2512414 0.9635208 
0.27924216 0.089524284 0.95603836 
-0.7667152 -0.38353896 0.514826 
0.04999667 -0.06721666 0.996485 
-0.23230791 0.70373404 0.67141014 
-0.64901346 0.7607131 -0.00986223 
-0.9806868 0.19558154 0.0011750235 
-0.58578897 0.7052263 -0.39938363 
-0.91303676 -0.13843001 -0.3836678 
-0.74698657 0.5475727 -0.3770613 
-0.8220465 0.14896646 -0.54958963 
-0.79257905 0.14362608 -0.59261286 
-0.92659605 -0.37542462 -0.02182398 
-0.94556123 0.029801264 -0.32407683 
-0.8348762 -0.5030931 -0.22333631 
-0.5681923 -0.51607805 -0.6409533 
-0.6675637 -0.06542922 -0.7416724 
0.10634449 -0.19530927 -0.97495914 
0.4028503 -0.44938698 -0.7973476 
0.27902815 0.029923107 -0.9598166 
0.8761724 -0.307334 -0.37130544 
0.68207574 -0.69219273 0.23588547 
0.41282943 -0.1708312 0.89464444 
-0.25413653 0.7166538 0.6494782 
0.19509897 0.5102548 0.83760166 
-0.54703397 0.693749 -0.46847236 
-0.2574761 0.28913498 -0.9220125 
0.24533106 0.055764943 -0.96783423 
0.89741623 -0.12974156 -0.42167675 
0.5943607 0.20067751 -0.77875805 
0.015319746 -0.10014999 -0.99485445 
0.5926091 0.21257137 -0.7769349 
0.64678293 -0.028281128 -0.7621497 
0.77224505 0.6083134 0.18328252 
0.43087035 0.5769546 0.69388336 
0.3191458 0.78326887 0.5335128 
0.18270332 0.9431773 0.27755386 
0.3036996 0.802463 0.513634 
0.036943153 0.53588164 0.8434846 
-0.3862033 0.7837416 0.4864117 
-0.26508474 0.69234633 0.67110854 
-0.12792681 0.99152184 0.022784423 
-0.5062262 0.82237536 -0.25968027 
-0.47024062 0.8403598 -0.26957202 
-0.09530545 0.94807076 -0.303445 
-0.86649114 0.27902353 -0.41393122 
-0.77134335 -0.10741864 -0.6272884 
-0.1225879 -0.2686198 -0.9554138 
0.36626148 0.34348452 -0.8647953 
-0.018111285 0.51150614 -0.85908884 
0.09741531 0.21392198 -0.9719814 
0.5911231 0.1251178 -0.796818 
0.39026687 -0.4145524 -0.8220937 
0.5214261 -0.6248561 -0.58109355 
0.8917089 0.15363176 -0.4257376 
0.9133045 0.18504478 -0.36281314 
0.9618738 -0.27187294 0.029729156 
0.9770897 -0.1412734 -0.15917768 
0.99744934 0.06080784 -0.037382104 
0.9017067 0.023247894 -0.43172276 
0.5553201 0.8255901 0.10010362 
0.7210612 0.6410586 -0.26289666 
0.23967315 0.8867991 -0.39515078 
0.35584548 0.8430475 0.40329275 
0.5746729 0.7373543 -0.35504913 
0.44563657 0.88806003 0.11294991 
0.09912064 0.99290955 -0.06561847 
-0.32257503 0.90033364 -0.29213837 
-0.48124793 0.8705421 0.10274718 
-0.5055402 0.11335993 -0.8553238 
-0.5006575 0.5033099 -0.7042878 
-0.09270877 0.6080577 -0.7884611 
-0.47667122 -0.55500364 -0.6817298 
0.06406992 -0.59225017 -0.80320287 
0.27018675 -0.032836117 -0.96224785 
-0.12991945 0.2645387 -0.9555837 
0.44805354 0.24318045 -0.86029726 
-0.08171124 -0.81140584 -0.57874346 
-0.014493416 -0.5397358 -0.84170973 
-0.12972853 0.0201824 -0.9913442 
0.708521 0.6947042 -0.12403316 
0.1725348 0.9757749 -0.13451843 
-0.4918584 0.8267079 -0.2731841 
-0.3684655 0.9296082 -0.00785883 
-0.74930805 0.55403817 0.36273846 
-0.7069384 0.42391682 -0.56615615 
0.12846728 0.32845882 -0.9357409 
-0.13385706 -0.21628626 -0.9671104 
0.24555601 0.3165064 -0.9162566 
0.52418166 0.6279046 -0.57529944 
0.26742283 -0.07321452 -0.96079373 
0.6006329 0.056363307 -0.7975359 
0.4919712 0.80736715 -0.3257648 
0.3681634 0.92249036 0.11604913 
0.15276119 0.9862682 0.06276117 
0.2741033 0.6920671 0.6677653 
-0.20659462 0.72920805 0.6523607 
0.8133307 0.5598587 -0.15827717 
0.7453686 0.6268475 0.22690967 
0.27675176 0.9287479 0.2466493 
0.8117841 0.56265706 0.15628104 
0.15987112 0.8250221 0.5420147 
-0.2078135 0.65931636 0.7225756 
0.30775544 0.935516 0.17348361 
0.33024573 0.51838255 0.7888075 
0.46992764 0.66769993 0.57736033 
0.8101084 0.5749323 0.11479281 
0.75993 -0.020511456 0.64968127 
0.16761301 -0.26515958 0.9495242 
-0.33918458 -0.6411268 0.6884114 
-0.2933074 0.7271531 0.6206603 
-0.92076653 0.34499487 0.18211976 
-0.4507723 -0.29521433 0.8424091 
-0.9430941 -0.19183776 0.27160966 
-0.67922324 -0.59740424 0.426338 
-0.2462255 0.6409565 0.727013 
0.47668436 0.2610152 0.8394303 
0.4243315 0.68018293 0.5977407 
0.28778112 0.9510392 0.112723485 
-0.57758445 0.41639864 -0.7021456 
-0.25635147 0.7818325 -0.5683502 
0.0071171275 0.5437565 -0.83921283 
0.28855616 0.37976027 -0.8789298 
0.8187248 0.15250842 -0.5535621 
0.58993334 0.24024743 -0.7708825 
0.67748266 0.124364614 -0.72494876 
0.87637 0.25010103 -0.4116129 
0.79111326 0.41981727 0.44485196 
0.4445568 0.84543204 0.29599667 
0.92716616 0.36619222 0.0791595 
0.7430298 0.665366 -0.07207611 
0.74544287 -0.0133111635 0.6664367 
0.33441916 0.4539279 0.8259015 
0.6604935 0.5419117 0.51969236 
0.5694865 0.190928 0.7995197 
-0.2800642 0.2634239 0.92313164 
0.05993569 0.06069134 0.99635553 
-0.47877675 0.8713161 0.10761539 
-0.8479681 0.37472716 0.37487292 
-0.22531354 0.36550283 0.90312874 
-0.5904646 0.5516756 0.58907175 
-0.976047 0.036999717 0.21439052 
-0.4485852 -0.29997703 -0.8418938 
-0.1787632 0.1282818 -0.97549355 
0.36509436 0.12899141 -0.92199093 
0.13932972 0.7569174 -0.63848513 
0.29092532 0.5554693 -0.77898425 
-0.23421516 0.9701926 -0.062206082 
-0.12190548 0.77774626 -0.6166441 
0.535616 0.2720262 -0.7994482 
0.6719765 0.5653353 -0.47837603 
0.8047435 0.5910025 0.05571424 
-0.09160212 0.7669191 0.63517255 
0.2437261 0.63115066 0.7363739 
0.22595985 0.8063071 0.54663604 
-0.59066373 0.8042693 0.065325044 
-0.41325074 0.8530529 0.31862935 
-0.0037011425 0.95002383 -0.31215572 
-0.6187675 0.590905 -0.5176468 
-0.56468034 0.39233336 -0.72609276 
0.00759082 0.34061527 -0.94017214 
-0.0021418473 -0.18795906 -0.9821745 
-0.10919144 -0.0070315357 -0.99399596 
-0.18743356 -0.42087448 -0.8875434 
-0.26584738 -0.1803277 -0.946999 
0.89785135 -0.021071047 -0.43979436 
0.6829818 0.67759246 0.27277175 
0.7482066 0.6586728 0.07960563 
0.25740805 0.84488624 -0.46894386 
0.6340786 0.21224384 0.7435703 
0.70101327 0.47393656 0.5328833 
0.36090878 0.48305172 0.79775053 
-0.2952656 0.3072686 0.90465695 
-0.3815593 0.6785065 0.62772727 
-0.4773674 -0.18071175 0.85992074 
-0.02470274 0.77359873 0.6331941 
-0.3963008 0.79095554 0.4661923 
-0.826686 -0.27723882 0.48962134 
-0.7547143 -0.39773786 -0.52173847 
-0.92332023 -0.27346423 -0.26962417 
-0.8218609 -0.1725383 -0.54293203 
-0.37280226 -0.8890848 -0.26560652 
0.505362 -0.31101188 -0.80491054 
-0.39564627 -0.23286921 -0.8883895 
-0.25890562 -0.58893204 -0.76558936 
0.2762235 -0.63992536 -0.71707475 
0.52335745 0.24027061 -0.81753725 
0.24677068 0.695228 -0.67510176 
0.25619137 0.5477036 -0.79648405 
0.12785907 0.61210066 -0.7803749 
0.5077134 0.8234934 -0.25315186 
0.69256264 0.6709165 -0.2650057 
0.78526706 0.29280892 0.54554445 
0.43133265 0.83896315 0.3318025 
0.6078159 0.5248455 -0.5959003 
0.9928588 0.06797714 0.09803332 
0.8998646 -0.3688246 0.23283528 
0.95649713 0.104275875 -0.2724699 
0.78443986 0.41172487 -0.46382844 
0.64274955 0.7101144 0.2874204 
0.7820972 0.4643949 0.4155255 
0.7074662 -0.1509138 0.69044673 
0.4994367 -0.22484756 0.83666396 
-0.35398293 0.76460814 0.53858197 
0.72068584 0.59983945 0.34756958 
-0.36823496 0.072401546 0.92690945 
-0.37830755 0.24635004 0.8922976 
-0.34955898 0.25368625 0.9019156 
-0.8712239 0.4679159 0.14840335 
-0.97277683 0.2243345 0.058132038 
-0.56397635 0.71812063 -0.4077173 
-0.22609453 0.597176 -0.7695858 
0.2923146 0.55423343 -0.7793443 
0.39279673 -0.096674606 -0.9145298 
0.5419154 0.7903241 -0.2858592 
0.38457116 0.9146482 0.12459397 
0.7803859 0.62400156 -0.040249553 
0.6720601 0.63953733 0.3732658 
0.93602616 0.27682576 0.21730778 
0.5103323 0.29116833 0.8091861 
0.50092375 0.57507855 0.6468076 
-0.13523573 0.15680726 0.97832656 
0.3057087 -0.26071456 0.9157348 
-0.62014174 -0.20183702 0.75808054 
-0.70685554 -0.60084 0.37329176 
-0.9653971 -0.10376319 0.23925227 
-0.5877129 -0.562838 -0.5812116 
-0.7778929 -0.6159442 0.124480724 
-0.098623075 -0.8684882 -0.48580012 
0.24093807 -0.7182557 -0.65273094 
0.4555959 -0.8456896 -0.27792343 
0.50621146 -0.8611346 -0.046875976 
0.023213696 -0.9990625 -0.036540642 
-0.15056238 -0.96687794 0.20610182 
0.3271917 -0.8467297 -0.41951683 
0.36136582 -0.93208766 0.025047332 
0.6733204 0.38678685 0.63010764 
0.29205522 0.6599406 0.6922299 
0.29147813 0.26558 0.91897106 
-0.20939958 0.83779263 0.5042376 
-0.1147139 0.77532125 0.62106186 
0.11053164 0.8905185 0.44131586 
-0.22935097 0.6633751 0.7122723 
0.59010303 0.80673486 0.030939685 
0.09206885 0.83009595 0.54996747 
0.16373919 0.5786012 0.7990058 
0.56299293 0.81330407 -0.14688596 
0.65956897 0.7502691 -0.045443226 
0.5905603 0.4472797 0.67169887 
-0.1427863 0.43657634 0.8882642 
0.75204706 0.43320993 0.49674386 
0.30675393 -0.3716269 0.8762394 
-0.500368 -0.08015557 0.8620946 
0.45290238 0.43460014 0.77846146 
0.11682855 0.046836935 0.99204713 
0.037827272 -0.5775168 0.8155019 
-0.6193796 -0.49378958 0.61036116 
-0.43119636 -0.12396484 0.8937015 
-0.2531332 -0.07427361 0.96457607 
-0.74061406 -0.10595149 0.6635248 
-0.3544121 0.7840972 0.50949347 
-0.61142087 -0.2611916 0.74695617 
-0.76648945 -0.28702655 0.57455176 
-0.98316354 0.17786382 0.04188192 
-0.9534399 0.14174525 -0.26619676 
-0.72701246 0.48390722 0.48712087 
-0.9391198 0.3433218 0.013569893 
-0.96660775 0.038468495 -0.25335702 
-0.9637511 -0.13922149 -0.22759914 
-0.44458324 0.26366806 -0.85605204 
-0.40377733 -0.5581476 -0.7248691 
-0.2724808 0.10127162 -0.9568168 
0.23705152 0.09334066 -0.96700263 
0.1638759 0.13342747 -0.9774159 
0.2815156 -0.17022763 -0.94433665 
0.63493156 0.42819387 -0.64304906 
0.9697606 -0.04438052 0.23998901 
0.88463914 -0.3426934 0.31618825 
0.9252428 -0.18180342 0.33297646 
0.52830595 0.009649016 0.8489993 
0.10117518 0.61267346 0.78383356 
0.009815375 0.9731057 -0.23014985 
-0.7039129 0.025624387 -0.70982397 
-0.80854315 0.56499875 -0.16442151 
-0.113624446 0.9055931 -0.40864488 
0.28762916 0.9533194 -0.09193295 
0.065948166 -0.12130102 -0.99042267 
-0.0033268828 -0.038497295 -0.99925315 
0.4670909 0.34992445 -0.8120215 
0.75022835 0.60639155 -0.26352742 
0.87959445 0.44853446 0.15852582 
0.55139166 0.09995943 0.8282363 
0.26803336 0.66361535 0.6984074 
0.070414566 0.5405899 0.8383344 
-0.60666037 0.61056983 0.5090851 
-0.11221326 0.260857 0.95883363 
-0.9289476 0.34982124 0.1211673 
-0.35570008 0.9026383 -0.24232534 
-0.6034087 0.7280483 0.32533625 
-0.18575715 0.97797316 0.09519912 
-0.14251941 0.81233704 0.56550574 
-0.26917613 0.95228136 0.14389081 
-0.009809865 0.7562505 -0.6542088 
0.28638956 0.43608952 -0.85311604 
0.25949726 0.09629956 -0.96093065 
0.48212868 0.7651466 -0.42673498 
-0.40506545 0.51449716 -0.75578755 
0.012968373 0.34666622 -0.9378989 
0.89233977 0.37812456 -0.24647833 
0.30494452 0.3517488 -0.8850321 
0.39310798 -0.087805696 -0.91529036 
0.84266585 -0.16858321 -0.511365 
0.8284067 -0.3595919 -0.42946026 
0.92796415 -0.054903436 -0.36860305 
0.89165866 0.22916724 0.39041942 
0.6445495 0.07935963 0.7604328 
0.4438208 0.6586635 0.60760635 
0.52792305 0.83091533 -0.17571893 
0.057021696 0.98227954 0.17853677 
0.046553142 0.9917759 0.11922087 
0.20237619 0.9268947 -0.31608567 
-0.14072737 0.98899525 -0.045652807 
-0.2555436 0.9627623 -0.08823944 
-0.7109836 0.68125075 0.17435561 
-0.0038436272 0.54944706 0.83551973 
-0.6593824 0.66824126 -0.34448308 
-0.35080957 0.8320359 -0.42970824 
-0.16246143 0.76175916 -0.6271597 
-0.7403514 -0.21219942 -0.637849 
0.11392093 -0.19716167 -0.97372967 
-0.7226816 0.05116863 -0.6892845 
-0.01411415 -0.11579524 -0.9931729 
-0.25407678 -0.010820874 -0.9671235 
0.63122034 -0.3266493 -0.7034637 
0.7009251 -0.13317145 -0.7006921 
0.84073216 0.22465059 -0.49264756 
0.7915784 0.60326266 0.097354114 
-0.0684459 0.95532566 0.28752068 
-0.1061793 -0.006251336 0.9943274 
-0.09115518 0.6330385 0.7687347 
-0.9835782 0.13313758 0.121853724 
-0.78058934 0.5125048 -0.35779747 
-0.4266704 0.5933764 -0.68253714 
-0.070690006 -0.07864472 -0.9943933 
0.5454218 0.06391621 -0.8357211 
0.12904419 -0.3520312 -0.92705 
0.3112628 0.041234188 -0.94942886 
0.7525614 -0.27420986 0.5987156 
-0.18377404 0.15479645 0.9707035 
0.5525654 0.54335946 0.63200635 
0.4754046 0.43223742 0.7662645 
0.4939438 0.13679187 0.8586661 
0.2889878 0.7098553 0.6423329 
0.80126256 0.54679716 0.2428813 
0.2306779 0.72651356 0.64727575 
0.36238283 0.2674295 0.8928383 
-0.2991416 0.6087631 0.7347937 
-0.38904226 0.6827467 0.61846834 
0.021081153 0.3467402 0.9377243 
0.44462782 0.5859729 0.67745256 
0.6492004 0.62281585 0.43662283 
0.74042386 0.3083356 0.5972451 
0.4453955 0.512609 0.73406744 
-0.31291515 0.24012412 0.9189258 
0.8250984 -0.065773964 0.5611474 
0.31162807 0.47065905 0.82545024 
-0.30106184 0.5063477 0.8080679 
-0.23293345 0.24332416 0.94156015 
-0.58347166 0.026225733 0.81171006 
-0.7662398 -0.36279497 0.5303362 
-0.9462214 -0.19600773 0.25738335 
-0.4925275 0.19425532 0.8483406 
0.29306966 -0.13361524 0.9467086 
0.22942393 0.12125778 0.9657439 
-0.50935763 0.5746995 0.64052737 
-0.63809514 0.631545 -0.44043797 
-0.26828974 0.7989596 -0.53822315 
-0.19334596 0.6145629 -0.76480705 
0.94253176 0.22897221 -0.24332221 
0.9215622 0.30420455 0.24121091 
0.6805121 -0.08347638 -0.7279664 
0.5832847 0.793398 0.17406516 
0.59657395 0.3514943 0.7214924 
0.92646545 0.16710922 0.33724827 
0.69523865 0.18046622 0.6957551 
0.8594016 0.35362908 0.36929053 
0.7530918 0.4006155 0.5218812 
0.59687203 0.75754803 -0.26431954 
0.5894416 0.63456506 0.49988595 
0.28408796 0.92689 0.24529383 
0.394161 0.6658884 0.633427 
-0.31352606 0.59865797 0.7370958 
-0.20606267 0.34840414 0.9144139 
-0.76654726 0.3300193 0.5509016 
-0.46275243 0.622213 0.6314359 
-0.76852125 0.14059465 0.62418604 
-0.9775456 -0.20923999 0.024963623 
-0.8567236 -0.51504767 -0.027398147 
-0.75285053 -0.37683046 -0.53964335 
-0.33775052 -0.21484 -0.9163888 
0.06251437 0.39433935 -0.9168361 
0.24662349 0.646418 -0.72202545 
-0.076666534 0.88445896 -0.4602766 
0.14152834 0.98734653 -0.07153129 
-0.25658065 0.9197955 -0.29688838 
0.15738323 0.8991289 -0.40840876 
0.48235196 0.7631683 0.4300124 
-0.32612205 0.41092607 0.8513426 
0.10071985 0.84885365 0.51894414 
0.01329803 0.9997846 -0.015938908 
-0.06363378 0.9713984 0.22877026 
-0.9138767 0.39920157 -0.07394282 
-0.6888571 0.7227229 0.05610395 
0.016468873 0.9996492 -0.020742275 
0.04539312 0.9803191 0.19213052 
-0.57483625 0.47432017 -0.6667711 
0.19175082 0.71138245 -0.67614096 
-0.006949929 0.49197075 -0.87058413 
0.21011896 -0.10566548 -0.97194904 
0.111281365 -0.4733183 -0.8738343 
0.06329375 -0.21430027 -0.974715 
0.60977495 0.44411194 -0.6564595 
0.48294464 0.67390245 -0.5591243 
0.3722888 0.9259672 -0.06313422 
0.84800506 0.51869804 -0.10881079 
0.9200327 0.3355865 0.20229074 
0.50047934 0.86511546 0.03310369 
0.27442223 0.35818473 0.8924103 
0.05818421 0.408444 0.91092706 
-0.12683943 0.09804156 0.9870662 
-0.2266194 0.22849563 0.9468017 
-0.3654802 0.30107418 0.88078296 
-0.3518688 0.7692144 0.53338313 
-0.8689478 -0.26287207 0.4193184 
-0.84801686 0.34181312 0.4050078 
-0.961877 0.11922187 -0.24612762 
-0.61033374 0.40416592 -0.68128026 
-0.47108036 -0.71916723 -0.5107659 
0.18610956 -0.6547404 -0.7325833 
0.4743613 -0.21677837 -0.8532225 
0.4188819 0.06448525 -0.9057481 
0.769832 -0.066248335 -0.63479906 
0.9860454 -0.02062572 -0.16519447 
0.28905526 0.9573003 -0.004824229 
-0.13899261 0.7441905 -0.65334654 
-0.11697006 0.8152229 -0.56721216 
0.37981898 0.89807206 -0.22181992 
0.43352664 0.76305056 -0.47938356 
0.878764 0.39289597 -0.27093658 
0.4795465 0.87462085 -0.071229674 
0.6894292 0.52278453 0.50138193 
0.90050685 0.12628484 0.41610053 
0.65974987 -0.30573633 0.68648046 
0.8106472 0.56389743 0.15770522 
-0.04064454 0.95290637 0.30052865 
0.54347456 0.66939604 0.5065022 
0.6752246 0.69127357 0.25731817 
-0.41215244 0.36105418 0.83652276 
-0.422323 -0.50712866 0.7513081 
-0.44847357 0.5000333 0.74083614 
-0.44796354 0.270224 0.85223687 
-0.014541035 -0.063349366 0.9978855 
-0.40103948 0.29870656 0.8659919 
-0.6956542 0.31159776 0.6472806 
-0.88440144 -0.16572274 -0.43631423 
-0.819961 -0.21277198 -0.5314058 