# OOMMF: rectangular mesh v1.0
# Segment count: 1
# Begin: Segment
# Begin: Header
# Desc: Time (s) :  3.3699999999999996e-07
# Title: m
# meshtype: rectangular
# meshunit: m
# xbase: 2e-09
# ybase: 2e-09
# zbase: 5e-10
# xstepsize: 4e-09
# ystepsize: 4e-09
# zstepsize: 1e-09
# xmin: 0
# ymin: 0
# zmin: 0
# xmax: 1.024e-06
# ymax: 1.024e-06
# zmax: 1e-09
# xnodes: 256
# ynodes: 256
# znodes: 1
# ValueRangeMinMag: 1e-08
# ValueRangeMaxMag: 1
# valueunit: 
# valuemultiplier: 1
# End: Header
# Begin: Data Text
-0.81661236 0.5216876 0.24695377 
-0.41763708 0.70527077 0.5728635 
-0.54758686 0.33152813 -0.7682693 
0.2831226 0.7480082 -0.60027117 
-0.021999778 0.27525997 -0.9611181 
-0.048125908 -0.47670355 -0.87774575 
-0.10899393 -0.2598087 -0.9594894 
0.22303568 0.79262644 -0.56744903 
0.0178308 -0.28650674 -0.9579123 
0.38202736 -0.4145462 -0.82595795 
0.2654198 0.20965625 -0.9410615 
0.09363806 0.008491835 -0.99557006 
-0.1029926 0.5444017 -0.8324778 
0.22884716 0.017240012 -0.97330976 
0.8461131 0.35385445 -0.39859733 
0.8952327 -0.43986088 -0.07128038 
0.7554604 -0.6260283 -0.19330886 
0.720447 0.58456534 -0.3731481 
0.67730594 0.57914674 -0.4537022 
0.8621511 0.5038095 0.053587236 
0.627027 0.77888095 0.0134764975 
0.89536595 0.40514183 0.18487853 
0.8728025 0.4073973 -0.26878095 
0.27687618 0.90899307 -0.31156272 
0.03348608 0.9897194 0.13904735 
-0.5286561 0.74208266 -0.41211173 
-0.61757696 0.45184883 -0.64376354 
-0.17351146 0.40150702 -0.8992697 
0.20269525 0.35450703 -0.91281956 
0.07369232 0.8265059 0.5580837 
-0.35202903 0.37415347 0.8579538 
0.18190804 0.98129904 -0.062942505 
0.4048971 0.88526744 0.22882318 
0.18571869 -0.30461457 0.9341941 
-0.8415217 -0.53978306 -0.021809224 
-0.82343334 -0.51764596 -0.23237938 
-0.04145856 -0.044555817 -0.99814636 
0.5198776 0.0072883773 -0.8542098 
-0.0022953826 -0.7290312 -0.6844766 
0.57397556 0.596284 -0.56124645 
0.7613998 0.568846 0.31094152 
0.6952317 0.7047054 -0.14157392 
0.43080905 0.83219165 -0.34908542 
0.54769295 0.8008842 0.24210964 
-0.6850485 0.7269135 0.048014347 
-0.6680694 0.7436916 0.024618907 
0.04738133 0.954689 -0.29380944 
0.12210001 0.85886854 -0.49742982 
-0.84481627 0.49856272 -0.19421835 
-0.86798155 -0.25191048 -0.42795944 
-0.2684714 -0.45711005 -0.84792316 
0.34650838 -0.2734857 -0.8972945 
-0.09722334 -0.515869 -0.85113263 
0.38902768 -0.0058926195 -0.9212073 
0.038312145 0.17385842 -0.9840252 
0.035962377 -0.43383297 -0.90027535 
0.5540142 0.67662877 -0.48501745 
0.91693515 0.35014892 0.19137876 
0.83971673 0.18676959 0.50989515 
0.3493365 0.8052769 0.47905448 
-0.6444841 0.54742956 0.53381765 
-0.4331552 0.46248475 0.77361774 
0.029940182 0.9632592 0.26689938 
-0.16064689 0.8112841 0.5621482 
-0.59196633 0.67239195 0.44437045 
-0.87218004 -0.48917708 -0.0028272665 
0.027975416 -0.98057055 0.19416206 
0.15196416 -0.9867837 0.056258414 
-0.098939046 -0.7850243 -0.6115129 
0.3029473 -0.5076109 -0.80656934 
0.51674277 -0.24233879 -0.82112664 
0.6498313 0.75105345 -0.11678164 
0.9435972 0.31850252 -0.090446696 
0.8110126 -0.039810274 0.5836726 
0.7866437 0.02724449 0.61680585 
0.22923695 0.8132836 0.5348085 
-0.16391751 -0.20122214 0.9657333 
-0.39252892 0.020532256 0.9195104 
-0.41314134 -0.3328043 0.84767663 
-0.31915143 -0.12003826 0.94007087 
-0.49599063 0.86729 0.042444006 
-0.90897745 0.40938005 0.07853786 
-0.8744498 0.47411028 -0.102747984 
-0.19427054 0.86559314 -0.4615273 
-0.4611788 0.3289313 -0.82408637 
-0.27822387 -0.110766836 -0.95410806 
-0.6602456 0.45684338 -0.5961292 
0.27313647 -0.17294075 -0.9463023 
0.45182866 -0.41139033 -0.79158634 
-0.084206685 -0.96462214 -0.24982673 
0.2703886 -0.6481221 -0.7119184 
0.4948385 -0.82723176 0.26612502 
0.40342396 -0.48035312 0.7787876 
-0.3656807 -0.58959997 0.7201733 
-0.2428893 -0.89869535 -0.36517346 
-0.8952364 -0.43997136 0.07054834 
-0.75461257 -0.6196558 -0.21583927 
-0.7689237 -0.2516321 -0.5877394 
-0.10330906 -0.29118556 -0.95107216 
-0.2691653 -0.38196513 -0.8841112 
-0.44319957 -0.34180993 -0.82869786 
0.06883573 -0.5372285 -0.8406231 
0.45579273 -0.643317 -0.6151393 
0.65307397 -0.7562371 -0.04000107 
0.7673199 -0.56961596 0.29454687 
0.7919469 -0.60038143 0.11118615 
0.46691263 -0.44563526 0.7638074 
0.95093286 0.18023062 0.25148273 
-0.20231403 0.7217525 0.66192317 
0.32514617 0.48072505 0.81436074 
0.90562165 0.42316297 0.027975516 
0.11979308 0.7034176 0.70060927 
-0.1774264 0.5927699 0.78558505 
0.24891979 0.8717069 0.42209706 
-0.40072286 0.87972146 0.25595203 
-0.538682 -0.5189076 -0.6637444 
-0.84587115 -0.40880826 -0.3426046 
-0.67137533 -0.670025 0.31673604 
-0.30774584 -0.91249764 -0.26951924 
0.32446292 -0.4669206 -0.8226232 
0.67234975 -0.05568357 -0.73813635 
0.06925431 0.30592406 -0.9495337 
0.72508794 0.40406165 -0.5576574 
0.8853947 0.39019194 0.25263932 
0.28579372 -0.16575514 0.94384706 
0.1875097 0.39922637 0.89747345 
-0.086982965 0.6751803 0.7325064 
-0.6956294 -0.41316926 0.5876998 
-0.5944963 0.6618921 0.45658857 
-0.72721493 0.68616897 0.018183254 
-0.4429075 0.5996465 0.6665262 
-0.78159785 0.42465118 0.45692033 
-0.20745786 0.97784764 0.027842397 
0.2768677 0.812068 -0.51370215 
0.5474353 0.79051256 -0.27459884 
0.2550788 0.95634776 0.1425968 
0.3609443 0.41974717 0.8327855 
-0.65046024 -0.13949533 0.74662083 
-0.6769431 0.71867514 -0.15891576 
-0.66915756 0.73564273 0.10515665 
-0.3122561 0.63570416 -0.70595783 
-0.12584539 0.48511985 -0.8653448 
-0.48233905 0.13086449 -0.86615455 
-0.6142946 0.7733167 -0.15691862 
0.64565223 -0.26901966 -0.71467596 
0.52447295 -0.2020808 -0.8270983 
0.9563383 0.050184015 -0.2879214 
0.7733667 -0.24318725 -0.5854604 
0.86214566 0.50491935 0.04196772 
0.9904325 0.13784803 0.006444374 
0.7041355 0.28207684 0.6516333 
0.52431786 0.74872285 0.40559223 
0.502605 0.29329932 -0.81324285 
0.2095256 0.82364976 0.5269726 
0.14699464 0.89074844 0.4300697 
-0.29362595 0.7888495 -0.5399079 
0.92281437 0.3822567 -0.04788968 
0.19166808 0.78799886 0.5850823 
-0.23844302 0.75927275 0.60551625 
-0.280464 0.56145996 0.778526 
-0.53340435 0.08109558 -0.84196395 
-0.0926844 0.05382669 -0.99423957 
-0.19461817 0.11388207 -0.9742458 
0.20317033 0.7450441 -0.63531977 
-0.6071536 0.7484347 -0.2668522 
-0.34531084 0.6154226 -0.7085305 
-0.65861833 -0.06267241 -0.74986273 
-0.1252347 -0.1424575 -0.98184633 
-0.021024462 -0.47341838 -0.88058674 
0.45672765 0.19221376 -0.8685929 
0.75437593 0.6562028 -0.017744837 
0.9705182 -0.13837913 -0.19734678 
0.97214264 -0.17139049 0.15988788 
0.62357855 0.013578316 0.7816428 
0.6672792 -0.6640382 0.33733055 
0.6309203 0.24446507 0.7363264 
0.2526206 0.013719575 0.9674682 
0.28121334 0.0058719134 0.9596274 
0.44523218 -0.70645374 0.550174 
0.9153354 -0.40243515 0.0143915685 
0.7942156 0.37735057 0.47626495 
0.50236374 0.15120801 0.8513324 
0.03810097 0.09986634 0.99427116 
-0.4107229 0.35995418 0.8376992 
-0.6852607 0.18576035 0.7042094 
-0.40650484 0.5481515 0.7309472 
-0.10264211 -0.06132477 0.9928263 
-0.8537805 -0.20004638 0.4806665 
-0.47916856 0.833002 0.27659583 
-0.15966381 0.86933607 0.46772018 
-0.62836236 0.7499884 -0.20658734 
-0.99459785 0.04184225 -0.09499719 
-0.69627225 -0.05401969 -0.71574223 
-0.60452056 -0.31663474 -0.73095655 
-0.21075101 -0.976245 -0.05029888 
0.010692796 -0.496947 -0.86771506 
0.8808672 0.42275354 -0.21296154 
0.834617 0.536606 -0.12437263 
0.8280297 0.3865784 0.40610847 
0.9803318 0.086715914 0.17728488 
0.5086759 -0.17262612 0.84347445 
0.23885578 0.23977105 0.9409877 
0.5961048 0.4112017 0.6896176 
0.48944122 0.2531284 0.83448994 
0.21472377 0.31742117 0.9236545 
0.49209255 -0.47993305 0.7262983 
0.534854 0.20252642 0.8203136 
0.7590716 -0.05752291 0.6484609 
0.0022399917 -0.053809512 -0.99854875 
0.24014674 0.4631602 -0.8531192 
-0.05751812 0.99832565 -0.006141528 
-0.58973277 0.7941611 0.14670898 
-0.6692665 0.73071474 -0.13467897 
-0.43728724 0.52955484 -0.72687805 
-0.6058952 0.7859231 0.12335232 
-0.6995022 0.609754 0.37268838 
-0.30909 0.6463732 -0.6976139 
0.39641166 0.8916853 -0.21852963 
0.04569267 0.96808994 -0.2464024 
-0.52628356 0.56440216 -0.63598424 
-0.6922225 -0.6026912 -0.396978 
-0.46820152 0.3278825 -0.8205366 
0.3093181 0.41039678 -0.85784423 
0.27123225 0.17998868 -0.9455354 
0.9056688 -0.004869352 -0.423958 
0.8203606 0.4521134 -0.3501456 
0.41334707 0.9026287 0.120023645 
0.013388297 0.6255924 0.78003526 
0.42755023 0.772371 0.46972746 
-0.6662948 0.699793 0.2575675 
-0.31145287 0.6200208 -0.72011906 
-0.056296483 -0.55387133 -0.83069694 
0.7203118 0.0052057835 -0.69363093 
0.44864705 0.742453 -0.49747303 
0.65999746 -0.45755923 -0.59585476 
0.48488015 -0.1655567 -0.8587679 
0.5341872 -0.78791255 0.30632946 
0.9010586 -0.13927896 0.41072494 
0.89893615 -0.08517247 -0.42972034 
0.7790881 -0.27315277 0.5642777 
0.10701732 0.5632465 0.81932956 
0.455826 0.4399385 0.773742 
-0.47634268 0.31349003 0.8214753 
0.1944239 -0.09287999 0.97651047 
-0.045655042 -0.17824958 0.9829256 
-0.35095614 0.12439702 0.9280923 
0.09206116 -0.42008537 0.9028029 
-0.1669737 0.47317183 0.8650019 
-0.4737622 0.241224 0.8469713 
0.23914455 -0.11135184 0.964578 
-0.5112599 0.7191197 0.47061673 
-0.24096887 0.56876874 0.7864072 
0.24018332 0.8316243 0.5007125 
-0.2117633 0.74799824 0.62901115 
-0.27395368 0.07406046 0.95888716 
-0.8617725 -0.49213776 -0.12307958 
-0.50675595 0.49036708 0.70904064 
-0.4022998 0.75488615 0.51797867 
-0.50077605 0.7558157 -0.42186043 
-0.67850107 0.1150416 -0.7255356 
0.11086944 0.7870305 -0.6068699 
0.46206006 0.17586969 -0.86923546 
0.2793281 0.6422635 -0.7137741 
-0.014538535 0.63985974 -0.7683542 
0.3869634 -0.014775831 -0.92197675 
0.27839118 -0.30610555 -0.91038334 
0.41050705 0.3505066 -0.8418011 
0.7768422 -0.026145998 -0.6291523 
0.21211058 0.38446465 -0.898441 
0.38293427 0.26252276 -0.88568795 
0.49644366 0.7601252 -0.4192294 
0.9946575 -0.0730843 -0.07290498 
0.862898 0.4937104 0.107967705 
0.6142536 0.78893816 -0.016407732 
0.4806311 0.86464304 0.1462405 
0.71188915 0.53295356 -0.45735595 
0.7768285 0.31613314 0.54460746 
0.6251609 0.67262346 0.39591882 
0.28592005 0.9464208 -0.15012524 
0.37412012 0.925192 -0.06367137 
0.25449538 0.94444263 -0.20799115 
-0.34678018 0.9339757 -0.08621534 
-0.03670955 0.6923821 -0.7205967 
-0.26246732 0.74428123 -0.61413056 
0.27582604 0.8662867 -0.41649437 
0.5711171 0.7382737 0.3588555 
0.3720811 0.7579826 0.5357406 
0.30505246 0.94563675 -0.11275755 
0.05986509 0.10429539 0.9927431 
-0.5014815 0.73163444 0.4617656 
-0.98377603 0.13765056 0.11505271 
-0.7831189 0.01669435 -0.6216479 
-0.14774568 -0.911586 -0.38364336 
-0.22315903 -0.6180862 -0.7537703 
0.6203105 -0.43036804 -0.65574265 
0.6415571 -0.059115853 -0.764794 
0.78960675 0.18697233 -0.5844335 
0.68816596 0.6934644 -0.21338901 
0.70144707 0.7103525 0.058064 
0.6548549 0.59309846 0.46840096 
-0.0045024357 0.9635844 -0.26736638 
0.387049 0.7863849 -0.4814479 
-0.7908644 0.60999024 -0.049450964 
-0.32227376 0.9156599 -0.24022207 
-0.89171463 0.4258327 -0.15333532 
-0.9442552 -0.22670802 -0.23871689 
-0.23771721 0.5421728 -0.80594003 
-0.39132422 0.4027614 -0.8274349 
0.38501376 -0.42279795 -0.82036966 
0.39077386 -0.07231938 -0.9176414 
0.4027334 0.40719852 -0.81975305 
0.61227894 0.61225307 -0.5002607 
0.9622791 0.04747828 -0.26788977 
0.8293051 0.5224497 -0.1982407 
0.3483489 0.8902792 0.29335317 
-0.061687972 0.52738154 0.84738624 
0.12095448 -0.14724925 0.9816759 
-0.4143218 0.1688218 0.8943359 
-0.13570605 0.16573174 0.9767891 
-0.788893 0.6061577 0.10109741 
-0.86594594 0.04504496 0.49810502 
-0.6459811 0.38673824 0.65813535 
-0.29883692 -0.8355083 -0.46111003 
0.06781172 -0.60596156 -0.7925985 
0.32178363 -0.15969229 -0.933249 
0.50150764 -0.001360711 -0.86515224 
0.7772108 0.29987112 -0.5531915 
0.8834583 0.31469402 0.34708673 
0.91481626 -0.095536776 0.3924078 
0.5518578 0.22480811 0.80306566 
0.880632 0.39511606 0.26147804 
0.45605364 0.5052744 0.73260695 
0.28871906 -0.57956415 0.7620674 
-0.33079356 -0.15316546 0.93119067 
-0.5309198 0.50527006 0.6803134 
-0.6782458 0.6980432 0.22960496 
-0.540006 0.53243876 0.65184546 
-0.9198806 0.3920798 -0.009659069 
-0.52602255 0.8496126 -0.03819326 
-0.23470585 0.971187 0.041339815 
-0.51103413 0.8581857 -0.048594587 
-0.09516456 0.4960823 -0.8630447 
-0.16282333 0.47147733 -0.86671674 
0.004034749 0.47419137 -0.8804126 
-0.047746304 -0.09443048 -0.99438584 
-0.12191308 -0.15902168 -0.979719 
0.11881625 -0.65320945 -0.74779695 
0.5586582 -0.6768154 -0.47939748 
0.46634328 -0.7457603 -0.47577882 
-0.0076504922 -0.99671924 0.08057502 
0.2898783 -0.536611 0.79247665 
-0.8399006 -0.2274457 0.49278334 
-0.8539177 -0.47977108 0.20160444 
-0.763743 0.5999651 0.23819865 
-0.6696851 0.03623061 -0.74176085 
0.2126783 -0.5034199 -0.8374584 
0.19601135 -0.06832357 -0.9782185 
0.3964082 -0.48980075 -0.7765024 
0.97523296 -0.11221482 -0.1906003 
0.6606812 -0.7218649 -0.20594062 
0.640549 -0.75892925 0.11714678 
0.99307954 -0.10578666 0.051012572 
0.7432889 -0.6688769 -0.011200481 
0.5169026 -0.398606 0.75757843 
-0.53418887 0.3210587 0.7820254 
-0.08117419 0.52285033 0.8485508 
0.36486053 0.87493527 0.31837898 
0.41408804 0.64524657 0.6420187 
-0.21226822 0.027800713 0.97681594 
-0.16800074 0.67808276 0.71552753 
-0.8375891 0.5110357 0.19309883 
-0.8902896 0.27606452 -0.362178 
-0.76571536 -0.3660352 -0.5288651 
-0.9290432 0.16484363 -0.3312182 
-0.9189713 -0.19205421 -0.3443936 
-0.78460246 0.13335636 -0.6054876 
-0.36111036 0.34755573 -0.86533487 
0.040833607 0.34411415 -0.9380395 
0.19060571 0.29886287 -0.9350671 
0.4427797 0.74579114 -0.49773672 
0.50052327 0.8504618 0.16183753 
0.14155743 0.41235393 0.89995885 
-0.13447273 0.5155591 0.8462363 
-0.35658935 -0.291265 0.8876986 
-0.36107016 0.31729436 0.87689954 
-0.6875721 0.30245537 0.66012526 
-0.2994078 0.3347798 0.89346385 
-0.74145144 0.61223054 0.27463344 
-0.8631768 0.41988653 0.2803946 
-0.18980455 0.96168983 0.19780561 
0.067213215 0.38092214 0.92216086 
0.27781337 0.61587673 0.7372351 
0.6067984 0.2784572 0.74448466 
0.28766504 0.47623065 0.8309352 
-0.3324368 0.82067275 0.46473885 
-0.73237556 0.5852736 -0.3479669 
-0.610387 0.36652195 -0.7022032 
-0.3420027 0.5097652 -0.78941345 
-0.49129984 0.7910121 -0.3645879 
-0.634461 0.77003145 -0.067163564 
-0.25561327 0.77418685 -0.5790481 
-0.57618994 0.59767485 -0.5574854 
0.95285285 -0.27001372 -0.13843457 
0.99999046 -0.003372187 0.0027916795 
0.9299103 0.20575134 0.3048497 
0.87347114 0.476826 0.0984126 
0.5593153 0.81650925 0.14310484 
0.8511664 0.5171175 -0.09002892 
0.5005783 0.77999955 -0.37552902 
0.49864927 0.6638765 0.55733025 
-0.031537566 0.74606246 0.66512877 
-0.007141049 0.9939416 0.109677166 
0.69212806 0.232979 0.68313944 
-0.3343787 -0.06253627 0.9403617 
-0.33170274 0.17918448 0.92621076 
-0.3217103 -0.2565831 0.91140974 
-0.6096517 0.51716703 0.6007189 
-0.7018793 0.6796012 0.21332559 
-0.7857949 0.42869997 -0.44580564 
-0.83910817 0.5327956 -0.10966482 
-0.69073874 0.67621887 -0.25614062 
-0.80833256 0.46212777 -0.36474174 
-0.63027644 0.6339393 -0.44818813 
-0.65935755 -0.058533788 -0.74954754 
0.14153059 0.18462023 -0.97256595 
0.31503442 0.17542884 -0.9327262 
0.9512362 -0.1986702 0.23596595 
0.7471338 -0.5041122 0.43319976 
0.65864134 -0.7147864 0.23509997 
0.8994 -0.4249132 -0.102608174 
0.9257216 -0.35302088 0.13570505 
0.26546702 -0.8897781 0.37124416 
0.7616574 0.042284966 0.6465989 
0.7643449 0.27047306 0.58533865 
0.5511664 0.7685748 0.3248206 
0.7062906 0.18095656 0.68440366 
0.80620337 0.30320236 0.5080399 
0.17903915 0.28974766 0.94020814 
-0.00057606737 -0.14417268 0.9895524 
0.024153478 -0.19068635 0.9813539 
-0.6426003 -0.1889028 0.7425501 
-0.10172843 0.7400695 0.6647921 
-0.5700438 -0.64956874 0.50310105 
-0.36635292 -0.68867445 0.62571007 
-0.3087516 -0.7849894 0.5370886 
-0.57903564 0.47393373 0.66340387 
-0.9417678 -0.13281438 0.3089236 
-0.96735233 0.0040827133 0.25340268 
-0.2864416 -0.06828426 -0.95566136 
0.2872075 -0.3799359 -0.8792956 
0.3627826 0.0456624 -0.93075436 
0.71001995 0.13040449 -0.69200176 
0.90312564 -0.21769245 0.37010014 
0.7764026 0.30441195 0.55184466 
0.23607187 0.05931658 0.96992356 
-0.21161826 0.1967074 0.95735264 
-0.031553395 0.09519857 0.99495816 
0.10308389 0.277488 0.9551828 
0.28865582 0.1732121 0.9416344 
0.68638504 0.13276969 0.715016 
0.7627941 -0.18887123 0.6184439 
0.51094747 -0.54887 0.6615697 
0.80267453 0.08347984 0.5905461 
0.9238429 0.38159814 0.029952345 
0.27441722 0.4475423 -0.85111755 
0.51476854 0.85015416 0.11068514 
-0.19374475 0.81269115 0.5495418 
-0.5573779 0.46546158 0.68751407 
-0.94432336 0.32900047 -0.0034924846 
-0.811051 0.56897295 -0.13589048 
-0.2152984 0.9743486 -0.06551021 
-0.28598043 0.9235618 0.25543845 
-0.58418834 0.6572807 -0.47613668 
0.25213334 0.95148647 -0.17635848 
-0.4177654 0.90638334 -0.06277972 
0.45585722 0.7125291 -0.5333822 
0.059245277 -0.004435264 -0.9982336 
-0.14182398 0.29483134 -0.9449659 
-0.04202939 0.9869317 -0.15556212 
0.41092333 0.35293147 -0.8405839 
0.7365642 0.4862117 -0.4701822 
0.90323097 0.42451292 -0.06294978 
0.58705384 0.6669903 0.4587939 
-0.38045365 0.33016008 0.8638573 
-0.32934868 0.70245206 0.63094425 
-0.6192666 0.7182103 0.31730574 
-0.7226241 0.3528562 -0.5943963 
-0.34038907 0.7554936 -0.55978984 
-0.48693085 0.8496631 -0.20241316 
0.02782339 0.8779927 -0.4778647 
0.5656235 -0.0825697 -0.8205196 
0.35535172 0.17173353 -0.9188214 
0.4108945 -0.2714549 -0.8703322 
0.9573201 -0.21833543 -0.1893882 
0.8049634 -0.0799802 0.58790904 
0.43880162 -0.55882293 0.70368326 
0.3490624 0.84575903 0.40354308 
0.67320484 0.5891336 0.4468969 
-0.14480336 -0.3338009 0.9314554 
-0.18454894 -0.11301717 0.9763037 
-0.32149163 0.31224173 0.8939509 
-0.87475836 0.05457086 0.48147666 
-0.24318826 -0.5577431 0.79358816 
-0.06696686 -0.4238867 0.90323615 
0.082303815 0.62028253 0.78004855 
-0.33918715 -0.17129974 0.9249911 
-0.59798044 0.07677576 0.7978251 
-0.12111324 -0.07806461 0.98956436 
0.6338315 0.27400854 0.72330976 
0.33462667 0.45218706 0.826772 
0.20992033 0.2982295 0.93112445 
0.05035202 -0.4495413 0.8918393 
0.0429437 0.74570966 0.66488564 
-0.30369464 0.9527125 0.010413489 
0.018318065 0.853697 -0.5204478 
-0.21702202 0.23507997 -0.94743806 
-0.39121732 0.2613472 -0.88240963 
-0.07816863 0.1767254 -0.98115134 
0.5492027 0.45008978 -0.70412755 
-0.1760492 0.9590672 -0.22180334 
-0.11734227 -0.49925652 -0.8584718 
0.20014231 0.33730176 -0.9198753 
0.4828283 0.312064 -0.81822544 
-0.119436614 0.17937537 -0.97650373 
0.664592 0.12767239 -0.7362182 
0.67786455 0.7346644 0.027713478 
0.7296071 0.4536097 0.5117731 
0.9514545 0.2951429 -0.08732114 
0.9266771 0.049318634 0.3726088 
0.98425776 -0.15865391 0.077882744 
0.869931 0.4026695 0.284741 
0.99790716 0.05288458 -0.037209198 
0.4364615 0.23490798 0.8685158 
0.78173524 0.622812 0.03154976 
0.5776607 0.8020599 0.15168451 
0.34214917 0.7826527 0.5199892 
-0.16121016 0.8607548 0.48281735 
-0.50281876 0.8066338 -0.31066942 
-0.72025436 0.6492808 0.24427074 
-0.15554366 0.8102745 -0.5650323 
0.6101982 0.7091488 -0.3532227 
0.99134916 -0.10899349 0.07312552 
0.43738064 0.63765794 0.6341061 
-0.038379144 0.9971611 -0.0647845 
0.06212481 0.7930439 0.6059883 
-0.016900033 0.3724605 0.9278941 
-0.79837954 0.56860995 0.19817352 
-0.895842 0.0603974 -0.44024915 
-0.46950787 -0.08883374 -0.87844807 
-0.27075717 0.037320185 -0.9619241 
0.43122417 0.18078233 -0.88394773 
0.7276571 -0.11552801 -0.67614233 
0.56720454 0.5198281 -0.638794 
0.4625841 0.49015322 0.7387597 
0.42211604 0.72158396 0.5487575 
-0.27191415 0.58307946 0.76555926 
-0.3820009 0.6393945 0.66727066 
0.07260649 0.09111234 0.9931902 
-0.7024641 0.6163215 -0.35593835 
-0.52999234 0.83770925 0.13172401 
-0.33617625 0.9364703 -0.100044295 
-0.64990556 0.71385974 0.26082006 
-0.5586636 0.40240255 -0.72523594 
0.14263077 0.6051591 -0.7832234 
-0.117522486 0.15534507 -0.9808448 
0.13049613 0.37696886 -0.916987 
0.38628823 0.5612528 -0.73196775 
0.33489618 0.6319744 -0.69889414 
0.88732743 0.39820272 -0.23256148 
0.7454672 0.0034081566 -0.66653365 
0.8599983 0.004442062 0.5102776 
0.27526587 0.3806753 0.8827882 
0.340971 0.6128601 0.7128403 
0.056423996 0.29889363 0.952617 
-0.07075558 -0.23619092 0.96912724 
-0.14109519 -0.5187432 0.8432068 
-0.033109967 -0.5353916 0.8439548 
-0.69566655 -0.7154787 -0.06432899 
-0.49849758 -0.7259814 -0.47376278 
-0.24997453 -0.36469647 -0.89694434 
0.56665087 -0.48173508 -0.66845965 
0.22776635 -0.48788345 -0.8426697 
0.41095227 -0.8395096 -0.35544616 
0.8585346 -0.4402514 -0.2628633 
0.6164729 0.21774027 0.75667053 
0.60063535 -0.5103238 0.6154729 
0.80597615 -0.17700727 0.5648637 
0.33769965 -0.059915595 0.9393451 
0.4461347 -0.2520882 0.8587289 
0.16317189 -0.14003727 0.9766087 
-0.16031039 0.3394756 0.9268533 
-0.20599006 0.7256648 0.65648973 
-0.1598543 0.5686546 0.80689436 
-0.09360921 0.9143123 0.39404356 
0.20724058 0.9500431 0.23338692 
0.13168971 0.9893888 0.061380662 
-0.047904715 0.85386544 0.51828474 
-0.22992037 0.8264219 -0.5139683 
-0.2698262 0.43534437 -0.8588767 
0.33592364 0.5831697 -0.7396408 
0.22674125 0.7211817 -0.65458804 
0.27974665 -0.023068456 -0.9597967 
0.35482538 0.13784622 -0.9247148 
0.016012985 -0.023376502 -0.99959856 
0.331209 -0.22452366 -0.91645503 
0.745058 -0.5347347 -0.39868197 
0.52612156 -0.47105944 -0.70802486 
-0.11822052 -0.7434463 -0.65826404 
-0.27373362 -0.75224054 -0.5993364 
0.38741145 -0.43286937 -0.8139635 
-0.68899477 -0.38965505 -0.6111099 
0.2807077 0.357127 -0.890878 
0.38942164 0.1415106 -0.91012394 
0.5718083 0.2415227 -0.7840295 
0.6209428 -0.19658992 -0.75880337 
0.9064743 -0.3215378 -0.27371144 
0.049581196 -0.74948245 -0.66016495 
0.75627387 -0.2014996 0.622453 
0.6258131 0.5842454 0.5167353 
0.21730965 0.41970995 0.8812606 
0.38847965 -0.10974496 0.9148987 
0.0050465525 0.6273447 0.77872527 
-0.21292697 0.44297278 0.87088305 
0.22941935 -0.22360939 0.9472938 
0.139181 -0.015500185 0.9901456 
0.22171874 0.20169877 0.9540223 
-0.62565213 0.63818276 0.4486449 
-0.8063823 0.21538062 -0.5507802 
-0.39615068 0.4230266 -0.81493145 
-0.7086568 0.19861467 -0.6770213 
-0.73782223 0.29916304 -0.6050784 
-0.45863008 0.6566475 -0.59872586 
-0.91520065 -0.03510879 -0.40146622 
0.09007231 0.83821493 -0.5378502 
0.3171709 0.9217032 0.2233068 
-0.13848217 0.9867591 0.084434755 
0.45234886 0.5744865 0.6821627 
0.15974432 0.38749352 0.9079266 
-0.12377112 0.29442084 0.94762707 
-0.35312432 0.18121982 0.9178576 
-0.79227436 0.5307482 0.3010114 
-0.83845496 0.35871133 0.41026756 
-0.507442 -0.38624412 0.7702715 
-0.26733258 0.010768393 0.96354413 
-0.58442163 0.67133886 0.45580208 
-0.12111287 0.9409906 0.31601948 
0.24778982 0.80873144 0.5334358 
0.1252456 0.51660746 0.8470126 
-0.37385148 0.65044016 0.6611829 
-0.5992925 0.7959622 0.085397966 
-0.23556164 0.77115905 0.59145963 
-0.9592088 0.2369569 -0.15417542 
-0.11309048 0.7506767 -0.6509188 
-0.56853354 0.3811707 -0.72902584 
0.13527298 0.7223783 -0.6781377 
-0.6485707 0.7523701 -0.115305774 
-0.35546544 0.9051018 -0.23331355 
0.07423144 -0.095166914 -0.9926898 
0.9770198 -0.1263862 -0.17163612 
0.6400153 -0.75382835 0.14873914 
0.9975674 -0.047668733 0.050862998 
0.95402896 0.2797354 -0.10759578 
0.9053427 0.0100190295 0.42456385 
0.19052802 0.15408626 0.9695136 
0.2715126 0.8980402 0.34612843 
0.62048054 0.73185694 0.28176132 
0.8234502 -0.056889042 0.5645295 
0.243807 0.05986458 0.96797436 
-0.080055654 -0.43002656 0.8992599 
-0.24597119 0.29683107 0.92270774 
-0.5225165 -0.19014041 0.8311578 
-0.14306095 0.13843066 0.97998506 
-0.6528242 0.7277303 0.21030766 
-0.90413475 0.30520985 -0.29897705 
-0.9937571 -0.05749492 -0.0956101 
-0.80500984 -0.28416607 -0.5207771 
-0.81439614 0.3437413 -0.4675477 
-0.5511894 0.733598 -0.39752254 
-0.005568832 0.80981004 -0.5866658 
-0.39705396 0.119740024 -0.90995085 
-0.2467162 0.28892216 -0.92501634 
0.7000433 0.05267821 -0.71215475 
0.91749275 -0.27560812 -0.28678784 
0.56505287 -0.82505006 0.002786446 
0.9349686 -0.3022704 -0.18565142 
0.98938984 -0.1393895 -0.040968157 
0.94831866 0.04425637 -0.31421822 
0.92835504 -0.2183998 0.30076313 
0.9217229 -0.25874516 -0.2889255 
0.9856168 0.16314998 -0.044063315 
0.85221404 0.36612433 0.3737434 
0.6084396 0.015273257 0.7934533 
0.48575717 -0.21581666 0.84703195 
-0.012123604 -0.7797019 0.62603366 
0.3986782 -0.684569 0.6102631 
0.4190469 -0.6144921 0.6684303 
-0.21207495 -0.6772016 0.7045723 
0.02074253 0.48208177 0.8758807 
-0.6908672 -0.07006029 0.71957916 
-0.3204532 -0.5089467 0.7989262 
-0.08656659 -0.41275403 0.9067195 
-0.6589976 -0.22704637 0.71705794 
-0.75854146 -0.27695423 0.5898402 
-0.8382172 -0.51025647 -0.19243225 
-0.6511333 -0.054230396 -0.75702345 
0.0332027 -0.52525866 -0.85029465 
0.027519768 -0.9031426 -0.42845803 
0.6721435 -0.63556635 -0.37984034 
0.96874934 0.10520212 -0.22462712 
0.5362576 0.49950063 0.6803873 
0.3434484 -0.032139312 0.9386215 
0.4053293 -0.068016455 0.91163707 
0.10267377 -0.31845066 0.94236267 
0.2419127 -0.14482462 0.95942914 
-0.09836155 0.102234215 0.98988545 
0.26820284 -0.17804818 0.9467662 
-0.13032143 0.094729014 0.9869361 
0.77243096 0.087869786 0.62899065 
0.6169773 0.42514396 0.66226256 
0.62739784 0.57937837 0.5202814 
0.7180099 -0.005260802 0.69601303 
0.6500491 0.69716275 0.30232495 
-0.111885734 0.3795601 0.91837674 
-0.7513241 0.62469184 0.21277246 
-0.6392941 -0.11163442 0.760816 
-0.9743643 0.12471992 0.1872409 
0.14440247 0.97686523 0.15774114 
0.16599303 0.9770441 0.1335339 
-0.1635219 0.9814057 0.10051664 
0.37364247 0.92744505 -0.015396385 
-0.010516507 0.9351204 -0.35417423 
-0.510499 0.81650996 -0.26963395 
-0.5351564 0.7024876 -0.46916825 
-0.28495187 0.7398268 -0.60947424 
0.026436362 0.6969552 -0.71662724 
0.20632218 0.95780915 -0.2000818 
0.37941557 0.6012116 -0.7032699 
0.46542537 0.8408017 -0.27646285 
0.18424878 0.9768312 -0.10887312 
-0.64059424 0.6162859 0.45807284 
-0.49180928 0.8704477 -0.021085087 
-0.88948554 0.45445108 -0.047852106 
-0.43530175 0.51960605 -0.735202 
-0.03353375 0.8476029 -0.52957046 
-0.70782584 0.5688955 -0.41873682 
0.061537813 0.20014143 -0.97783256 
0.19858664 -0.3435138 -0.9179115 
0.58065546 0.6120414 -0.53688425 
0.8078991 -0.252291 -0.5325864 
0.84540236 -0.5340773 0.0075024883 
0.289033 0.4288045 0.85591274 
0.4469673 0.48703378 0.75034547 
0.32574657 0.5291918 0.78348285 
0.09307761 0.6422932 0.7607864 
0.1580826 -0.89162284 0.42428628 
-0.67545646 -0.18758532 0.7131412 
-0.20950937 -0.21393748 0.95411557 
-0.77762437 0.11899159 0.6173665 
-0.16378321 -0.53033876 0.8318149 
-0.031439718 -0.6750716 0.73708206 
0.321642 0.4324231 0.84235185 
-0.0058550504 0.3696251 0.9291626 
-0.2312348 0.45610103 0.8593615 
0.09323374 -0.03938228 0.99486506 
0.39034232 0.041163187 0.91974914 
-0.10520685 0.23674382 0.96585923 
0.85109967 0.20066218 0.48514333 
0.38033876 -0.4608975 0.8018205 
0.32105732 0.23231953 0.918123 
-0.6445287 0.6008774 0.47278872 
-0.8795802 0.23484124 -0.41374913 
-0.9599891 0.25910905 -0.1062239 
-0.5929496 0.43348718 -0.67860126 
-0.23568223 0.06005863 -0.96997267 
0.7831942 0.1281574 -0.60842633 
-0.16097338 0.92893225 -0.3334256 
0.1068826 0.6709899 -0.7337225 
0.4407342 0.26566193 -0.8574247 
0.36462486 0.40444168 -0.8387347 
0.068058304 0.13559073 -0.98842466 
0.46517476 0.40419564 -0.78755224 
0.5192189 0.8435918 -0.13698392 
0.72403735 0.15341729 0.67248285 
0.711377 0.60630065 0.3554466 
0.51292485 0.7562324 0.4062273 
0.6901038 0.69880354 -0.18822956 
0.94168735 0.13477361 0.30831984 
0.61049545 0.05638859 0.7900099 
0.559663 0.22302084 0.7981472 
0.94128054 -0.014324901 0.33732143 
0.9963223 0.036012135 0.07774984 
0.45102593 0.69729924 0.55709016 
-0.5697868 0.601336 0.5601233 
-0.6516367 0.5230135 0.5493874 
-0.7140324 0.6666708 0.21379401 
-0.29777062 0.3935605 -0.86973727 
0.48061553 0.45884427 -0.74730897 
0.2872885 0.9116273 0.29394063 
0.33648857 0.7770191 0.5319932 
0.024091953 0.91003823 0.4138235 
-0.08444782 0.5082276 0.85707265 
-0.59492016 0.3862166 0.7049161 
-0.7527859 0.5455803 0.3683146 
-0.6079244 -0.3555313 -0.7099476 
-0.759433 -0.49375036 -0.42364153 
-0.49846953 0.582774 -0.6417964 
-0.25166792 0.47477576 -0.8433572 
0.78408426 0.6154639 -0.08010036 
0.5849441 0.723962 -0.36567685 
0.38403323 0.7634288 0.5193217 
0.32545376 0.72187614 0.6107166 
-0.0818642 0.5267848 0.8460474 
-0.07962822 0.56498516 0.8212497 
-0.5338669 0.2897529 0.7943737 
-0.7628981 0.48988605 -0.42189834 
-0.19806169 0.966093 -0.16563775 
-0.76649624 0.64095056 0.04081681 
-0.5563401 0.03516454 0.83021027 
-0.9636479 -0.008507981 -0.26704022 
-0.00524649 -0.27808055 -0.96054345 
0.3402926 0.3201414 -0.8841439 
0.03418901 0.9873886 -0.15457962 
0.3293519 0.82059336 -0.46706945 
0.41876012 0.8305948 0.36708623 
0.73788303 0.67479557 -0.013402061 
0.5974699 0.57836014 0.55545413 
0.65158015 0.5749248 0.4948786 
0.303663 0.23903446 0.9223076 
0.63129056 0.13551947 0.76361424 
-0.07071472 -0.07060155 0.99499494 
-0.90964353 -0.2423866 0.33733866 
-0.3653766 -0.9171587 0.15912226 
-0.5003625 -0.8020445 -0.3261319 
-0.9095983 -0.34969583 -0.22437438 
-0.5940029 -0.8043221 -0.0150518045 
-0.05095758 -0.87327814 -0.4845499 
0.29364443 -0.931673 -0.21391231 
0.5470653 -0.5454192 -0.6350098 
0.8016331 0.16147868 -0.57559454 
0.7953182 0.05390743 -0.6037906 
0.7642732 -0.14810339 0.6276558 
0.82718635 -0.38989002 -0.40465868 
0.47967294 -0.51577204 0.7098543 
0.49497902 -0.036147207 0.8681528 
0.06618632 -0.14589192 0.98708415 
-0.17096715 -0.1538325 0.97319365 
-0.5028603 -0.04809493 0.86302865 
-0.22642511 0.23972528 0.94406754 
-0.26288575 0.08117404 0.96140623 
0.04428944 0.68485403 0.7273331 
-0.23034558 0.29992014 0.92573696 
-0.7151403 0.2597829 0.6489124 
-0.72723347 0.6379375 -0.25331268 
-0.7314575 -0.029817356 -0.68123484 
-0.45057178 0.23671448 -0.8607853 
0.38433412 0.31623125 -0.8673438 
0.18248256 0.7304732 -0.6581102 
-0.37274888 0.104554035 -0.92202324 
0.26417968 0.5405446 -0.798762 
0.801823 0.15118214 -0.578121 
0.41170993 0.017117394 -0.91115427 
0.32981998 -0.060699023 -0.94209045 