# OOMMF: rectangular mesh v1.0
# Segment count: 1
# Begin: Segment
# Begin: Header
# Desc: Time (s) :  3.5200000000000003e-07
# Title: m
# meshtype: rectangular
# meshunit: m
# xbase: 2e-09
# ybase: 2e-09
# zbase: 5e-10
# xstepsize: 4e-09
# ystepsize: 4e-09
# zstepsize: 1e-09
# xmin: 0
# ymin: 0
# zmin: 0
# xmax: 1.024e-06
# ymax: 1.024e-06
# zmax: 1e-09
# xnodes: 256
# ynodes: 256
# znodes: 1
# ValueRangeMinMag: 1e-08
# ValueRangeMaxMag: 1
# valueunit: 
# valuemultiplier: 1
# End: Header
# Begin: Data Text
0.10990179 0.8028461 0.5859692 
-0.16554594 0.8826458 0.43992156 
-0.43342438 0.8884325 0.15109964 
-0.5224701 0.4858583 0.70069015 
-0.5607355 0.35293353 0.7490084 
0.0999171 0.36318848 0.9263427 
-0.57019526 0.21431622 0.7930612 
-0.99881583 -0.032377437 0.0363133 
-0.84916884 -0.46310994 0.25385338 
-0.64451045 0.5421759 0.5391211 
-0.48672712 0.7756073 0.40190828 
-0.42554626 0.44317046 -0.78899324 
-0.17668355 0.9830509 -0.04892755 
-0.049931217 0.9561894 0.2884593 
0.6310217 0.4627188 -0.622658 
0.5791791 0.4968962 0.6462552 
0.53170544 0.81446093 -0.23225607 
0.59148973 0.6749448 0.441123 
0.31278706 0.5770405 0.7544459 
0.474216 0.3118773 0.8233175 
0.66094536 0.26424983 0.7023698 
0.57872194 0.019528216 0.8152912 
0.6069055 -0.43813053 0.6631044 
0.014980341 0.017005943 0.9997432 
0.42241454 -0.09306286 0.9016127 
-0.40063283 -0.014356596 0.91612625 
-0.115404606 0.33163822 0.9363215 
0.35558867 0.915421 -0.18857634 
-0.5729153 0.58371913 0.5753609 
-0.64495 0.7625184 -0.05104358 
-0.40750214 0.6502513 0.6411827 
-0.49667463 0.8666166 -0.047854096 
-0.48711652 0.8730155 -0.023693146 
-0.6924703 -0.12346363 0.7108035 
-0.8444449 -0.09107123 0.5278437 
-0.8545025 0.38298988 -0.35091898 
-0.70199513 -0.67113173 -0.23829632 
-0.9634925 -0.25990126 -0.064293444 
0.3537101 -0.8270363 0.4369214 
-0.04992954 -0.9974446 0.051100463 
-0.4459706 -0.8422622 0.3028279 
0.016639048 -0.82283795 0.5680325 
0.14965652 -0.23878594 0.9594708 
-0.32565644 0.03144571 0.9449651 
-0.17945385 0.24860172 0.95183694 
-0.077541105 0.20933983 0.9747637 
-0.45743638 0.38705564 0.80058736 
-0.8524613 0.35216397 0.3863811 
-0.38401166 0.73538566 -0.55833966 
0.07282373 -0.4303483 0.89972055 
0.43654588 -0.84377486 0.31220478 
0.4984706 -0.79781306 -0.3391482 
0.25496143 -0.96357197 -0.08077023 
0.625226 -0.33829013 -0.7033152 
0.8605975 -0.23315535 -0.45278105 
0.4526285 -0.4680891 -0.75895983 
0.8375554 0.11402961 -0.5343205 
0.40391603 0.3885913 -0.8281598 
0.37418836 0.65667355 -0.6548 
-0.28640845 0.90018123 -0.32809144 
-0.5097932 0.85972196 -0.031449042 
-0.81157327 0.41931486 -0.4068463 
-0.9340802 0.3562549 -0.024013635 
-0.457746 0.8744106 0.16085656 
-0.7196771 0.5035759 -0.47799197 
-0.83401895 0.44025716 -0.332545 
-0.54786915 -0.056965463 -0.83462226 
-0.4244047 0.76285017 -0.4877914 
-0.1613957 0.36749083 -0.9159159 
0.11814078 -0.9923431 0.036025945 
0.7959573 -0.5837429 0.16030064 
0.94289404 -0.28462762 0.17302628 
0.9150845 -0.25257164 0.3143693 
0.9117207 0.036232006 0.40920967 
0.94050634 0.3308635 0.07731193 
0.9623897 0.26259768 -0.06963157 
0.5888204 -0.2503286 0.76852214 
0.8491223 0.39087713 0.35525554 
-0.049665354 0.6275926 0.77695626 
-0.41023833 0.88338304 0.22658095 
0.72412604 0.68756795 -0.053776465 
-0.42801815 0.86332387 -0.26734328 
-0.7403654 0.41304353 -0.530334 
-0.79243803 0.59610397 -0.12923613 
-0.2686884 0.87873775 -0.39449516 
-0.4231318 0.8964863 -0.13142304 
0.6531144 0.62328804 0.43006232 
0.13776538 0.7022922 0.69843143 
0.33041376 -0.18347485 0.9258314 
0.42706463 0.24247757 0.87110305 
0.008928028 0.04670243 0.998869 
-0.49115172 0.06324155 0.8687753 
-0.7655074 -0.0256991 0.6429136 
-0.7006183 -0.14976496 0.69764215 
-0.62922806 -0.41482273 0.6572627 
0.16690485 -0.6367124 0.7528214 
0.5843062 -0.6456072 0.491709 
0.35116082 -0.32102668 0.8795613 
-0.3304222 0.027261084 0.94343954 
0.10326586 -0.427557 0.8980708 
-0.62758857 -0.7764161 -0.057538785 
0.16320099 -0.82652 -0.5387301 
0.15015632 -0.98593056 0.07344366 
-0.08924007 -0.9041277 -0.41783896 
-0.25429347 -0.9310698 -0.26161796 
0.10962063 -0.99339557 0.03389035 
0.015199476 -0.37308955 0.9276709 
-0.15366285 -0.9275286 0.34070283 
-0.10654967 -0.99037784 0.08831245 
0.52115864 -0.36465946 0.7716329 
0.12141686 -0.96923834 0.21409099 
0.12891038 -0.6385971 0.7586673 
0.5584889 -0.11407411 0.82163084 
0.020005325 -0.3705499 0.9285971 
0.22457094 -0.5704625 0.79002565 
-0.37898502 -0.089221306 0.92109174 
-0.7794117 -0.42150268 0.46352234 
-0.45614868 0.5444264 0.7039377 
-0.8329338 0.44399166 -0.33029178 
-0.5060587 0.6949163 -0.51087767 
-0.28244987 0.30181372 -0.91056615 
-0.079368494 0.46246272 -0.88307923 
0.6734247 0.30943024 -0.6713808 
0.19557323 0.23450032 -0.9522399 
0.497996 -0.054514118 -0.86546415 
0.86044264 0.14495748 -0.48849362 
0.24899879 0.2308409 0.94059145 
-0.15289754 -0.25104618 0.9558233 
-0.2762225 -0.63904834 0.71785676 
-0.07270619 -0.104986645 0.99181235 
-0.56268525 0.022775766 0.8263574 
-0.580074 0.59595746 0.5552917 
-0.89744943 0.43408877 0.07843128 
-0.58634657 0.80996263 -0.012581827 
-0.72280765 0.66494006 0.18815912 
-0.579603 0.584952 0.5673549 
0.336219 0.50168747 0.7970361 
0.23024392 0.97277373 -0.026440179 
-0.23732263 0.97081435 -0.03460649 
-0.33191827 0.65830654 -0.6756204 
0.3071761 0.89363915 -0.32718804 
0.35301173 0.79786694 -0.48866257 
-0.7521272 0.65163785 0.09835054 
-0.8806496 0.29935238 0.36721188 
-0.9959067 0.08018911 0.041708075 
-0.5148862 -0.739068 -0.4343624 
0.4187624 -0.65440565 -0.62959623 
0.63724005 -0.19634469 -0.74523413 
0.85757107 0.039400455 -0.5128542 
0.510651 0.4077854 -0.75693256 
0.83875924 -0.29008693 -0.46079555 
0.91817594 0.3074914 0.24980417 
0.31575924 -0.8965864 0.31053016 
0.087607384 -0.065045945 0.99402916 
0.40805766 0.30157512 0.86170846 
0.44114652 0.16277376 0.88255006 
0.71224856 0.6644228 0.22637247 
0.84514564 0.11549683 0.52190936 
-0.49643356 -0.33677724 0.80008435 
-0.7516502 0.37852392 0.54013115 
-0.5848286 0.22213478 0.7801485 
-0.99021536 -0.13918778 0.010018056 
-0.9932859 0.010731576 -0.11518692 
-0.8692702 0.41719526 -0.26517454 
-0.64585155 0.20659742 -0.73497844 
-0.950874 -0.28313938 -0.12518363 
-0.94556093 -0.24341324 -0.21602003 
-0.9511375 -0.21328619 -0.2232634 
-0.5402515 -0.8078265 -0.23567945 
-0.84364843 -0.39646927 -0.3620352 
0.07497854 -0.59156126 -0.80276614 
-0.26907197 -0.5120148 -0.8157458 
0.046327446 -0.009484891 -0.9988813 
0.6388494 0.21465468 -0.7387793 
0.61727595 0.64089024 -0.45632246 
0.91637653 0.34810415 -0.1976806 
-0.13832083 0.93515986 -0.32610354 
-0.06060642 0.9919606 0.111090906 
0.6905552 0.7032192 0.1691638 
0.30722073 0.44217885 0.8426704 
0.6649728 0.21006174 0.71671844 
0.12023882 0.9533314 0.2769513 
0.54282725 0.17779948 0.8208081 
0.777526 -0.22176619 0.58844984 
0.7681042 0.31220147 0.55905825 
-0.2218805 -0.1232369 0.96725476 
0.3952099 0.10568025 0.9124915 
-0.75920665 -0.035824683 0.64986295 
-0.14015467 -0.98996806 -0.017891906 
-0.2202526 -0.97544295 0.00014279396 
-0.8810386 -0.4061056 -0.24258853 
-0.60336435 -0.53884166 -0.58787864 
0.030120231 -0.6375803 -0.7697949 
-0.46476376 -0.5423403 -0.69990116 
-0.049801555 -0.9240024 0.37912986 
0.03518318 -0.95396084 -0.2978608 
0.5147608 -0.7505876 0.41429436 
0.20746438 -0.7956209 0.5691624 
-0.08563821 -0.98196596 -0.16854979 
0.22579208 -0.935629 0.27132356 
-0.18190089 -0.820191 -0.54240113 
0.15420812 -0.86059624 -0.4853804 
0.53010577 -0.5970272 -0.6021184 
0.6879807 -0.6688467 -0.2816499 
0.9228495 0.19528659 0.33198187 
0.71362823 0.694306 0.0931339 
-0.44462034 0.7227859 0.5290496 
-0.5268334 0.8122436 0.25041354 
-0.97356427 -0.20424813 0.10225146 
-0.39546296 0.09406524 -0.9136525 
-0.4011056 0.18054506 -0.8980633 
-0.26799965 0.5606664 -0.7834727 
-0.36035395 0.51095504 -0.7804294 
-0.669077 0.027909892 -0.74266887 
-0.2940772 -0.00019540709 -0.95578164 
0.5835806 0.59991944 -0.54729366 
0.9484788 0.3025143 -0.0941964 
0.8002731 0.4767563 0.36368448 
0.8284337 -0.054040596 0.5574741 
0.9176141 0.2069111 0.3393703 
0.9419539 -0.20448256 0.2662891 
0.41217703 0.36397046 0.8352458 
0.5222677 0.095863506 0.8473763 
0.26439378 -0.4596334 0.84784037 
-0.39854214 -0.20561747 0.893804 
0.26046342 0.21647206 0.9409032 
-0.5097237 0.457224 0.72878534 
-0.4614042 0.05550969 0.88545185 
-0.9019947 0.13124377 -0.41131583 
-0.096123494 -0.98262924 -0.1587457 
-0.10037668 -0.9570541 -0.27197808 
0.9287517 -0.35269815 0.11412384 
0.6886407 -0.27649757 0.67031574 
0.37087947 -0.4229825 0.82676136 
0.13233337 -0.6353731 0.76078176 
0.17844999 -0.47006693 0.86440307 
-0.13197859 -0.28121483 0.9505261 
0.29491487 -0.7424455 0.601498 
-0.5037717 0.09692262 0.8583822 
-0.2036007 -0.07135373 0.97645044 
-0.7573023 0.12258131 0.6414571 
-0.95677847 0.19164175 0.21874312 
-0.95897806 0.17175332 0.22552605 
-0.49633393 0.45813495 0.73740435 
-0.59664196 0.31663057 0.7374032 
-0.7397227 -0.10543783 0.6646001 
-0.45913213 -0.24264528 0.8545882 
-0.95048636 0.250461 0.18397014 
-0.99094987 -0.030130738 -0.13080731 
-0.45898068 0.0060733547 -0.8884255 
0.5175898 -0.477072 -0.71028394 
0.6405575 -0.20570223 -0.73984635 
0.2583234 -0.15937275 -0.95282185 
0.8253687 0.35480428 -0.4391816 
0.8053917 0.40423006 -0.43352303 
0.89336085 -0.09651747 -0.4388517 
-0.27614817 0.9594795 0.05604663 
-0.38618302 0.4806152 0.78731936 
-0.5161944 0.56787825 0.6411379 
-0.9495848 0.31211433 -0.029554378 
-0.9805384 -0.11629908 0.15817396 
-0.9393134 -0.26123196 -0.22236934 
-0.73702824 -0.66329205 0.12974271 
-0.0056041717 -0.9454436 0.3257378 
-0.22214141 -0.49586484 0.83950657 
-0.42085037 -0.01465376 0.9070117 
-0.9004367 -0.35697895 0.24855529 
-0.5458853 0.4347149 0.71626276 
-0.049122483 0.95473963 0.29335853 
0.8271341 0.4530789 0.3325186 
0.7299091 0.11671189 -0.6735065 
0.7299227 0.38045543 -0.5678614 
0.88012683 0.357527 0.31233194 
0.43950334 -0.3202963 0.8391943 
0.17168806 0.11220307 0.9787409 
0.64891684 -0.16921933 0.74180305 
0.81188565 -0.3868482 0.43725285 
0.29103068 -0.0599434 0.954834 
0.045869384 -0.79364 0.606656 
-0.4174999 0.04078629 0.90776116 
-0.79938656 0.0045237085 0.6008001 
-0.37024996 0.30720738 0.87666345 
-0.44493297 0.40974084 0.7963337 
-0.19957924 0.68243104 0.7031757 
0.3514972 -0.10833324 0.9298998 
-0.085299775 -0.11576014 0.9896079 
-0.7695807 0.0761904 0.6339878 
-0.340842 0.92434996 -0.17147551 
-0.11076616 0.79152125 0.6010199 
-0.42064175 0.03757649 0.9064483 
-0.99057347 0.019307567 0.13561521 
-0.7337972 0.5737066 0.36387137 
-0.31287968 -0.84525514 0.43318623 
-0.33922508 -0.9143995 0.22090746 
-0.004613871 -0.983052 -0.18326914 
0.1846742 -0.90633005 -0.38008058 
-0.41624317 -0.883019 -0.21683928 
-0.59216 -0.8031484 0.065568574 
-0.47528002 -0.77081203 0.42421418 
-0.5736007 -0.17684343 0.7998179 
-0.380415 0.8370214 0.39329347 
0.3739049 0.7329831 0.5682702 
-0.030810582 0.75544745 0.6544846 
-0.8731304 0.4414648 0.20676589 
-0.60317546 -0.30056155 -0.7388114 
-0.29199746 -0.7747168 0.5608489 
0.007357948 -0.9941863 -0.10742195 
0.7861034 -0.42344815 -0.45025918 
0.69352096 -0.64300287 -0.3249246 
0.69134796 0.25723574 -0.6751799 
0.3602041 0.71614814 -0.59781677 
0.06756846 0.46727666 -0.88152546 
0.5665013 0.66202 -0.49071977 
0.4895332 0.8702612 0.054798137 
0.51573837 0.7768152 0.36134773 
-0.22015241 0.96823823 -0.11852321 
0.2185141 0.9687001 0.117778875 
-0.76310456 0.25666654 0.5931221 
-0.7861286 0.31187555 0.5336062 
-0.5231591 0.7723408 0.36027 
-0.66560215 0.6577033 -0.35270432 
-0.6027841 0.10612299 -0.79081565 
0.3403393 -0.21381962 -0.9156693 
-0.18712302 0.087758005 -0.97840863 
-0.8931729 0.4147227 -0.17391731 
-0.12379567 -0.40868503 -0.9042407 
0.29968378 -0.44607636 -0.8433301 
0.96860206 -0.12836263 -0.21291609 
0.5467435 -0.6431607 0.5361119 
0.5599866 -0.68358207 0.468114 
0.9383378 -0.33662993 0.07875678 
0.8580395 -0.2057389 0.47057393 
0.79619086 0.25630635 0.5480759 
0.99213976 0.041619718 0.11801129 
-0.3944988 0.3441751 0.8520061 
-0.90229386 0.22025263 0.37061375 
-0.35030717 0.9366349 -1.5765127e-05 
-0.33843258 0.58448607 -0.7374548 
-0.6249341 0.5154859 -0.5862865 
-0.2458453 0.55093956 -0.7975123 
-0.73823154 0.66899836 -0.086345114 
-0.17582016 0.9322432 -0.3162433 
0.33390373 0.8358659 0.4357023 
0.2405709 0.55047756 0.7994374 
0.19335632 0.0144142555 0.9810228 
-0.36131585 0.52925044 0.767688 
-0.59633946 -0.73916966 0.31306145 
-0.34667328 -0.13989064 0.9274957 
-0.60031134 -0.7798811 0.17723352 
-0.44028163 -0.8911324 -0.10970513 
-0.45035902 -0.772431 0.44780257 
0.47169513 -0.87277466 0.12557125 
0.3224637 -0.7199269 0.61459124 
-0.39135182 -0.53153974 0.7512053 
-0.36052302 -0.702867 0.61318946 
-0.27909148 -0.7935224 0.54076815 
-0.77800024 -0.5420729 0.31760448 
-0.2949751 -0.9135215 -0.2801218 
-0.3275463 -0.91405845 0.23918758 
-0.37069067 -0.89310163 -0.25486884 
-0.19837886 -0.7266681 -0.65772295 
-0.0031946131 -0.84928584 -0.5279237 
0.43475848 -0.8002704 -0.41297993 
0.16158569 -0.9350658 -0.3155029 
-0.49419475 -0.78521246 -0.37311253 
0.510607 -0.84912133 0.13518018 
0.14434838 -0.97660744 0.15937863 
-0.5559362 -0.658089 0.5077931 
0.028256748 -0.15891649 0.98688763 
-0.1518892 -0.18359835 0.9711958 
-0.643668 -0.7474314 0.16443217 
-0.5700578 0.31954437 0.75691843 
-0.74815303 0.081548095 0.6584961 
-0.7189224 0.44629845 0.5328869 
-0.9153623 0.37496832 0.1466655 
-0.9368367 0.10531462 -0.33353522 
-0.8623998 0.46712923 -0.19508217 
-0.46379524 0.45620728 -0.759453 
0.21192552 0.2379982 -0.9478631 
0.4187798 0.21899986 -0.8812847 
0.7756251 -0.25966802 -0.5753072 
0.9728355 0.23105212 0.0143554425 
0.7590591 -0.25855333 0.59747773 
0.005687665 -0.8965493 0.44290757 
0.12538613 -0.80191296 0.58413523 
0.16902609 -0.5130777 0.8415352 
-0.0455423 -0.18935615 0.9808518 
-0.41716012 0.36366874 0.83290005 
-0.52792376 0.2679406 0.80591834 
0.35600454 0.77228075 0.52615887 
-0.3399797 0.9032465 0.26183906 
-0.104217045 0.9877847 0.1158466 
0.11767402 0.30494803 0.9450713 
0.4808292 0.08456726 0.87272656 
-0.07769928 0.6670276 0.7409704 
0.18787104 0.9054852 -0.38052723 
0.6587488 0.7465349 -0.093465395 
0.21774986 0.87939864 0.4233712 
-0.44670916 0.12826619 0.885437 
-0.9188988 0.27287474 -0.2848936 
-0.96138024 0.23617965 -0.14130601 
-0.50176084 -0.12736142 -0.8555788 
0.11990716 0.28993288 -0.9495058 
0.4685249 0.01565787 -0.8833115 
0.41259262 0.57948554 -0.7028257 
-0.096106164 -0.77535135 -0.62417465 
0.96246135 0.15581474 0.22223867 
0.72443664 -0.15836616 0.6709037 
0.3707844 -0.7723726 0.51571256 
0.77106214 0.6351728 -0.04493063 
0.17380857 -0.3366628 0.9254452 
0.2713062 -0.37482265 0.8865106 
0.5458064 0.0972783 0.83224535 
0.5299493 -0.45036933 0.71855503 
0.45068887 -0.27509975 0.8492348 
-0.32126814 0.21873437 0.9213805 
-0.93314904 -0.11510642 0.34056333 
-0.9309151 -0.16979146 0.32336956 
-0.95405716 -0.048523586 0.2956696 
-0.9899371 0.04220975 0.13506648 
-0.7015847 0.65707755 0.275732 
-0.8473538 0.029252386 -0.53022236 
-0.967879 -0.22554718 0.11108003 
-0.9697582 0.24338236 -0.018277602 
-0.96224904 0.26194718 0.07389564 
-0.87694085 -0.35387486 -0.32518834 
0.015233667 -0.14254774 -0.98967075 
0.40300086 0.20783845 -0.8912875 
0.2753562 -0.14263098 -0.95070255 
0.8808225 0.26589397 -0.39172974 
0.8970589 0.42286605 0.12833466 
0.8336246 0.46637392 -0.29591456 
0.767343 0.5993573 -0.22793803 
0.5552745 0.829522 0.059695054 
0.3501538 0.7508207 0.5600541 
0.2784125 0.61380875 0.73873234 
0.14723031 0.58275807 0.7991973 
-0.070335776 0.32039967 0.9446677 
0.2120735 -0.01660725 0.9771126 
0.3926306 -0.25962746 0.8822896 
0.039359674 0.54316515 0.83870286 
-0.54829776 -0.06863891 0.83346176 
-0.6279321 -0.73734 0.24906045 
-0.6159162 -0.7878102 0.0015297966 
0.29999685 -0.61923325 -0.7256391 
-0.32090682 -0.7579005 -0.5679839 
-0.80197394 -0.43974388 -0.40430582 
-0.59960896 -0.18068779 -0.7796289 
0.125715 -0.6179201 -0.77612525 
-0.39207932 -0.56761795 -0.7239363 
-0.08334896 -0.8839365 -0.46011877 
-0.19153976 -0.97216606 0.13492857 
0.20322147 -0.90735286 0.3679838 
0.72499377 -0.6278377 -0.28320277 
0.53425574 -0.80646557 0.253346 
0.40631267 -0.9137286 -0.0031775315 
0.7579146 -0.36462337 -0.54093945 
0.8428176 -0.21068874 -0.4952462 
0.7833957 -0.4194679 -0.4586261 
0.97015274 0.107538186 -0.21734588 
0.7128199 0.692681 -0.109913304 
0.03208353 0.53553057 0.8439063 
-0.20184648 0.7856605 0.5848039 
-0.24830756 0.7047307 0.6646037 
-0.35432354 0.90654796 0.22940272 
-0.16214962 0.610371 -0.77534175 
0.0671151 0.32831272 -0.94218177 
0.41920242 0.7732697 -0.47573453 
0.5520285 0.81381583 -0.18157233 
0.623216 0.1838765 -0.7601259 
0.6064548 -0.3935641 -0.69088346 
0.8642544 -0.06753601 -0.49850115 
0.9583567 0.24977611 0.13843597 
0.8720695 0.42688027 0.23930757 
0.90064645 -0.28489417 0.328133 
0.9929134 -0.11375062 -0.034405936 
0.7227607 0.54529756 0.42457926 
0.9845493 0.06410664 0.16295104 
0.1675353 0.23472108 0.95751655 
0.10693196 -0.07629362 0.991335 
-0.388136 0.18544842 0.902751 
-0.23190275 -0.24583125 0.9411632 
-0.32391173 -0.041703925 0.9451677 
-0.4712731 0.18710649 0.8619123 
-0.35138378 0.38848633 0.85182613 
-0.61844903 -0.77706087 -0.1170352 
-0.43203512 -0.882928 0.18380359 
0.33344015 -0.8373656 0.43317047 
0.49943167 -0.82655096 0.25957993 
0.441475 -0.7351409 0.5144587 
0.6075447 -0.11870013 0.78536594 
0.65917796 0.067455195 0.7489555 
0.29904133 -0.00042456936 0.95424014 
0.71308833 -0.19066416 0.6746498 
-0.22495212 -0.40290394 0.8871669 
0.013119159 0.07535316 0.99707067 
-0.67866445 0.6624713 0.31709063 
-0.581169 0.7390275 0.34070656 
-0.8053548 0.19510245 0.5597667 
-0.82928574 0.22042647 0.51351476 
-0.8130871 0.2600759 0.52081656 
-0.7839054 0.45825362 0.41892242 
-0.66051114 0.719017 0.21619348 
-0.81171507 0.49689338 0.30694562 
-0.53967094 -0.060197163 -0.83972126 
-0.6661544 -0.3630552 -0.65148234 
0.056231346 -0.12470746 -0.99059886 
0.2384547 0.3922257 -0.8884247 
0.29893488 0.68708974 -0.66222787 
0.03487111 0.23484613 -0.97140694 
0.6840919 0.3845956 -0.61976177 
0.96750385 0.18712392 -0.17006215 
-0.7349593 0.39642024 0.55016893 
-0.25158346 0.15014212 0.95611876 
-0.84333336 0.4468358 0.29854116 
-0.9926751 0.12040162 -0.009982644 
-0.86297417 -0.4498105 -0.23010011 
-0.5257304 -0.8506487 0.0021490916 
-0.5815907 -0.80685997 -0.10358257 
0.32953754 -0.938205 0.10571842 
0.5950306 -0.7389908 0.31596094 
0.5721631 -0.310562 0.7590656 
-0.5378703 -0.08014737 0.83920914 
-0.07366893 -0.54876065 0.83272725 
0.4127571 0.46142906 0.785312 
0.38476062 0.8477822 0.3649995 
0.54087526 0.81975317 -0.18830469 
0.6982813 0.6983062 0.15739046 
0.51954705 -0.13616838 0.8435219 
0.47272786 -0.002104401 0.881206 
0.4732269 0.014408131 0.88082284 
0.5921571 -0.09659971 0.8000115 
0.94226116 -0.25304526 0.21934468 
0.00020331187 -0.42647517 0.9044993 
0.25977466 -0.8010157 0.53934324 
0.069529295 -0.7200647 0.6904148 
-0.23492259 -0.3325425 0.9133603 
-0.3835626 -0.039487362 0.9226704 
-0.6730326 0.14293094 0.7256707 
-0.14320596 0.81013286 0.56848645 
-0.16729929 0.02826378 0.98550093 
-0.0015200749 0.12547117 0.9920961 
-0.24526308 0.5277183 0.8132401 
-0.9012729 0.40856832 0.1441499 
-0.45429525 0.69958055 0.55154604 
-0.21715407 0.97605455 0.012715222 
-0.9172427 0.13688992 0.37406808 
-0.7478248 -0.17033488 0.641673 
-0.64579916 -0.016518584 0.7633287 
-0.5518821 -0.80541235 -0.21618803 
-0.42779192 -0.7920112 -0.43556002 
0.5865817 -0.605 -0.53842086 
0.55466104 -0.82926124 0.06838829 
0.7172073 -0.4348162 -0.5445627 
0.14311807 -0.886637 -0.43976387 
-0.0043386808 -0.16379437 0.98648506 
0.42498302 0.43710247 0.79267323 
-0.25144118 0.018024683 0.9677048 
-0.49302378 0.38266706 0.7813409 
-0.49591327 0.032918 0.86774796 
-0.58427024 -0.7927086 -0.17390087 
-0.21638311 -0.8461558 -0.4870307 
0.0027896636 -0.8808225 -0.47343838 
0.68291634 -0.4137382 -0.6020349 
0.67623115 0.23856917 -0.6969909 
0.5177762 0.8222339 -0.23630337 
0.1852249 0.89405644 0.40786642 
0.5916291 0.23585826 0.7709383 
0.1867904 0.96201926 -0.19906846 
0.12232082 0.9167585 -0.3802519 
-0.01396691 0.97081167 -0.23943645 
-0.3306349 0.9164501 0.22538806 
0.27645013 0.66604286 0.6927932 
-0.5459004 0.77553356 0.31708148 
-0.65295154 0.18357323 0.73481643 
-0.62028074 0.5123887 0.59389365 
-0.86040515 0.14973818 -0.4871156 
-0.6427726 0.3320905 -0.6903328 
-0.77017796 0.37865907 -0.5132674 
-0.60416955 0.19375266 -0.7729418 
-0.5928587 0.1689823 -0.7873777 
0.069575645 0.030872941 -0.9970989 
0.6092183 -0.32615563 -0.7228248 
0.91845715 -0.07756995 -0.38783956 
0.85887355 -0.51150566 -0.026425209 
0.707633 -0.4018086 0.58121026 
0.3689479 -0.7124565 0.5968946 
0.5895756 -0.73623884 0.33219433 
0.9228737 0.37800407 0.073600896 
0.865728 0.35900834 0.34875202 
0.52321184 0.2577959 0.81227493 
-0.15964092 0.9271377 0.33901426 
-0.04970636 0.6998714 0.7125372 
-0.47865927 0.87646586 -0.051893096 
-0.7975953 0.5557829 0.2344078 
0.059330765 0.9407303 -0.3339258 
-0.22941224 0.9259409 -0.30000606 
-0.3461798 0.5587429 0.75363517 
0.0987685 0.53553617 0.8387168 
0.51683784 -0.05244382 0.85447556 
0.2004373 -0.39163935 0.89802206 
0.14088862 -0.15611923 0.9776386 
-0.39754668 -0.5727332 0.7168915 
-0.5376341 -0.37592322 0.75473934 
-0.6301575 -0.5140457 0.58194387 
-0.80618554 -0.5303447 -0.26229614 
-0.5274721 -0.80182195 -0.28081086 
0.12004864 -0.7681663 -0.628895 
0.36519048 -0.92917717 -0.057146627 
-0.4321663 -0.8436656 0.31852883 
-0.09953983 -0.8992238 -0.4260147 
-0.17539833 -0.9735529 -0.14639089 
-0.47838297 -0.79302514 0.3771752 
0.1474049 -0.87734246 0.4566641 
-0.32629403 -0.84536296 0.42295846 
-0.47337863 -0.7958806 -0.37747404 
-0.040241383 -0.7704496 -0.6362296 
0.4785989 -0.25335705 -0.8406863 
0.03587108 -0.4655482 -0.88429534 
0.18842946 -0.54538316 -0.8167323 
0.57588255 -0.7540578 0.31584185 
0.79795563 -0.60266924 0.0075265937 
0.9677617 -0.1926937 -0.16219284 
0.2558558 -0.6441143 0.7208708 
0.4782865 -0.120411195 0.8699099 
-0.030913725 0.085276715 0.9958776 
0.13180526 0.309529 0.9417108 
-0.5516169 0.06710396 0.831394 
-0.7699964 0.010055893 0.6379691 
-0.69315517 0.5028281 -0.5164299 
-0.995035 -0.026950762 0.095807664 
-0.89424247 -0.37646922 0.24207738 
-0.98227453 0.16653287 0.08604387 
-0.64051294 -0.16309306 -0.75042915 
0.16872951 0.2721167 -0.9473557 
-0.16626811 0.35959452 -0.9181758 
0.25299478 -0.5142326 -0.8194868 
0.87678677 -0.44241393 -0.18845388 
0.4136726 -0.7723399 0.48204356 
0.6885526 -0.57901704 0.43661723 
0.5737443 -0.7584881 0.30905253 
0.484097 -0.47391868 0.73556185 
-0.08581129 -0.81142694 0.57812005 
-0.33895305 0.38309667 0.85927165 
-0.43309557 -0.046679188 0.90013844 
-0.11478286 0.7550837 0.6455026 
0.47472417 0.87498206 0.09509733 
0.79651344 0.49760488 0.34344697 
0.4977566 0.29753038 0.8146864 
0.27288622 -0.102258265 0.95659626 
-0.49680313 -0.3048693 0.8125524 
0.13994306 0.8791202 0.4555915 
0.13241194 0.91111225 0.39030942 
-0.74988836 0.519457 0.4096729 
-0.98772955 0.05935521 0.14445516 
-0.95151865 0.29795828 -0.07637488 
-0.90830594 -0.20397663 -0.36520416 
-0.89047974 0.24893054 -0.38089284 
-0.5414144 0.14249699 -0.8285923 
0.64982826 -0.25813788 -0.71490425 
0.45848095 -0.17823021 -0.87064886 
0.6526731 -0.03402499 -0.75687534 
0.99994975 -0.009817033 -0.002030831 
0.8554707 0.001394141 0.51784945 
0.7292337 -0.19247238 0.6566374 
0.9302649 0.06995804 0.36015728 
0.60059613 -0.6937326 0.39751655 
0.4152207 -0.8796513 0.23195982 
0.92043084 0.14502369 0.36300844 
0.76291573 -0.08308851 0.6411364 
0.73588175 -0.5659675 0.3716974 
0.12164335 0.22831391 0.9659584 
-0.57539576 0.10095939 0.81162 
-0.7276899 -0.2627519 0.63358414 
-0.93477833 -0.30813932 0.17674795 
-0.8690949 -0.48192477 -0.11145709 
-0.9014236 0.42291996 0.09259776 
-0.8429912 -0.1656898 0.5117741 
-0.8471107 -0.52670604 0.07060068 
-0.96547335 -0.2461652 0.08522962 
-0.78994197 -0.13924831 -0.59716135 
-0.6701001 -0.053159606 -0.7403648 
0.13431422 0.65644926 -0.7423167 
0.7713092 0.41782972 -0.4801049 
0.80828345 -0.20274991 -0.55278414 
0.5461296 -0.40867454 -0.7312507 
0.97313607 -0.0968128 -0.20888661 
0.51330394 0.5684915 -0.64291257 
0.5970992 0.51149017 -0.61794055 
0.43650886 0.87105626 -0.22521344 
0.31608906 0.87536883 -0.36581042 
0.049464677 0.9884253 0.143418 
0.27994558 0.8986422 0.33774644 
-0.59554726 0.22919874 0.76992947 
-0.7066 -0.077372745 0.7033704 
-0.3553752 -0.5659921 0.74388266 
-0.71240747 0.27706784 0.64475507 
-0.82388544 0.49131575 0.28252763 
-0.70311034 -0.55049634 -0.45009974 
-0.61136067 -0.14460538 -0.77802795 
0.104022205 -0.11946807 -0.9873737 
-0.03879341 -0.2037292 -0.9782585 
-0.6477534 -0.61403316 -0.4509754 
-0.63985807 0.19328825 -0.7437885 
-0.0347483 -0.5311767 -0.8465483 
0.114417516 -0.6056786 -0.7874402 
0.09155628 -0.9831738 -0.15807247 
0.6790513 -0.13551603 -0.7214741 
0.9667289 -0.21964456 -0.13111623 
0.989027 -0.009314671 -0.14744069 
0.8618061 -0.45885056 0.21620928 
0.5157642 -0.5912841 0.6199762 
0.9180123 -0.39101008 -0.066065185 
0.9078927 -0.34945914 -0.23153646 
0.9785102 0.12363683 -0.16502033 
0.89664495 -0.36313084 0.25330576 
0.37631303 -0.096097544 0.9214955 
-0.06283395 0.5637417 0.8235577 
-0.434139 0.47181913 0.7674048 
-0.81998247 0.3658536 0.44020453 
-0.94724375 0.24905 0.20175107 
-0.208902 0.47553825 -0.8545311 
0.036370452 0.16029368 -0.9863991 
0.7866187 0.26342356 -0.55842566 
0.76855344 0.57034844 -0.2898767 
0.41664717 0.3030952 -0.8570522 
0.55666953 0.55097026 -0.6217322 
0.973746 -0.063368805 -0.21863967 
0.55275726 0.8275252 0.09829333 
0.07174253 0.99593616 -0.054445222 
0.3261725 0.7397537 0.5885372 
0.8538555 0.287049 0.43420482 
0.7504022 0.48928303 0.44440806 
0.2663886 0.33409885 0.90411013 
0.60941845 0.6507807 0.45287272 
-0.16570172 0.5022577 0.84869325 
-0.27023733 -0.47520533 0.8373481 
-0.17849201 0.110894285 0.97767234 
0.32786828 -0.18946055 0.9255308 
-0.3951689 -0.2639985 0.87985593 
0.51366466 -0.8356199 0.19464836 
0.24201365 -0.8666457 0.4362966 
0.3410031 -0.8891719 -0.30510685 
0.7607812 -0.508009 0.40390456 
0.43263608 -0.9002931 -0.04794012 
0.359164 -0.9171518 0.17272428 
0.6420134 -0.14683442 0.7525015 
0.38648698 -0.5030576 0.7730207 
0.1118322 -0.37435278 0.9205181 
0.7384961 -0.5580124 0.37847826 
0.15972981 -0.54988426 0.81982553 
0.31032214 -0.15290336 0.9382542 
-0.23800802 -0.2241437 0.94504595 
-0.43296176 0.35064048 0.8304188 
-0.7556251 0.4516329 0.47440323 
-0.84276646 -0.47702858 0.24937616 
-0.98057103 -0.08121669 0.17856182 
-0.81186897 -0.087693796 0.5772164 
-0.93261105 -0.064352445 0.35509935 
-0.30666962 0.46713609 0.8292995 
-0.68865633 0.69049263 -0.22129732 
-0.79533887 0.5487504 -0.25750574 
-0.6557524 -0.35311264 -0.6673083 
-0.1037229 0.37501958 -0.921196 
0.11483543 0.5872494 -0.8012184 
0.12189802 0.5100978 -0.8514347 
-0.020051932 0.9094759 -0.41527283 
0.452397 0.4865059 -0.74742824 
-0.5340661 -0.8422485 0.07342274 
-0.9837969 0.17730571 -0.026578182 
-0.96909785 -0.12519065 0.21254803 
-0.6923462 -0.5505846 -0.4663833 
-0.9228073 -0.33872077 -0.18356186 
0.0132926665 -0.99867207 -0.04977301 
0.13968647 -0.9246356 -0.35431167 
-0.033988312 -0.5872909 -0.808662 
0.16798729 -0.55718154 -0.8132214 
0.21893157 -0.9749887 -0.038291138 
0.8521287 -0.16340855 0.49716637 
0.36097115 0.04194686 0.93163323 
-0.045930173 -0.25235966 0.9665429 
0.31824106 0.9339526 0.16265042 
0.33118805 0.90194565 0.27714348 
0.42895678 -0.048160926 0.90204024 
0.52391714 -0.06365991 0.84938705 
0.4502917 0.031694524 0.8923189 
0.6155829 0.2286053 0.75418663 
-0.07061551 -0.030527625 0.99703634 
0.27210844 -0.95333123 0.13083082 
0.3940419 -0.46590638 0.79225135 
0.16047995 -0.44683775 0.8801035 
-0.052556194 -0.5015959 0.86350423 
-0.28773922 -0.61196876 0.73668206 
-0.023506347 -0.40413168 0.9143988 
-0.3821879 0.7433095 0.54902035 
-0.33520636 0.14146924 0.93146294 
-0.17099571 -0.34128568 0.9242752 
0.1030313 0.1636554 0.9811226 
-0.85825974 -0.0014060183 0.5132139 
-0.67637974 0.012267365 0.7364509 
-0.906961 0.35568705 0.22562914 
-0.9229036 0.28242412 0.26169756 
-0.6989788 0.64798087 0.30257142 
-0.8463471 -0.03237006 0.53164744 
-0.5605389 -0.7271655 0.39626575 
-0.6235457 -0.7729719 -0.11706952 
-0.124485865 -0.5939099 -0.7948423 
0.19985576 -0.8289413 -0.5224118 
0.1422383 -0.576365 -0.8047183 
0.6406282 -0.6823831 -0.3520637 
0.6868192 -0.72077 -0.09364836 
0.098850965 -0.49175575 0.8651039 
0.29176834 -0.23000026 0.928424 
0.13026746 0.23136663 0.96410584 
-0.35538173 -0.037686057 0.9339613 
-0.94410324 -0.32933873 -0.014327643 
-0.91630256 -0.22185437 -0.33342227 
-0.8461187 -0.41780022 0.3309476 
-0.7126511 -0.4492911 -0.53876346 
0.61777145 -0.19856156 -0.76087576 
0.15350261 0.9151357 -0.3727783 
0.6289999 0.7569302 -0.17724532 
-0.046440586 0.6942151 0.71826786 
-0.69946337 0.6421478 0.31368336 
0.015586776 0.62884915 0.7773711 
-0.006120967 0.9658703 0.25895405 
-0.45159757 0.8874927 -0.09174109 
-0.26498792 0.9642246 -0.0072347643 
0.26673228 0.5930114 0.7597312 
-0.69422555 0.077746294 0.7155463 
-0.70043904 0.51195914 0.49727553 
-0.10712121 0.27371532 0.9558268 
-0.64122796 0.24345928 0.7277048 
-0.65047145 0.23997015 0.7206256 
-0.7726754 0.49680302 0.39517012 
-0.9968303 -0.052718725 0.059584565 
-0.93096054 0.012772863 -0.36489645 
-0.35243857 -0.21636131 -0.9104806 
0.4525928 0.0015011578 -0.8917161 
0.8887729 0.19053781 -0.41686717 
0.9134884 -0.40204185 -0.062460862 
0.87907785 -0.4469633 0.16566798 
0.86428404 -0.5025766 0.020735046 
0.67389864 -0.71067137 0.20200731 
0.9402704 -0.04997679 0.33674014 
0.9192738 0.3033177 0.25086662 
0.57430154 0.39845768 0.71512884 
0.25116476 0.5387259 0.8041709 
-0.3258966 0.8423203 0.42928773 
-0.6588692 0.7351057 -0.15972182 
-0.61527723 0.7881869 -0.0139771 
-0.26007554 0.9569109 -0.12915997 
0.16315462 0.93726695 -0.30807686 
0.5102464 0.7516181 -0.4179942 
0.3419431 0.8502572 0.40017217 
0.162124 0.33227012 0.92914605 
-0.02118627 0.300834 0.9534412 
-0.49209166 -0.0808962 0.8667765 
-0.5906194 -0.7434386 0.31379586 