# OOMMF: rectangular mesh v1.0
# Segment count: 1
# Begin: Segment
# Begin: Header
# Desc: Time (s) :  3.5500000000000004e-07
# Title: m
# meshtype: rectangular
# meshunit: m
# xbase: 2e-09
# ybase: 2e-09
# zbase: 5e-10
# xstepsize: 4e-09
# ystepsize: 4e-09
# zstepsize: 1e-09
# xmin: 0
# ymin: 0
# zmin: 0
# xmax: 1.024e-06
# ymax: 1.024e-06
# zmax: 1e-09
# xnodes: 256
# ynodes: 256
# znodes: 1
# ValueRangeMinMag: 1e-08
# ValueRangeMaxMag: 1
# valueunit: 
# valuemultiplier: 1
# End: Header
# Begin: Data Text
0.9460627 0.21445669 0.24284516 
-0.30074537 0.50035423 0.81191015 
-0.0022288281 0.5646681 0.8253151 
-0.54729754 -0.032557976 0.8363046 
-0.44589138 0.665844 0.59819126 
-0.77499616 0.33504793 0.53583944 
-0.78667265 0.44034424 -0.4327162 
-0.07455604 0.7521492 -0.65476185 
-0.030790314 0.5745973 0.8178569 
0.0997598 0.19185396 0.9763402 
0.013317018 0.0102931475 0.9998583 
-0.91710895 0.3866316 -0.09709412 
-0.5443087 0.5848116 0.6014345 
0.1875423 0.97540116 -0.11584669 
-0.37179196 -0.009909945 0.9282632 
-0.88138396 0.42632365 0.2034959 
-0.61867267 0.6983468 -0.35993883 
-0.59380543 0.4484775 -0.66802925 
-0.17164104 0.75589925 -0.6317877 
0.20559731 0.97094405 0.12246428 
0.24197209 0.95266473 -0.18406378 
0.47805506 0.84314543 -0.24610801 
0.25428912 0.96645176 0.036166556 
0.2974694 0.93632966 0.18654434 
0.6140474 0.47074822 -0.6335156 
0.9448122 0.317909 0.079144284 
0.5114819 0.62379026 0.5909925 
0.36302552 0.5860936 0.7243665 
0.73014927 0.10356219 0.675394 
0.2514236 0.45082414 0.85647184 
0.355492 0.7829049 0.5105735 
-0.75681734 -0.038201425 0.65250915 
-0.6529822 0.5188434 0.55173886 
-0.76658964 0.18352798 -0.6153518 
-0.62226194 0.06890866 -0.7797704 
0.0014640817 0.41639948 -0.9091807 
0.106015846 0.20305662 -0.97341084 
-0.062059894 -0.5856897 -0.8081561 
-0.09753779 -0.44634825 -0.88952774 
0.13227017 -0.67534983 -0.72553927 
-0.2578894 -0.7579156 -0.59921366 
-0.11975238 -0.44413772 -0.8879195 
0.19309746 -0.80258995 -0.5644138 
0.23626235 -0.19743186 -0.9514204 
0.9831854 0.03448436 0.1793251 
0.6776334 -0.62502104 0.38750708 
0.8989402 -0.32653502 -0.2920298 
0.38502604 -0.90776616 -0.16648021 
0.90580285 -0.36268452 0.21904632 
0.91745245 0.38999447 0.07864794 
0.8057385 -0.089601 0.58545476 
0.4699237 -0.5248874 0.70969355 
0.51973116 0.13949399 0.84286475 
0.5030904 0.28474817 0.8159771 
0.25196204 0.15418047 0.95537615 
0.43132532 0.10325233 0.89626867 
-0.47573525 0.37074664 0.7976359 
-0.83231103 0.5205395 0.1905177 
-0.62725234 0.76236063 -0.15925077 
-0.07085546 0.6199598 -0.78142786 
-0.04459661 0.8018165 -0.59590405 
-0.022446085 0.9830339 -0.18204597 
0.008597201 0.955498 0.2948727 
-0.5265 0.8357515 -0.1559399 
-0.24303487 0.71218824 -0.65857583 
-0.34943235 0.3613333 -0.86448556 
0.3683917 -0.0021954458 -0.9296682 
-0.6271612 -0.4351288 -0.6460122 
-0.24504986 -0.197606 -0.9491589 
0.20458527 -0.3087135 -0.92889225 
0.022010094 0.088945396 -0.9957933 
0.32849842 0.39830658 -0.8564116 
-0.26185602 0.20092031 -0.9439611 
-0.5479838 -0.037788615 -0.835635 
-0.29535356 -0.6829729 -0.6680677 
0.78908247 0.15309429 -0.5949043 
0.8559766 0.5115948 -0.07466578 
0.66163194 0.7148944 -0.22620638 
0.76837575 0.63824517 -0.04734783 
0.90126127 0.40809843 0.14554663 
0.7155335 -0.05548119 0.6963718 
0.34636542 -0.28685606 0.8931656 
-0.56811184 0.39135146 0.72394276 
-0.42543983 0.20405282 0.8816821 
0.033856433 -0.98507077 0.16878821 
0.0962167 -0.7748897 0.6247306 
-0.2900489 -0.86276716 -0.41413113 
-0.5654533 -0.48780042 -0.6650665 
0.6131642 -0.36736798 -0.69933575 
0.6023078 -0.78155416 -0.16247599 
0.3963043 -0.9144675 -0.08180491 
-0.64469886 -0.74373126 -0.17671247 
0.879121 -0.3940371 -0.2681066 
0.87758 0.2018173 0.4348829 
0.6694393 0.2206878 0.70932925 
0.636462 0.0022798697 0.77130485 
0.64950496 0.1148927 0.751627 
-0.07523125 -0.12318845 0.98952764 
-0.58887845 -0.5443112 0.5974508 
0.36459512 -0.91472167 0.1742262 
0.3247905 -0.6367521 -0.6993267 
0.03198334 -0.39045855 -0.92006475 
0.11814886 -0.5094647 -0.8523419 
0.6137193 -0.549808 -0.5666214 
0.9150681 0.36877662 -0.1632611 
0.79577285 0.49989337 0.3418365 
0.6845973 -0.01796873 0.72870004 
0.45070562 -0.022631565 0.8923858 
0.119640745 -0.17332079 0.9775715 
0.016790109 0.47041026 0.88228816 
0.04955855 0.6231878 0.7805004 
-0.24281734 -0.25790003 0.9351617 
-0.48068565 0.674645 -0.5601744 
-0.5493429 0.7868265 -0.2812945 
-0.5547732 0.547456 -0.62651306 
-0.2841297 0.9206065 -0.26786944 
-0.22912423 -0.29045713 -0.9290516 
-0.68044454 0.20135063 -0.70459443 
-0.07469136 0.719663 -0.6902944 
-0.022023736 0.2430234 -0.96977043 
0.44239298 0.7762393 -0.44915614 
0.28020468 0.8503037 -0.44549865 
-0.21105589 0.78841597 0.57780254 
-0.2967794 -0.018497722 0.95476687 
-0.24495858 0.8526536 -0.46149448 
0.16328026 0.55432314 -0.8161284 
0.5552625 0.5213898 -0.6479478 
0.22844519 0.042671837 -0.97262126 
0.77138823 0.6083766 -0.18664964 
0.6729919 0.7059459 0.22073153 
0.27954572 0.7824674 -0.55641633 
0.283933 0.9236653 -0.25734136 
0.881465 -0.4521722 -0.1362341 
-0.09906248 0.2452729 0.9643795 
-0.67551976 -0.18886875 0.71274245 
-0.44627023 0.36530104 0.8169444 
0.14796846 0.7496169 0.64512 
0.38902697 0.90267986 0.18392146 
-8.1470396e-05 0.9930253 -0.11790148 
-0.573862 0.8158745 -0.07093075 
-0.66530156 0.3848884 -0.63971466 
-0.82955855 0.35601237 -0.43021852 
-0.78860563 0.4632716 0.4043275 
-0.90787154 0.13068454 -0.39836025 
-0.8522982 0.52233386 0.027479883 
-0.52657235 0.81702656 0.23492378 
-0.82312584 0.56419086 0.064441755 
-0.57393885 0.73355323 0.36399713 
-0.003621264 0.8865082 -0.4626987 
-0.6978275 0.47646993 -0.5348021 
-0.09050283 0.04086684 -0.99505734 
0.55504584 0.5005584 -0.66435343 
0.80852115 0.50467664 -0.30264693 
0.75049806 -0.08987465 0.65473306 
0.7092418 -0.28503317 0.64477295 
0.36364034 0.41549587 0.833744 
0.52757865 -0.7588716 0.38180476 
0.17925024 -0.59004945 0.78721726 
0.12089095 -0.24737152 0.9613494 
-0.394614 -0.36681345 0.8424534 
-0.8949443 -0.24895062 0.370268 
-0.61419487 -0.7005658 0.36327982 
-0.45062894 -0.8912083 0.051781703 
-0.83517265 -0.53670347 -0.120150864 
-0.14082624 -0.881236 0.4512107 
0.28167972 -0.49358532 0.82281846 
-0.18224546 -0.6863263 -0.70409006 
0.10431078 -0.7953737 -0.59707636 
0.55751765 -0.63949835 -0.5293544 
0.05721042 -0.750285 -0.6586345 
0.6378588 -0.74516827 0.19457752 
0.85477877 -0.34618497 0.3866644 
0.9273398 0.025195748 -0.3733713 
0.7256381 -0.68069535 -0.100514986 
0.6891454 -0.7197868 0.083579846 
0.764565 0.060032554 0.641745 
0.11868528 0.43914708 0.89054126 
0.5353009 0.84321207 0.04946019 
-0.14760806 0.9528818 0.26500604 
0.06399518 0.8957328 0.43996316 
-0.41006657 0.56202304 0.7183144 
-0.8567638 0.052632846 0.5130161 
-0.56533676 0.13690467 -0.8134196 
-0.97227603 0.23369975 0.007990619 
-0.66766435 -0.38590735 -0.6366317 
-0.8818671 0.16472559 -0.44178727 
-0.99000216 0.08821488 0.11006342 
-0.39756685 0.67189217 0.62490124 
-0.6760829 0.10853532 -0.7287881 
0.40144083 0.63908064 -0.65606505 
-0.23607348 0.85287017 -0.46570566 
-0.3652652 0.42523322 -0.8281052 
0.4417656 0.3829404 -0.8112951 
0.250006 0.64728093 -0.7200864 
0.28011307 -0.03518357 -0.9593221 
0.42540252 -0.45347312 -0.7831953 
0.61604995 -0.17562306 -0.76787955 
0.84138846 -0.5365988 -0.0642443 
0.9293937 -0.34613556 0.1281307 
0.83983916 -0.35255378 -0.41276643 
0.9316156 -0.1205554 -0.34286875 
0.936499 0.15659146 0.3137658 
0.2661441 0.1786 0.94724303 
-0.02524624 -0.085748285 0.99599695 
-0.201206 0.49872488 0.8430834 
-0.102994084 0.41764408 0.9027545 
-0.7802566 0.12917678 0.6119746 
-0.66610533 -0.41781324 -0.6178478 
-0.46509534 0.036488485 -0.8845083 
-0.26237422 0.2494503 -0.93216646 
-0.021634111 0.6910462 -0.7224868 
0.3303999 -0.14261921 -0.9330036 
0.64219236 0.0063805687 -0.76651704 
0.591496 0.56123513 -0.57891935 
0.6058447 0.52566755 -0.5971816 
0.6604892 -0.047272705 -0.74934596 
0.36512324 0.26908207 -0.89122385 
0.64183354 -0.055960685 -0.76479936 
0.85099614 0.08831299 -0.5176934 
0.6975705 0.6658163 -0.26473397 
0.611877 0.7267337 0.31219333 
0.9840222 -0.1272052 0.1245761 
0.09598339 0.9551544 -0.2801202 
0.17125602 0.92370605 0.34269297 
-0.17749599 0.5557594 0.8121741 
-0.0088818 0.0103769265 0.9999068 
0.40729505 -0.079835825 0.9098005 
0.23178099 -0.7436988 0.6270485 
0.61657065 -0.3277546 0.71583354 
0.66584814 -0.50382864 0.5502755 
0.42574757 0.3993802 0.81193256 
0.13159809 0.75253326 0.6452717 
-0.26221073 0.9253024 0.27397278 
-0.6001164 0.45217124 -0.65984964 
-0.03560309 0.31417727 -0.94869655 
0.25720885 0.8888494 -0.37919718 
0.20285788 0.9644422 -0.16941063 
0.33936608 0.108389944 -0.93438876 
0.94429475 -0.19323844 -0.2663949 
0.6585095 0.2892013 -0.6947863 
0.027141375 0.36863485 -0.92917794 
0.6673559 -0.12172981 -0.73472315 
0.5260815 -0.120638944 -0.84183407 
0.14620328 -0.266436 -0.95269966 
0.27670205 -0.6052686 -0.7463819 
0.36255255 -0.14826536 -0.92009413 
-0.25365514 0.7956473 -0.5500949 
-0.4035677 0.9047523 -0.13622233 
-0.15411456 0.6722747 -0.7240825 
-0.08014584 0.8690492 0.48819065 
-0.339114 0.72117823 -0.60407263 
-0.42407057 0.8658295 -0.2655247 
0.156819 0.6561238 -0.73817986 
0.17664213 0.46854246 -0.86560124 
0.66436243 0.63277596 0.39776528 
0.32933444 0.8660086 0.3762554 
0.8264477 -0.29480287 -0.479662 
0.54435796 0.2558524 0.79888296 
-0.23916654 -0.06507061 0.9687958 
-0.29423898 0.39981544 0.8680848 
-0.6130724 0.63556653 0.46925208 
-0.29253116 0.09959628 0.95105535 
-0.04508249 0.84087765 0.5393444 
-0.23593147 0.8800406 0.41214678 
-0.4138522 0.6059366 0.6793874 
-0.0975018 0.6466669 0.7565152 
-0.320459 0.45144397 0.83276916 
-0.9403791 -0.09297901 -0.32717285 
-0.744614 0.25431436 0.6171501 
-0.624802 0.11708912 0.7719537 
-0.8191222 0.17016804 0.5477971 
-0.8453106 0.50144345 0.184403 
-0.033991992 0.9727692 0.22926985 
0.20495473 0.9290828 0.30789408 
0.15756859 0.91592854 -0.36911666 
0.65933657 0.7095075 -0.24874581 
0.0130266175 0.9995541 0.026870683 
0.24067298 0.9159365 0.3211491 
0.4737294 0.87890524 -0.055732764 
0.7562156 0.64481175 0.11115686 
0.9378956 0.3469175 0.0005520785 
0.8783933 0.47486362 0.05412716 
0.742237 0.17233695 0.6475989 
0.45684528 -0.05479434 0.88785696 
0.26020697 -0.008817772 0.9655126 
0.3614439 0.18624656 0.91360307 
0.2593298 0.4407472 0.8593545 
-0.32619703 -0.20153841 0.92356807 
-0.6923002 0.6623501 0.28637886 
-0.9779467 0.1607278 -0.13336715 
-0.96486735 -0.15779819 0.21007316 
-0.9007237 0.24334265 -0.35983524 
-0.5015017 0.19414608 -0.8430916 
-0.624655 -0.42548883 -0.6548018 
-0.20185417 -0.30625224 -0.9303035 
-0.12182783 -0.13614413 -0.98316985 
0.19441466 -0.5158857 -0.8343051 
0.23666905 -0.8121852 -0.5332383 
0.24156292 -0.07561943 -0.9674343 
0.6432322 -0.4998707 -0.5799842 
0.8596123 -0.40413517 -0.3126364 
0.88042426 0.3472859 -0.32287106 
0.9024814 -0.09851735 -0.4193111 
0.7684895 0.12948802 0.62662333 
0.82200885 -0.33970678 0.45705673 
0.9382455 -0.28783998 0.19194703 
0.85265636 0.29789287 0.4292284 
0.860226 -0.027463382 -0.509173 
0.9009076 -0.2649974 0.34371784 
0.73173076 -0.37325653 0.5703067 
0.44566962 -0.4797595 0.7557841 
0.44491464 -0.09728917 0.89027286 
-0.25239292 -0.15469068 0.95518 
-0.8001681 0.586719 -0.124466784 
-0.53355587 0.7574846 -0.37621188 
-0.49432707 0.62771064 -0.6013487 
0.7910676 0.3915601 -0.46999237 
-0.12538692 0.98710775 -0.09948124 
-0.6646145 0.71032166 -0.2317989 
-0.9941361 0.107729934 -0.009371697 
-0.7251612 0.54583657 -0.4197664 
-0.5411988 0.38033304 -0.7499671 
-0.34778056 0.62318003 -0.7004965 
-0.7472916 -0.55084294 -0.3716549 
-0.43190566 -0.15441978 -0.88860124 
-0.20818491 -0.20861211 -0.95558363 
-0.46194425 -0.55510104 -0.6917155 
-0.65130025 -0.5555549 -0.5168818 
-0.50066847 -0.46347222 -0.7311119 
0.03111502 -0.054552514 -0.998026 
0.52564853 -0.22959372 -0.819134 
0.81959265 0.56876165 -0.06912445 
0.40666047 0.87094176 0.27584 
0.650446 0.75869143 -0.036158256 
0.7732333 0.39221838 0.49827206 
0.8269311 -0.3069966 0.47110298 
0.2387069 -0.21266615 0.947519 
0.041298047 0.3216191 0.94596815 
-0.77194303 0.2502626 0.58435667 
-0.5676084 0.6502971 0.50491023 
-0.9016655 -0.35385677 0.24856566 
-0.6983496 -0.5113249 -0.5008541 
0.656588 -0.5907026 -0.4690017 
0.49602145 -0.23822367 -0.8349924 
0.4160046 -0.015599835 -0.90922874 
0.24912414 -0.7704514 -0.58680636 
0.3323419 -0.8869741 -0.32066494 
0.278083 -0.6944531 -0.66363007 
0.4132294 -0.8943185 0.17156932 
0.73904425 -0.5193685 0.4290339 
0.3693533 -0.6909626 0.62140876 
-0.04454033 -0.46181306 0.88585836 
-0.3041746 -0.54200566 0.7833951 
-0.7199786 0.050146945 0.69218224 
-0.98282844 -0.12949477 0.13145092 
-0.13586527 -0.6156501 -0.7762187 
0.1505393 -0.74555033 -0.6492247 
0.66118366 -0.7061909 -0.25324038 
0.17461321 -0.84152544 -0.5112192 
0.64954305 -0.23824358 -0.7220345 
0.97773486 0.055563945 -0.20235439 
0.8768382 0.46302837 -0.12945926 
0.80506176 -0.21604916 0.55244756 
0.7224494 -0.26521644 0.63853514 
0.11685733 -0.06458361 0.99104667 
0.25101188 -0.34048718 0.90612453 
0.11334691 0.6250891 0.77227986 
-0.016570825 0.31159273 0.95007133 
-0.6950297 0.64673257 0.31411907 
0.22079971 0.9734191 0.06085197 
0.19325061 0.7925574 -0.5783658 
-0.3955557 0.9068737 -0.14531304 
-0.56419414 0.49852654 -0.6581461 
0.2069078 -0.055628918 -0.97677773 
0.089811206 0.45370153 -0.8866166 
0.14600404 0.16916151 -0.9747139 
0.29270357 0.32035953 -0.9009409 
-0.3500839 0.9175684 -0.18844008 
0.4068402 0.7758069 0.48229125 
0.31898177 0.9066132 -0.27623028 
0.3595754 0.9070261 -0.21910998 
0.21572405 0.8661326 -0.4508631 
0.6297097 0.76425284 -0.13922371 
0.06528897 0.88237154 -0.46600193 
0.83708984 0.24875702 -0.48723775 
0.5014409 0.8651821 0.0041073817 
0.25787196 0.96357465 0.07089489 
0.1309221 0.9646182 0.22884716 
0.99180573 0.011203826 -0.12726359 
0.2629674 0.10294685 0.9592967 
-0.1214022 -0.119562484 0.9853763 
0.3295291 0.45998743 0.8245134 
0.018858586 0.14790863 0.98882127 
-0.15874791 0.5588561 0.8139282 
-0.33551753 0.67133874 0.6608573 
-0.24521992 0.58925915 0.76983166 
-0.59275556 0.46490344 0.65765166 
-0.13711734 0.8391459 0.5263393 
0.26281995 0.13337392 0.95558214 
-0.44269854 0.87900066 -0.17713289 
-0.93035376 0.17046851 0.32462645 
-0.76972467 0.60366863 0.20762493 
-0.77219206 0.15368384 0.61652315 
0.025124274 -0.42223597 0.90613776 
-0.899688 0.43580455 -0.025215289 
-0.88615876 0.12206743 -0.44701493 
-0.14021757 0.6092281 -0.7805 
0.4428067 0.089973904 -0.8920914 
0.9389584 -0.13574325 -0.31611866 
0.88101745 0.12254192 0.45693725 
0.51667756 -0.6840573 0.5148884 
0.21255434 -0.3673296 0.9054776 
0.3363793 -0.75878435 0.5577591 
0.74947816 -0.014875099 0.661862 
-0.03882482 -0.43313974 0.9004903 
-0.63219106 -0.04675336 0.77340066 
-0.8615681 -0.13919032 0.488187 
-0.7413411 -0.38841876 0.54730636 
-0.9558256 0.013013474 0.2936462 
-0.9355117 -0.26891127 0.22913921 
-0.65882987 -0.7338249 -0.1656633 
-0.81139004 -0.56995153 0.12962037 
-0.61894554 -0.65868086 -0.42783877 
0.45011783 -0.7575273 -0.472807 
0.09685248 -0.8049768 -0.5853479 
0.30545726 -0.4289458 -0.8501185 
0.66080534 -0.5988038 -0.4525155 
0.8960924 -0.42246696 0.1361617 
0.9864419 -0.05833061 -0.1533946 
0.42047602 -0.8589929 0.29211533 
0.5508461 -0.71848917 -0.42466688 
0.9318591 0.25275263 0.26029778 
0.54750437 0.7312897 0.40676096 
0.39191616 0.8912264 0.22829205 
0.20252861 -0.005438474 0.9792612 
-0.032581244 0.378053 0.92521054 
-0.83576673 0.44830093 0.3170494 
-0.92811954 0.37069434 0.03435094 
-0.9825568 0.0163275 -0.18524492 
-0.8162828 0.14681324 -0.5586844 
-0.4130057 -0.101606786 -0.90504277 
-0.20570706 0.6180897 -0.75871587 
0.16945574 0.6596542 0.7322166 
-0.32219648 0.7809465 0.53508145 
-0.6537161 0.21546552 -0.7254171 
0.1009684 0.907381 -0.40800145 
0.66485155 0.6281021 0.40430215 
-0.27636755 0.5055196 0.81735605 
-0.56813693 0.72514457 -0.38908333 
0.07889444 0.8880135 -0.4529988 
0.5866756 0.7016647 -0.4043249 
0.2874054 0.46078092 -0.83968997 
0.34034163 0.27168787 -0.9001963 
0.5101744 -0.78963095 -0.34088883 
0.9034309 -0.18674782 -0.38592494 
0.79542273 -0.605624 0.022855055 
0.7127893 -0.5684185 -0.41089165 
0.8268328 -0.17246802 0.5353526 
0.9290163 0.3632834 0.070385486 
0.52479374 0.82081485 -0.22550952 
0.54928213 0.70972615 0.4411099 
0.053662676 0.17515753 0.98307693 
-0.72208846 -0.26751217 0.6379855 
-0.81240666 -0.46187732 -0.35590014 
-0.7571616 -0.50062954 -0.41961452 
-0.49440184 -0.36558384 -0.7886161 
0.23034278 0.12805445 -0.9646473 
0.41205177 0.220075 -0.8841835 
0.3837634 -0.16963486 -0.90771675 
0.6318466 0.3767679 -0.67735946 
0.5113214 0.5003072 -0.698744 
0.451482 0.46008468 -0.7645169 
0.633391 0.07943077 -0.7697446 
0.8389756 0.033582877 -0.54313177 
0.73906314 0.46669546 0.48577884 
0.6907746 0.50160456 0.5207911 
0.012496973 0.6012765 0.7989433 
0.7470379 0.53624517 0.3929065 
0.3176239 0.6801119 0.6607291 
0.26486546 0.12237169 0.95648915 
0.13778901 0.7020127 0.6987077 
0.65369904 0.1063713 0.7492415 
0.62434316 0.122000694 0.77156436 
0.003123047 -0.3967975 0.91790086 
0.39986247 -0.40480268 0.8223411 
0.29253694 -0.56948286 0.7681871 
0.036685046 -0.31800634 0.9473786 
-0.28087395 0.2206676 0.93403196 
-0.60931444 0.68948424 0.39159605 
-0.9152828 0.22825961 -0.3318961 
-0.48328528 0.40927222 -0.77390677 
-0.5146159 0.83123 -0.21030293 
-0.72197825 0.6620267 -0.20116682 
-0.5999916 0.3146671 -0.7355234 
0.550134 0.15183303 -0.8211573 
0.6747173 0.27287254 -0.6857822 
0.6334223 0.31339028 -0.7075046 
0.64557636 0.13867517 -0.75099957 
0.6308648 0.538397 -0.5586934 
0.23814593 0.33740473 -0.9107385 
0.46834064 -0.30560255 -0.829014 
0.26698983 0.93788487 -0.22155891 
0.123016246 0.9347276 -0.3333938 
0.14333244 0.92513657 0.351537 
0.6209415 0.65220386 0.43481237 
0.55633295 0.42456582 0.71430916 
0.4722779 0.86878425 -0.1488879 
0.37367982 0.89258415 0.25230324 
0.21954313 0.8176475 0.53221565 
0.123330645 0.99208987 -0.023392523 
0.24309121 0.92869204 0.2800677 
0.11820788 0.37841958 0.91805536 
0.9569621 -0.18737464 0.22161761 
0.5927086 -0.19132055 0.7823637 
-0.40506804 -0.32620916 0.85411215 
-0.35736448 -0.25661308 0.8980203 
-0.16276687 0.18482986 0.9691981 
0.044872023 0.058271475 0.9972918 
-0.4305761 0.1591015 0.8884205 
-0.40594494 0.8439402 0.35067627 
-0.020477312 0.4606963 0.88732165 
-0.04254604 0.64837927 0.7601277 
-0.3765771 0.18086435 0.90855813 
-0.4829035 0.36094567 0.7978236 
-0.77938503 -0.22014761 0.58659524 
-0.17089921 0.46882164 0.8666024 
0.86617374 0.22516578 0.44614297 
-0.79543674 0.32425046 0.51199806 
-0.8144403 0.38346195 0.43548128 
-0.10497986 0.96455115 -0.24211644 
-0.21894401 0.903649 -0.3680792 
0.7754901 0.5943462 0.21299687 
0.6600403 0.7156213 0.22854543 
0.5542697 0.78602904 0.27375835 
-0.16249855 0.96681106 0.19715653 
0.42046958 0.90481263 0.06722659 
0.7093219 0.18165322 0.681076 
0.5525833 0.81905425 0.1542791 
0.96873707 0.17174967 -0.17902686 
0.626478 0.31724975 0.71195364 
0.37737098 0.13595793 0.9160277 
0.57112944 -0.232836 0.7871459 
0.24916567 -0.10905908 0.9623007 
0.18689427 0.0820998 0.97894347 
-0.5129815 0.6076783 0.6062814 
-0.50223315 0.42419007 0.75354135 
-0.54030156 -0.3581991 0.7614249 
-0.92157745 0.21404903 0.32384866 
-0.863695 0.36604938 0.34646615 
-0.886096 -0.123561226 -0.44672886 
-0.31320804 -0.31298384 -0.8966281 
-0.3938862 -0.47699857 -0.785701 
0.20917824 -0.16848816 -0.9632529 
0.9298473 -0.36588284 -0.03890836 
0.8925475 0.1402332 -0.42859513 
0.061692048 -0.5828199 -0.81025624 
0.20608251 0.24234098 -0.9480511 
0.6513818 0.7520711 -0.10045424 
0.9616533 0.19109304 -0.1967395 
0.84145427 -0.39857167 0.36482245 
0.67422175 -0.100879006 0.73160684 
0.76658124 0.3595841 0.53202695 
0.74024194 -0.23801756 0.62880015 
0.6823977 0.36284205 -0.63457 
0.7030881 -0.40587643 0.5838935 
0.5558357 -0.49079293 0.6709464 
0.5306632 -0.5994677 0.5991954 
0.60242814 -0.026086956 0.7977468 
-0.24464995 -0.63105017 0.7361536 
-0.21247847 0.555715 0.8037623 
-0.64927363 0.43650463 0.6228223 
-0.6352207 0.607954 0.47632623 
-0.17969517 0.96392393 -0.19636777 
-0.05452256 0.96659213 -0.25045347 
-0.59577566 0.58639026 -0.54881495 
-0.6718949 0.23458843 -0.7025137 
-0.60268563 0.5084462 -0.61502236 
-0.70454764 0.6060116 -0.36927307 
-0.7651874 0.38606703 -0.51520914 
-0.39360592 0.016757853 -0.9191266 
-0.26283526 0.4322579 -0.8625953 
-0.110389054 0.30088717 -0.94724923 
0.3215272 -0.4543518 -0.83077365 
0.08511223 -0.73967195 -0.6675637 
0.32283038 0.034465417 -0.9458291 
0.26373014 -0.27272812 -0.92523825 
0.57262325 0.35254568 -0.7401447 
0.6890949 0.6824285 0.24380249 
0.8838361 0.45788425 0.09579087 
0.40263614 -0.36470887 0.83956635 
0.83140236 0.3704191 -0.4141979 
0.06813903 -0.2554159 0.9644273 
0.013814712 -0.5103509 0.85985535 
-0.6715564 -0.26103035 0.6934517 
-0.9497584 -0.25182995 0.18585156 
-0.9779858 -0.14919186 -0.1458963 
-0.96596086 0.2552198 0.042219765 
-0.9728944 -0.002369203 -0.23123822 
-0.8680693 0.20957388 -0.45003843 
-0.59017193 0.045883305 -0.8059726 
-0.27433568 -0.028034864 -0.9612253 
0.5958356 -0.2583091 -0.7604317 
0.21657874 -0.40104473 -0.890088 
0.42007926 -0.35128406 -0.8367396 
0.298424 -0.6636877 -0.6859022 
0.57164913 -0.76630336 -0.2932515 
0.9066568 -0.41748878 0.060635325 
0.14907135 -0.6917915 0.70654255 
0.35464734 -0.74438447 0.5657889 
-0.23314299 -0.6942006 0.68097717 
-0.88247955 -0.43027368 0.18998538 
-0.9263048 0.34927565 0.14130059 
-0.78349537 -0.05178778 -0.6192358 
0.5106515 0.25956947 -0.81967 
0.8885758 0.22353408 -0.40058145 
0.8861713 -0.0752884 0.4572002 
0.7977765 -0.045455497 0.6012374 
0.97677034 0.1794618 0.11710411 
0.97766316 0.04997144 0.20415102 
0.729439 0.07143097 0.68030614 
-0.053047307 -0.17191094 0.9836832 
-0.20675924 0.15655535 0.9657852 
0.10017732 0.17264433 0.97987676 
-0.5850089 0.6694329 0.45784742 
-0.6644367 0.39003944 0.63748974 
-0.74936706 0.6213555 0.22883731 
-0.47220215 0.8773172 -0.08567211 
-0.049726043 0.6553093 -0.7537222 
-0.39904308 -0.0826323 -0.9132013 
-0.14871901 0.073790304 -0.98612255 
0.27582818 -0.023403818 -0.96092206 
0.05746295 0.13056813 -0.98977274 
-0.15863441 -0.21112682 -0.9645002 
0.31134376 -0.42257586 -0.8511726 
0.9224285 0.38502413 0.029701022 
0.9161816 0.36055237 -0.17496668 
0.76218754 0.5808249 -0.28585407 
0.78907305 0.24373008 0.5638789 
0.7992398 0.3283594 0.5033844 
0.18173735 0.9546699 0.23574752 
0.6404266 0.74909055 0.16946158 
-0.27583322 0.8912055 0.36009556 
0.5022346 0.85220087 0.14667718 
0.7258706 0.6877291 -0.011858109 
0.49271297 0.76057905 0.4227927 
0.1215947 0.11756445 0.98559296 
-0.20983796 0.43958738 0.87334466 
0.3401051 0.6504584 0.679141 
0.39277792 0.21394086 0.894402 
-0.027746825 0.13329265 0.9906883 
-0.22186469 -0.16022083 0.96182406 
0.6821205 0.41552848 0.60170406 
-0.23192488 0.2421102 0.9421219 
0.58591795 -0.35528943 0.7283335 
0.7508054 -0.47248283 0.46157467 
0.20740858 -0.42160672 0.88273984 
-0.4813269 -0.07373905 0.873434 
0.03518166 0.3561604 0.9337623 
-0.510761 0.47958896 0.7135249 
-0.39399233 -0.117389165 0.9115865 
-0.8716013 0.23041834 0.43268773 
-0.6366393 0.68375635 -0.35660595 
-0.38886723 0.83367336 -0.3921365 
0.5628119 0.47011372 -0.67987925 
0.5777963 0.030589543 -0.8156077 
0.89697886 0.09806254 -0.43106017 
0.9188976 0.14955014 0.36505052 
0.69326293 0.58000726 0.4277594 
0.93976766 -0.2046914 0.2737484 
0.59190685 0.37231848 0.7148604 
-0.23968403 0.29612425 0.92458755 
-0.29432768 0.031385567 0.9551891 
-0.6010977 -0.08471581 0.7946727 
-0.74572545 -0.6655096 0.03147311 
-0.88581467 -0.4502322 0.11235347 
-0.64934844 -0.5060847 -0.5676486 
-0.49131712 -0.7967179 -0.35192072 
-0.41313025 -0.4750025 -0.77697873 
-0.63369584 -0.622619 -0.45910263 
-0.08800207 -0.8493188 -0.52049327 
-0.10252302 -0.6731306 -0.7323826 
0.52437395 -0.43117842 -0.734246 
0.8280414 -0.43663576 -0.35170555 
0.9796553 -0.07550567 0.18594204 
0.95929694 -0.28145412 -0.023085216 
0.9489658 0.21411648 0.23155586 
0.9770095 0.19256645 -0.09149094 
0.56546396 0.4478006 0.692622 
0.2901395 0.05348223 0.9554888 
0.4761761 0.6272906 0.6162491 
0.7806105 0.32975167 0.53095293 
-0.4474316 0.770779 0.4535469 
-0.4846838 0.73451585 0.47494018 
-0.74647033 0.4895098 0.45073527 
-0.90424836 0.34312397 -0.2541668 
-0.7653651 0.24309072 -0.59592205 
-0.79913205 -0.008143835 -0.6011004 
0.06260172 0.47973242 -0.87517875 
0.6482452 0.39334163 -0.6519667 
0.4074488 0.86068606 0.30529523 
0.24760818 0.95382214 0.17004016 
0.1832005 0.87735236 -0.44349802 
0.73454654 0.35795537 0.57646286 
0.28661144 0.80343556 0.52186716 
-0.36741403 0.62901 0.68509376 
-0.47721648 0.7687683 -0.425746 
0.19557407 0.7500699 -0.6317801 
0.38146332 0.032683156 -0.9238061 
-0.42501056 0.1986198 -0.8831287 
0.117969096 -0.34977323 -0.9293772 
0.40400466 -0.6610207 -0.6323227 
0.41069117 -0.37017122 -0.8332502 
0.49843454 0.1959681 -0.84448767 
0.016721325 -0.29377487 -0.9557284 
0.5695139 0.55695546 -0.6045284 
0.6582513 0.742353 0.12496898 
0.6324556 0.5728475 0.5213883 
0.5004708 -0.1600914 0.85082304 
0.08485869 -0.17520039 0.980869 
-0.7148039 -0.2153952 0.6653273 
-0.8676953 0.49018875 -0.08258257 
-0.88537115 0.29035506 -0.36305907 
-0.6659415 0.4466257 -0.5975346 
-0.20090531 0.8835602 -0.42303485 
0.4234546 0.2820189 -0.86090165 
0.43862754 0.17786157 -0.88089234 
0.5348892 0.17845479 -0.82586163 
0.34175763 0.23026717 -0.9111415 
0.69787437 0.30709046 -0.6470448 
0.56568366 0.24739207 -0.7866379 
0.8271741 0.40268543 0.39195332 
-0.19508158 -0.05085475 0.97946775 
-0.6448575 0.5277754 0.5528219 
-0.2280967 0.73396915 0.63973534 
0.20994484 0.6654655 0.71629536 
0.713463 0.43650028 0.5481223 
0.40464434 0.057364777 0.91267323 
0.58524317 -0.2114655 0.78279805 
0.10290828 -0.6770166 0.7287376 
-0.013723301 -0.5821428 0.8129708 
0.05941211 -0.26141626 0.963396 
0.37123755 -0.71183985 0.5962104 
-0.28322747 -0.8728896 0.3972985 
-0.23962268 -0.17593697 0.95479167 
-0.4883666 0.36132574 0.7943185 
-0.78316975 0.6124757 0.107325576 
-0.64976317 0.58933425 -0.48009688 
-0.7381715 0.49742728 -0.45570707 
-0.2880005 0.34156987 -0.8946428 
0.041174762 0.1854749 -0.98178595 
-0.0032810797 0.9226746 -0.38556576 
0.24489687 0.8339547 -0.49451503 
0.66924244 0.7420806 -0.037828077 
0.7015605 0.46716443 -0.5381174 
0.5927663 0.2622426 -0.76148355 
-0.24692692 0.8799428 -0.40586674 
0.517151 0.35491177 -0.77884054 
0.17173812 0.7921812 -0.5856235 
-0.09104087 0.63558465 -0.7666445 
0.45094082 0.8038406 0.38793397 
0.28886905 0.8427759 0.45418444 
0.6456531 0.28621522 0.70796394 
0.40997466 0.6973248 0.58792776 
0.08796259 0.953408 0.28857574 
-0.10982881 0.96398646 -0.2422143 
0.14525029 0.9834298 0.108481646 
0.64964575 0.75732654 0.06646007 
0.71896803 0.2941745 -0.6297193 
0.114060774 -0.7333461 0.6702192 
0.35798913 -0.28789666 0.88823384 
0.5571887 0.34178343 0.756786 
0.08921127 -0.86085665 0.50096637 
-0.40940326 -0.71965706 0.5607876 
-0.19540973 -0.2549975 0.94699067 
-0.5467316 -0.42925662 0.71890426 
-0.61517334 0.35625464 0.7033096 
-0.31570804 0.2949832 0.90183884 
-0.18283927 0.5142663 0.83791417 
-0.7488267 0.19958076 0.6320017 
-0.3964251 -0.6335175 0.6644567 
0.26192823 -0.32919377 0.9072073 
0.26105052 -0.1616208 0.9516992 
-0.077066384 0.39624 0.9149069 
-0.18412694 0.58601147 0.7891058 
-0.024965178 0.872757 0.48751625 
0.08090054 0.93932915 -0.33334067 
0.66223174 0.7390217 0.123677395 
0.9638459 0.0030351172 0.26644328 
0.6671117 0.6889475 0.28339624 
0.24392326 0.38728106 0.8891091 
-0.49839383 0.8616539 -0.095688336 
0.6775813 0.6381885 0.3655122 
0.646849 0.72401613 0.23955627 
0.19830605 0.97206926 0.12552333 
0.68514055 0.4445137 0.5770529 
0.92499363 0.08013466 0.37143695 
0.87725043 -0.43207896 0.2091397 
0.46433905 0.36091086 0.8087846 
0.1391095 -0.07791781 0.9872069 
0.17637159 0.059845764 0.98250276 
-0.3395657 0.17274581 0.9245832 
-0.12621024 -0.022718137 0.9917434 
-0.80990034 0.32277098 0.48977584 
-0.8657845 -0.44736958 -0.22422683 
-0.7560813 -0.113276765 -0.6446004 
0.2207042 -0.7200875 -0.65784776 
0.025477016 0.2140533 -0.9764897 
0.26853046 -0.13197963 -0.954187 
0.22957928 -0.13840778 -0.9633985 
0.90751463 0.099574216 -0.4080467 
0.6787324 -0.6412063 -0.35801798 
0.9526754 -0.18596315 -0.24047308 
0.91201365 0.39298487 0.11744805 
0.8579919 0.5080053 0.07602969 
0.97686887 -0.10884905 0.18406302 
0.88496363 -0.398735 0.24052013 
0.6000405 0.13045838 0.7892604 
0.93686914 -0.118711255 0.3289134 
0.57034165 0.40858316 0.71258 
0.60765666 0.50083536 0.6163744 
0.45832974 0.1131517 0.8815501 
0.4136262 -0.5698982 0.71002084 
0.03412103 -0.66662514 0.74461186 
0.63469374 -0.2319164 0.73714226 
-0.106451 -0.5407042 0.8344503 
-0.064267255 -0.12711106 0.98980427 
-0.52152324 0.5225854 0.6744762 
-0.048959278 -0.03331402 0.99824506 
0.1289404 0.78760666 0.60253656 
-0.2567853 0.6823264 0.6844648 
-0.54047865 0.67950195 0.49614516 
-0.8881871 0.17328207 0.42555517 
-0.5938595 0.6213715 -0.5111051 
-0.23866245 0.9579289 -0.15941322 
-0.3894935 0.7711635 -0.5035887 
-0.177244 0.24691615 -0.9526894 
-0.09998222 0.34627786 -0.932789 
-0.24046515 -0.0323349 -0.97011906 
-0.31114247 0.52717024 -0.79074776 
0.117787205 -0.44086882 -0.8898095 
0.39656332 -0.0054761395 -0.91799116 
0.098895125 -0.039772443 -0.99430275 
0.7619482 0.64315695 -0.07605408 
0.5668528 0.61247444 0.55095655 
0.3994057 0.73548096 0.54730505 
0.9920384 0.112899564 0.055799566 
0.78365624 0.48699644 0.38563913 
-0.4475756 0.31742415 0.83601314 
-0.33645347 0.5705848 0.7491543 
-0.72770226 0.21279791 0.652048 
-0.73801553 -0.6137493 0.2804369 
-0.9316805 0.10603615 -0.3474593 
-0.96008414 -0.24242458 -0.13953075 
-0.6478403 0.7616098 -0.015928138 
-0.6772699 0.71702087 0.16488385 
-0.621269 0.73925215 0.25986758 
-0.6377281 0.5017244 -0.5844447 
0.50227475 0.35792774 -0.7871517 
0.4475478 -0.46439713 -0.76422274 
0.4709206 -0.53687173 -0.7000019 
0.43692198 -0.7139423 -0.54716146 
0.57436585 -0.81812435 -0.027866647 
0.84564054 -0.52888066 -0.07195519 
0.8899004 -0.3353815 0.30918694 