# OOMMF: rectangular mesh v1.0
# Segment count: 1
# Begin: Segment
# Begin: Header
# Desc: Time (s) :  3.5800000000000006e-07
# Title: m
# meshtype: rectangular
# meshunit: m
# xbase: 2e-09
# ybase: 2e-09
# zbase: 5e-10
# xstepsize: 4e-09
# ystepsize: 4e-09
# zstepsize: 1e-09
# xmin: 0
# ymin: 0
# zmin: 0
# xmax: 1.024e-06
# ymax: 1.024e-06
# zmax: 1e-09
# xnodes: 256
# ynodes: 256
# znodes: 1
# ValueRangeMinMag: 1e-08
# ValueRangeMaxMag: 1
# valueunit: 
# valuemultiplier: 1
# End: Header
# Begin: Data Text
-0.0513132 -0.94053686 -0.33579385 
0.09157098 -0.66601115 -0.7402999 
0.64101344 -0.46629795 -0.6096459 
0.6183537 -0.0654673 -0.78316844 
0.34218153 -0.2763066 -0.8980905 
0.3253806 -0.8155326 -0.478575 
0.2159069 -0.1476583 -0.9651846 
0.92054933 0.36437672 0.14077851 
0.55778974 -0.47906333 -0.6777677 
0.91528726 0.010299758 -0.40267023 
0.66775316 0.32244793 -0.67091966 
0.9321167 -0.2760372 -0.23444003 
0.74379927 -0.49030477 0.45427296 
0.77036935 -0.17347158 0.613546 
0.49643657 -0.5900236 0.63672835 
0.78717035 -0.01005961 0.6166536 
0.12712857 -0.5552215 0.82192916 
-0.58293176 0.033777066 0.81181884 
0.011269819 -0.55999297 0.82842076 
0.81867844 -0.43192485 0.37842652 
0.36928782 -0.3902719 0.84339464 
-0.27070925 -0.7104516 0.6495961 
0.17234726 -0.7453913 0.64396304 
0.15589917 -0.9802837 -0.12140556 
-0.2035137 -0.76171327 -0.61512214 
-0.11004692 -0.32158783 -0.94046324 
0.16903986 0.1255587 -0.97757894 
0.49918947 -0.10950795 0.85954523 
0.6515583 -0.3876715 -0.65206033 
0.8946652 -0.29784682 -0.33295876 
0.9660215 -0.2296987 0.11849475 
0.71196496 -0.37875026 0.5913156 
0.40519574 -0.33462176 0.8507906 
0.29292402 -0.26701224 0.9180959 
0.5357941 -0.739641 0.4072542 
0.7173728 -0.19904731 0.66765004 
-0.041799966 -0.075488344 0.99627024 
-0.33872977 -0.38797322 0.8571691 
-0.97485155 -0.021459907 0.22181949 
-0.57908016 -0.8150044 -0.020832589 
0.07565094 -0.96754843 0.24109559 
-0.76913685 -0.6320941 0.094264075 
0.49999836 -0.23230374 0.8342882 
-0.4200685 -0.724923 0.54592055 
-0.50300723 -0.54855174 0.6678883 
-0.24767236 -0.82165706 0.51335984 
-0.053395767 -0.84935844 0.5251088 
-0.7831584 -0.54151744 0.3056498 
-0.84309614 -0.21357647 0.49353236 
0.27566105 0.9605729 0.03620398 
0.7019406 0.008423171 -0.7121858 
0.37807694 -0.86505467 0.32975495 
-0.7795533 -0.59824634 0.18546736 
-0.72809374 0.5702803 0.38034177 
-0.9135726 0.3427889 -0.21881688 
-0.6837826 0.59169257 -0.42701438 
-0.821029 -0.3865715 0.42008796 
-0.68137413 0.5712031 -0.4576641 
0.23990786 0.5369973 -0.808751 
-0.060487267 0.87340343 -0.48322648 
-0.461473 0.5621404 -0.68632424 
-0.83510005 0.3601294 -0.4158303 
-0.77123857 0.165901 -0.6145471 
-0.93180984 -0.11253379 -0.34506035 
-0.5736485 0.7892523 -0.21910785 
-0.9843547 0.070483916 0.16148648 
-0.61854255 0.66775507 -0.41413575 
-0.19816907 -0.04910869 -0.97893685 
-0.31356627 -0.44987896 -0.8362328 
0.21669388 -0.8300914 -0.51380146 
0.49585715 -0.11878206 -0.8602421 
0.18535277 0.31877866 -0.92952925 
0.15610611 0.15036969 -0.9762274 
0.35950914 -0.665158 -0.65446013 
-0.22758602 -0.78144485 -0.5809893 
-0.038396332 -0.40324 -0.91428846 
0.22191943 -0.8135367 -0.53750336 
0.22108573 -0.97106117 -0.09034086 
-0.5036546 -0.18551128 -0.8437521 
-0.13259766 -0.2530086 -0.9583342 
-0.24678367 -0.08617982 -0.96523106 
-0.12324475 0.06472929 -0.99026304 
0.27196434 -0.56673914 -0.777716 
-0.051787943 -0.18456346 -0.98145527 
0.3784846 -0.41475824 -0.82748127 
0.7608088 -0.026830245 -0.6484212 
-0.8553897 0.48895732 -0.17096569 
-0.15569587 0.4453159 0.88173276 
-0.06652099 0.27628434 0.9587711 
0.010972759 0.83743733 0.5464234 
-0.25623065 0.8957016 0.36340702 
-0.32857087 0.9056983 0.26786554 
-0.13839112 0.4946981 0.8579753 
-0.2985523 0.36056662 0.88366187 
-0.2285896 0.8410873 0.49022353 
-0.42876855 0.6874395 -0.5861608 
-0.5004678 -0.33730844 -0.7973425 
-0.94808954 -0.30254388 -0.09794606 
-0.026987946 -0.86552906 -0.50013113 
-0.39367366 -0.67542857 -0.62355226 
-0.26716277 -0.585464 -0.7654123 
0.13571839 -0.028752105 -0.99033016 
0.69904584 0.22101171 -0.6800652 
0.80431724 0.3903766 -0.4479731 
0.49722975 -0.5301382 -0.686816 
0.048110887 -0.998692 0.017311668 
0.16455603 -0.48141906 0.8609049 
-0.55079734 -0.028114727 0.8341654 
-0.35638618 0.69808984 0.62101495 
0.60107267 0.74846965 0.2801872 
0.63544947 0.023067746 0.77179784 
0.43528602 0.62995666 0.6431802 
0.8241199 0.36426368 0.4337494 
0.8297615 0.087005064 0.55129474 
0.51118594 0.8086876 0.2910557 
-0.243347 0.48312297 0.8410556 
0.12529762 0.88656616 0.44530985 
-0.25173476 0.91847074 0.30502644 
-0.48089793 0.81531227 -0.32249543 
-0.5285714 0.24016768 -0.8142063 
-0.3127764 -0.9123893 -0.2640393 
-0.7337399 -0.66731286 0.12774685 
-0.8638358 0.22239728 -0.45202574 
-0.7226251 -0.6382077 -0.26552606 
-0.2641313 -0.5817972 -0.7692508 
0.72565556 -0.5209526 -0.44948015 
0.6265677 -0.7538891 -0.19764638 
0.61971474 -0.66622436 0.41484803 
0.8523361 -0.3903529 0.34806296 
0.9007839 0.18517652 -0.39280793 
0.7627231 -0.60851234 0.21901213 
0.4990348 -0.2083836 0.84115434 
0.47591573 0.17776652 0.8613381 
-0.25682306 0.509768 0.8210838 
-0.49822953 0.6964734 0.51642257 
-0.863796 0.5038325 0.0030787978 
-0.1415978 0.34668675 -0.92723155 
-0.31087357 0.09662061 -0.94552743 
-0.08375868 -0.45227447 -0.88793707 
0.007993961 -0.26150677 -0.9651686 
0.32416576 -0.7030314 -0.6329798 
0.23953609 0.085430756 -0.9671216 
0.7616313 -0.556175 -0.33254656 
0.6619639 -0.6225158 -0.4174661 
-0.35576662 -0.4916879 -0.7947787 
0.35983515 -0.44070053 -0.8223757 
0.844796 -0.26087365 -0.46718815 
0.7668284 -0.6370476 -0.07838676 
0.21511765 0.11600768 0.96967345 
-0.22077718 -0.10096051 0.9700848 
0.93323094 -0.19801438 0.2997838 
0.9094012 0.41011152 0.06926921 
0.40039533 0.3918043 0.8283556 
0.31020743 0.8144249 0.4903913 
0.26839244 0.96330065 -0.004173603 
0.1409265 0.9846651 0.10283229 
0.9520265 0.30528086 0.02119498 
0.7978154 0.59671324 -0.086162984 
0.87670845 0.23916584 0.4173511 
0.7735062 -0.17821105 0.60821784 
0.27746937 0.375769 0.8841994 
0.66788834 0.30201212 0.68023074 
0.25618935 -0.22746974 0.939481 
0.5154465 -0.18747269 0.8361633 
0.7713906 0.0809136 0.63119704 
0.38511345 0.65800554 0.6470829 
0.15188816 0.92418677 0.35044083 
0.6297294 0.26687282 0.729534 
0.7618683 0.1633661 0.6267921 
0.44910818 0.6474393 0.6157307 
-0.08342106 0.39287382 0.9158008 
0.29910427 0.71616226 0.6305936 
-0.32741147 0.8305352 0.45056966 
-0.3104511 0.8948911 0.32060888 
-0.3398731 0.93504936 -0.10084228 
-0.45851526 0.78199285 -0.42219776 
-0.067075804 0.44547245 0.8927795 
0.4385508 0.27071074 0.85696495 
0.2087433 0.7003014 0.6826451 
0.019054009 0.22311735 0.9746054 
0.069336355 -0.0072749075 0.9975668 
0.04120222 -0.5768085 0.8158397 
0.040920086 -0.06151562 0.99726695 
-0.04408332 0.058462173 0.9973159 
-0.40704623 -0.415319 0.8135255 
0.64868283 0.029703524 0.760479 
-0.6525821 0.40553287 0.64006233 
-0.26383978 0.6184105 0.7402413 
-0.25118893 0.75463396 0.6061615 
-0.4994118 0.8388528 -0.21659611 
-0.02987612 0.42319298 -0.9055469 
-0.24504477 0.19453655 -0.949794 
-0.7897377 0.4572815 -0.40891075 
0.09699718 0.75091237 -0.6532398 
-0.27868858 0.82616776 -0.48967305 
0.010973878 -0.26155537 -0.96512616 
-0.25701383 -0.506357 -0.8231322 
-0.02929844 -0.90531564 -0.42372784 
-0.019125126 -0.9101603 -0.41381466 
-0.20137599 -0.8741673 -0.4419042 
0.9339964 -0.33937985 -0.11167901 
0.73543465 -0.40899226 -0.5402419 
0.87160546 0.48840204 -0.04204033 
0.6301785 0.6930985 -0.34998512 
0.97143626 -0.23572296 -0.02731752 
0.67638373 -0.32594392 0.66050416 
0.1776132 0.070145205 0.9815973 
0.08479946 0.5646626 0.82095397 
-0.78993636 0.5585979 0.25292075 
-0.424988 0.86345816 0.27170795 
-0.1592328 0.80739135 -0.56812346 
-0.27286795 0.65375435 -0.7057963 
-0.4717014 0.19635062 -0.8596187 
-0.011295028 -0.093533315 -0.9955522 
-0.3679569 -0.25463125 -0.894299 
-0.039777275 0.36206347 -0.93130445 
0.5736046 0.25465843 -0.77854145 
0.4272106 -0.12663592 -0.89523995 
0.2460712 0.87731445 -0.41202974 
0.41323972 0.90639 -0.087693915 
0.5532713 0.83206135 0.03955841 
0.5168585 0.8432815 -0.14742309 
0.5224645 0.7857727 -0.33104712 
-0.5059159 0.8596929 0.07055178 
-0.7354 0.62581134 0.2598981 
-0.94093674 -0.008414922 -0.33847788 
-0.5407058 0.5183663 -0.66252077 
-0.5937209 0.5885624 -0.54871655 
-0.86402655 0.3748873 -0.33603236 
-0.2805114 0.6816335 -0.6757878 
-0.5697747 -0.22928308 -0.789168 
0.64095366 -0.09339082 -0.76187706 
0.018957881 0.1403682 -0.98991793 
0.17934205 0.31784657 -0.9310264 
0.16660714 0.2068857 -0.96407497 
-0.43709263 0.24831957 -0.86445796 
-0.03555262 0.38157195 -0.9236552 
0.5004047 0.70875585 -0.49725282 
-0.09950378 0.6192167 -0.7788901 
0.5232718 0.36906987 -0.7680978 
-0.37426758 0.9267999 0.031075602 
-0.55356085 0.8321026 0.034289677 
0.40799996 0.06274686 -0.91082317 
-0.53184193 0.62060463 -0.5761894 
0.17015032 0.31443787 -0.93390465 
-0.49111086 0.5105913 -0.7057668 
0.19644062 0.110086404 -0.97431624 
0.20057498 -0.07799499 -0.9765687 
0.4934897 -0.39432243 -0.7752276 
0.36906672 0.51036376 -0.77673584 
0.9830706 0.12501492 -0.13395344 
0.8605472 -0.23722917 0.450756 
0.70990676 0.19817075 0.6758409 
-0.09212812 0.39534026 0.913903 
-0.6508841 0.14652443 0.7449031 
0.36978522 -0.15979561 0.91527283 
-0.20979263 0.15167981 -0.96590906 
0.34865907 -0.3151512 -0.8826759 
0.8630563 -0.11840117 -0.49103472 
0.8112896 -0.017387962 -0.58438593 
0.4892192 0.07191243 -0.8691912 
0.0690214 0.18121743 -0.981018 
0.5695176 0.41910383 -0.7071081 
0.9922669 -0.121200785 -0.026772788 
0.77994376 0.60656935 -0.15414691 
0.86852765 0.4924851 -0.055841677 
0.8310382 0.5390885 0.13696495 
0.7926523 0.42965266 -0.43255153 
0.98661923 0.1268845 0.10238575 
0.74775654 0.028573701 0.663358 
0.23938796 -0.27896997 0.9299835 
0.3110318 0.106663816 0.94439507 
-0.6436011 -0.10700232 0.7578445 
-0.53744876 -0.49604487 0.6819739 
-0.12565447 -0.97437346 0.18656714 
0.27829278 -0.94686097 -0.16126814 
0.066952616 -0.81656677 0.5733552 
0.4115883 -0.43686593 0.7998396 
0.025120284 -0.8565338 0.5154792 
0.04766502 -0.92630666 0.37374344 
0.21954213 -0.44129708 -0.8700909 
0.32368004 0.5904577 -0.73931795 
0.35967854 0.074754626 -0.930077 
0.74819785 -0.060698297 -0.66069335 
0.556016 -0.727393 -0.40217635 
0.47211397 -0.87787944 -0.08022555 
0.84154 -0.5285027 0.11178313 
0.39704478 -0.77924 0.4849128 
0.10298069 -0.81424695 0.5713116 
0.13757952 -0.41334334 0.90012175 
0.80014753 -0.51181597 0.3127435 
0.78772926 -0.35806656 0.50126946 
0.29273278 -0.11884714 0.94877976 
-0.18305525 0.09317773 0.9786771 
-0.9014556 -0.17818391 0.3944975 
-0.3007609 -0.951468 0.065204635 
-0.14745364 -0.9232444 0.35479167 
9.4554285e-05 -0.9631805 0.26885593 
-0.13475928 -0.7753472 0.61699 
-0.23177014 -0.82901305 0.5089403 
-0.45329326 -0.78192055 0.4279317 
-0.14919324 -0.94249207 -0.2990821 
0.30400953 -0.5731851 0.76094484 
0.65371513 -0.74844986 0.11171142 
0.6399924 -0.71561784 0.27982306 
0.7584883 -0.588819 -0.27926287 
0.94547224 -0.27477622 -0.1748726 
0.5416309 -0.74439186 0.39053392 
-0.36191407 -0.28252268 0.8883688 
-0.18457927 0.9332138 0.30829 
-0.7753189 0.3450654 0.5289713 
-0.534608 0.7937417 0.29011816 
-0.59670305 0.5338244 0.59914696 
-0.88985705 0.18899289 0.41525427 
-0.65243477 0.5182846 0.5529104 
-0.34381244 0.9387645 -0.02267674 
-0.37358528 0.1426518 -0.9165613 
-0.7379787 0.6667954 0.10378552 
-0.9843975 0.16147064 0.06992028 
-0.8301363 0.4936769 -0.2591467 
-0.98145276 0.18238333 0.059050057 
-0.949347 -0.28639838 -0.1292915 
-0.81596893 -0.03651871 -0.57694125 
-0.4569055 -0.10164249 -0.88368905 
-0.1786166 0.17445783 -0.9683288 
-0.3462841 -0.14688362 -0.92655957 
-0.8306275 -0.26565766 -0.48937115 
0.34452516 -0.16535199 -0.9241002 
0.31767684 0.24882044 -0.91496986 
-0.17417456 -0.17958164 -0.9682013 
0.4403509 -0.8199242 -0.3658079 
0.052551188 -0.15866125 -0.9859336 
-0.25592837 -0.6333058 -0.7303592 
0.1744046 -0.32104033 -0.93086857 
0.72475225 -0.012457337 -0.688897 
0.9978256 0.009968872 -0.06515145 
0.4254501 -0.7321181 -0.53197294 
0.2739161 0.5188526 -0.80979127 
0.8831576 -0.08616482 -0.46109477 
0.8142479 0.09070505 -0.57338727 
0.61959046 0.5407565 -0.5689378 
0.59850883 0.6786549 -0.4256932 
-0.41517708 0.9097202 0.0061095306 
-0.25399214 0.71860456 0.6473759 
0.2861584 0.11106527 0.9517237 
0.58029777 0.5358794 0.61326 
0.074663445 0.4221633 0.90343994 
-0.013901424 0.56324816 0.826171 
0.5012517 0.25202534 0.8277862 
-0.37418962 0.29848355 0.87800324 
-0.6438802 0.16641283 0.74680996 
-0.9487343 0.27890694 0.14870884 
-0.8380111 0.2642299 -0.47740984 
-0.6874826 -0.17743357 -0.7041911 
-0.65770644 -0.47955823 -0.58090127 
0.14669573 -0.06702463 -0.9869084 
-0.14469782 -0.24011888 -0.95989865 
-0.19832233 0.054269843 -0.9786333 
0.6858503 -0.44873986 -0.572924 
0.9176068 0.26772133 -0.29380807 
0.5937972 -0.09470791 -0.7990216 
0.48529658 -0.8581572 -0.16749212 
0.7485766 -0.5680707 0.3419485 
0.86020213 -0.2499049 0.4445219 
0.37804633 -0.656091 0.6531658 
0.73774713 0.006441397 0.6750465 
0.93764216 0.34135652 0.06559739 
0.966937 0.13883738 0.21390885 
0.3937008 0.8933101 0.2167872 
0.4590562 0.8142939 0.35523647 
0.24905746 0.050372075 0.9671779 
-0.030294491 0.7076744 0.70588905 
-0.021875268 0.363369 0.9313885 
-0.078573994 0.24509324 0.9663102 
-0.8373031 0.43100423 -0.33639103 
-0.76299006 0.3345058 -0.55312943 
-0.98166704 -0.031860504 0.18792221 
-0.83035487 -0.48949423 0.26628235 
-0.98804855 -0.10555999 -0.11232626 
-0.77110356 -0.5623854 -0.2985331 
-0.10750837 -0.26939523 -0.95701003 
0.24044484 -0.67595303 -0.69661593 
0.010198974 -0.8810444 -0.47292385 
0.48919642 -0.8628342 -0.12729532 
0.5526395 -0.7760298 -0.30392024 
0.98577535 -0.15121953 -0.073345795 
0.6662102 -0.6364142 0.3887688 
0.8723739 -0.42948577 0.23346527 
0.90419996 -0.4241008 -0.050606534 
0.86669385 -0.28529027 0.4092082 
0.2871638 -0.14280696 0.94717646 
0.103276744 0.98477894 0.13980114 
-0.5637937 0.79438686 -0.22602248 
-0.8128905 0.4476265 -0.3726119 
0.389126 0.0112556545 -0.92111576 
0.34910703 0.5138914 -0.7836071 
0.2888466 0.34173596 -0.89430654 
0.44193426 0.50173587 -0.7436096 
0.39250574 0.25273335 -0.88434446 
0.3597779 0.055247623 -0.9314009 
-0.2134723 -0.32142618 -0.92255884 
0.14243802 -0.33238855 -0.93232465 
0.9893215 -0.03704955 -0.14096251 
0.7691854 -0.60454947 -0.20705979 
0.9581103 -0.2723752 -0.08852462 
0.9320383 -0.31844905 0.17290094 
0.85761434 -0.48480064 0.17165671 
0.73401284 -0.6130465 0.29223147 
0.742949 -0.06429461 0.66625303 
0.88753194 0.04552716 0.45849136 
-0.42650935 0.8216483 0.3781322 
0.35540402 0.91559017 -0.18810317 
0.42160812 0.8328921 0.35852134 
0.449081 0.45967293 0.76617706 
0.6719252 -0.53324294 0.5139733 
0.26963285 -0.82223487 0.5012266 
0.40705904 -0.186421 0.8941757 
0.019545957 -0.17347546 0.9846443 
0.35544235 0.6907139 0.6297421 
0.049951863 0.5289766 0.84716505 
-0.42250323 0.013503685 0.9062609 
-0.8355092 -0.2368086 0.49582872 
0.6295021 -0.537309 0.561272 
0.7534745 0.09790488 0.6501469 
0.60451436 0.2911608 0.74147683 
0.65879375 0.15177104 0.7368558 
-0.48238695 0.31871045 0.8159207 
-0.26850164 0.8842741 0.38205525 
-0.13821653 0.8188181 0.5571652 
0.25164625 0.96462935 -0.078513324 
-0.18873905 0.9775874 -0.09327632 
0.31422544 0.9408922 -0.12642884 
0.21307437 0.8162963 0.5368984 
0.47045496 0.5500785 0.6899898 
0.73934597 0.12551683 0.6615233 
-0.34143227 -0.7928916 0.50472456 
-0.1990618 -0.6239797 0.75566113 
-0.15887879 -0.5297327 0.8331512 
-0.121742666 -0.2509538 0.960313 
-0.7945482 -0.10834864 0.597456 
-0.22291867 0.0130267525 0.9747501 
-0.3024136 0.36512846 0.88047 
-0.17351697 0.75082785 0.6372985 
-0.34422594 0.46884945 0.81344247 
-0.47316533 0.41292673 0.77820706 
-0.38251477 0.91966236 -0.08890284 
-0.11988071 0.92538106 0.35958108 
-0.96484107 0.23514442 -0.11742596 
-0.5240335 0.8155515 0.24548863 
-0.6104999 0.78391796 0.112971656 
-0.04686687 0.6658713 -0.7445932 
-0.23023126 0.48011884 -0.84645116 
-0.5254107 0.18091246 -0.831393 
0.15699893 -0.63581747 -0.75570333 
0.24567348 -0.4497824 -0.8586853 
0.68463707 0.32463074 -0.65260017 
0.43177918 0.06902946 -0.8993341 
0.78372866 -0.55623156 -0.276362 
0.3924652 -0.7259738 -0.5647418 
0.85860556 -0.16206266 -0.4863459 
0.8244104 -0.30183378 -0.47879425 
0.46152458 -0.4353082 0.7729825 
0.54157615 0.14377443 0.8282659 
0.07668866 0.3236666 0.94305825 
-0.8967902 0.0032045392 0.4424445 
-0.7779315 0.3638385 0.512293 
-0.6138452 0.55279523 0.56357026 
-0.5029741 0.83729357 0.2143752 
-0.8875139 0.46076626 0.0036831256 
-0.8282861 0.3875977 -0.40461117 
-0.10194634 0.095175646 -0.99022657 
-0.1440946 -0.1949729 -0.9701662 
0.386008 0.41557035 -0.8235893 
0.5591452 0.55627364 -0.614749 
0.4494234 0.6359286 -0.62738633 
0.33072507 0.93023664 -0.15899928 
0.6548135 0.6219751 0.429379 
-0.12089939 0.80175954 0.5852905 
0.41793615 0.51662695 0.7472791 
-0.26483575 0.37931886 0.8865547 
-0.67368174 0.73887235 0.014855288 
-0.661851 0.68669623 0.30066866 
-0.72810876 0.67720044 -0.10609999 
-0.8636481 -0.42870054 -0.2651938 
-0.79175407 0.16793445 -0.58730197 
-0.4084345 0.8714239 -0.27166453 
-0.528325 0.6342068 -0.56449485 
-0.44346455 -0.042898808 -0.8952648 
0.3881084 0.0988616 -0.91629595 
0.60353583 0.096315295 -0.79149723 
0.49574757 0.30159637 -0.81441647 
0.16301756 0.66665345 -0.7273229 
-0.09689237 0.5016464 -0.85962945 
0.71317947 0.63204986 -0.30313054 
0.10444482 0.861317 -0.49721664 
-0.115183964 0.99258184 -0.03891128 
-0.37712502 0.66979635 0.6396481 
-0.12808914 0.94081795 0.31377527 
0.3627623 0.9217404 -0.13710667 
0.13265549 0.9641267 -0.22991817 
0.043228574 0.85931075 -0.5096238 
-0.47186846 0.74026394 -0.47890446 
0.35161552 0.04219377 -0.9351932 
0.8536064 0.0033041348 -0.52090794 
0.043069135 0.4457547 -0.8941185 
0.416312 0.2634264 -0.87022465 
0.6340251 0.75064754 -0.18585078 
0.710796 0.43572134 0.5521921 
0.15988363 0.046583626 0.9860362 
-0.023765597 0.22439227 0.9742091 
0.19346154 -0.28976053 0.9373428 
-0.8787883 -0.4240312 0.21892634 
-0.026930843 0.8865865 -0.46177837 
-0.08475778 0.3009458 -0.94986725 
0.16502889 0.38540632 -0.90786976 
0.4300886 0.31466842 -0.8461724 
0.21798024 0.49068123 -0.84363306 
0.29095882 0.19334415 -0.93699574 
0.32382014 0.3325792 -0.8857379 
0.6305106 0.70210975 -0.3309053 
0.47463652 0.76510924 -0.4351185 
0.35856655 0.867556 0.34463975 
0.5522957 0.5780807 0.6006598 
0.88608605 0.43131518 -0.16976108 
0.75651634 -0.58186936 0.2985149 
0.64862543 -0.014074549 0.7609776 
0.31277952 -0.6973828 0.6448459 
0.585689 -0.36578253 0.723306 
0.052659377 -0.76936585 0.6366343 
-0.74420047 -0.6453522 0.17229688 
-0.21759912 -0.9144672 -0.34117487 
0.02776 -0.64659107 -0.76233155 
-0.23150297 -0.9669754 0.10660693 
-0.61667883 -0.71290207 0.33388302 
0.021794284 -0.97633415 0.21516699 
-0.24231169 -0.9548377 -0.17196006 
-0.52621865 0.6250001 -0.57660115 
0.061783813 0.66162735 -0.74728316 
0.30982584 -0.30199626 -0.9015576 
0.16006027 -0.3705912 -0.9149005 
0.98583585 -0.047434058 -0.16086589 
0.71692556 -0.69518393 -0.05231792 
0.65814775 -0.7382335 -0.14782743 
0.29530117 0.31100476 0.90336776 
0.5929496 -0.80513704 -0.012851453 
0.7926461 -0.22058089 0.5683804 
0.80882967 -0.53137535 0.25186282 
0.40902594 0.12751338 0.90356964 
0.1494512 -0.56374717 0.8123136 
0.16012254 -0.21652208 0.9630571 
-0.07525571 -0.74147 0.6667526 
-0.4844571 -0.83426857 0.26324356 
-0.55457336 -0.74620736 0.36827025 
-0.6980806 -0.63293576 -0.33477733 
0.11925558 -0.98550403 -0.12066504 
-0.024729764 -0.90187556 -0.4312876 
0.34268883 -0.9387285 0.036786966 
0.3314421 -0.9272562 -0.17418997 
0.060504965 -0.995877 0.06758757 
0.17135358 -0.8618979 -0.47725275 
0.27633718 -0.9357776 -0.21899351 
0.59164333 -0.7028664 0.39488876 
0.6287953 -0.716585 0.3018652 
0.79421 -0.007825818 0.6075929 
-0.30207184 0.10591476 0.94738317 
-0.14544325 0.11615572 0.98252445 
-0.57866275 -0.11270545 0.8077418 
-0.3819509 -0.04927766 0.922868 
-0.6786072 0.6696409 0.3017836 
-0.7066081 0.35674673 0.6110947 
-0.50314486 0.20146522 0.840391 
-0.5957347 0.6361332 0.4903414 
-0.74212605 0.6593088 0.12066877 
-0.13047095 0.9402751 0.31442046 
-0.8385616 0.53647476 -0.09491824 
-0.2492781 0.89494306 -0.3700507 
-0.96079814 0.18793033 0.20383652 
-0.82211345 -0.11948366 -0.5566446 
-0.8564602 -0.38405696 -0.34492928 
-0.9006432 -0.40354553 0.16122289 
-0.051536616 -0.46954578 -0.8814028 
0.24432597 -0.3850322 -0.8899747 
-0.74057674 -0.29797092 -0.6022952 
0.097834386 0.10933854 -0.9891782 
0.43662253 -0.425345 -0.7927437 
-0.62186855 -0.75122917 -0.22121114 
-0.5623835 -0.6385055 -0.5253909 
0.113591276 -0.03444736 -0.9929303 
-0.23933513 -0.22366832 -0.94482344 
0.090819836 -0.4400226 -0.8933824 
0.7772926 -0.32354638 -0.5395684 
0.9117075 -0.4063373 -0.060658228 
0.943215 0.24805884 -0.22093524 
0.2609098 0.9554547 -0.13795783 
0.71037513 0.6820039 -0.1738906 
0.7970565 0.57430476 -0.18674847 
0.9577649 -0.017491298 -0.28702018 
0.9801318 -0.16164954 -0.11493945 
0.55399865 0.06666797 0.829844 
0.45914602 0.57023585 0.6811873 
0.5839818 0.41346097 0.6985809 
0.3945016 0.40928593 0.82271117 
0.15715852 0.57468146 0.80314535 
0.045801654 0.5330122 0.84486705 
-0.15466806 0.025993759 0.98762447 
0.22434281 -0.374404 0.8997177 
-0.65274805 -0.5710758 0.49778748 
-0.9521251 -0.2961586 -0.07581547 
-0.40471533 0.7714198 -0.49103662 
-0.57142633 0.12004267 -0.8118263 
-0.20320551 -0.96619093 0.1586904 
-0.8204053 0.0060416115 -0.5717505 
-0.3167359 0.13062331 -0.93947643 
-0.45749527 -0.21110187 -0.8637905 
0.47324196 0.05387367 -0.87928367 
0.87213916 -0.14008296 -0.46877515 
0.7848553 0.12717977 -0.60648793 
0.955456 0.29397643 0.026112152 
0.91002 -0.40624845 -0.08262003 
0.85173684 -0.31499085 0.41871855 
0.2684516 -0.31579825 0.9100578 
0.110179685 0.35389343 0.9287733 
0.9998678 0.016248442 0.00068178395 
0.54215306 0.13462362 0.8294256 
0.7082215 0.3553371 0.6100475 
0.5795431 0.14714874 0.80154675 
0.5297707 0.8256664 0.19395395 
0.14374545 -0.20946173 0.96719337 
-0.5410075 -0.14098872 0.8291158 
-0.52382934 0.78445995 0.33200204 
-0.46416208 0.55766046 0.68816316 
-0.9623745 -0.13817106 0.23397444 
-0.92174006 -0.3010395 0.24448036 
-0.93205374 -0.19039991 0.30825913 
-0.9949284 -0.096155316 -0.029525403 
-0.96289134 0.26454586 0.053439867 
-0.6141633 0.28441307 -0.73614717 
0.056182988 -0.2171734 -0.97451484 
0.68964493 -0.12341201 -0.7135541 
0.22832121 -0.6284133 -0.743617 
0.756148 -0.18078321 -0.6289339 
0.79615104 0.25835073 -0.547173 
0.7936793 -0.5118066 0.32882726 
0.7587081 -0.4513775 0.46970254 
0.7465564 0.24328816 0.61924505 
0.8158296 -0.30307034 0.49251443 
0.75470525 -0.1562484 0.63718635 
0.9083548 0.14469504 0.3923708 
0.10131611 0.38017216 0.91934997 
-0.9341825 0.34442 0.09315572 
-0.7242135 0.57601786 -0.37910214 
-0.3322684 0.7272764 -0.60055536 
0.041361 0.44644487 -0.89385474 
0.45714977 0.5937336 -0.66218925 
0.2603386 -0.12705751 -0.9571208 
-0.9953661 -0.087230824 0.04046134 
-0.6017141 -0.5822027 -0.5467909 
0.31150267 -0.58101845 -0.75192 
0.38526377 -0.5808715 -0.7170496 
0.7094598 -0.27651364 -0.6482339 
0.8365954 -0.54128885 -0.08434827 
0.9000139 -0.43580526 -0.0069903336 
0.76153445 -0.51901126 0.3881915 
0.89512646 0.18230008 0.4068359 
0.5583466 0.44418338 0.70067835 
0.09498869 0.69379646 0.71387935 
0.1833364 0.3311752 0.9255867 
-0.010643727 0.8710838 0.49101904 
0.88717693 0.35278812 0.29741833 
0.56537443 -0.35801393 0.7430867 
0.7065803 -0.3468585 0.61679304 
-0.056991857 -0.93182415 0.3584073 
-0.42139766 -0.16765939 0.8912431 
0.24888194 0.6963494 0.6731683 
0.6571741 -0.24248745 0.71366805 
0.26814464 -0.4094719 0.87202704 
-0.26888752 -0.6777546 0.6843598 
-0.5587076 -0.75307196 0.34746018 
0.34198552 -0.66229093 0.6666458 
0.23594545 -0.4241082 0.8743353 
0.4776429 -0.07573064 0.875284 
0.31639692 -0.33205357 0.88861316 
0.11411256 -0.06027545 0.99163765 
-0.37368888 0.34914765 0.8593326 
-0.22188549 0.9508881 0.21582125 
0.05771365 0.99677193 0.055811495 
-0.47664633 0.74686855 0.46367627 
-0.41208783 0.8667439 -0.28096047 
-0.18030109 -0.18235523 0.96655995 
0.21047215 -0.15447156 0.9653186 
0.36909065 -0.44285318 0.81710047 
0.23649709 -0.93663514 0.25842568 
0.02028465 -0.88881713 0.45781294 
-0.048245594 -0.9527918 0.29976702 
-0.27247065 -0.5187933 0.81031686 
-0.49399486 -0.6098159 0.61975294 
-0.53237367 -0.6714064 0.5155501 
-0.20022947 -0.090653025 0.9755462 
0.54121965 0.58900326 0.60013044 
0.5256747 0.48907998 0.6960366 
-0.032022398 0.71824723 0.6950508 
0.21288528 0.59956557 0.7714928 
-0.17832993 0.96843576 0.17415734 
0.047860824 0.4802091 0.8758474 
-0.27884936 0.7414488 0.61032516 
-0.64026386 0.75710744 -0.12981002 
0.35692492 0.73714906 -0.57377344 
-0.14210758 0.46620378 -0.8731893 
-0.060035847 0.42303574 -0.9041219 
0.72853917 0.5298905 -0.43410462 
0.82693624 -0.22856402 -0.51374596 
0.49232632 0.1350646 -0.8598677 
0.6027053 0.27145973 -0.7503706 
0.9476889 0.03760317 -0.316973 
0.9182977 -0.088865265 -0.3857878 
0.5547048 -0.61233306 -0.5633391 
0.91880935 0.095603734 -0.3829481 
0.92032486 0.11493985 0.37388626 
0.39813328 0.30776745 0.864158 
0.61740136 -0.0055715907 0.7866286 
-0.4078521 -0.17313184 0.89648324 
-0.73072106 0.003745036 0.68266594 
-0.50755495 0.48969102 0.70893633 
-0.99960774 0.019930968 -0.019675264 
-0.97181785 0.12866953 -0.19752014 
-0.8327593 -0.06739656 -0.54951775 
-0.70457995 0.41479674 -0.5757698 
-0.504643 0.5787109 -0.6406474 
-0.120555304 0.90110314 -0.41650876 
-0.00972023 0.47822303 -0.87818474 
0.6335231 0.14609492 -0.7598058 
0.20988265 0.8791802 0.42777497 
-0.05593074 0.14666125 0.9876044 
-0.5378468 0.49130017 0.6850877 
-0.6714687 0.5136738 0.534106 
0.0345315 0.7445375 0.666687 
-0.649496 0.5994817 0.46773577 
-0.4512352 0.63373524 0.62830454 
-0.9237763 0.3827965 0.010212876 
-0.90023845 0.11849812 -0.41896176 
-0.9993823 0.02781198 0.021482771 
-0.008239097 0.37758607 -0.9259379 
-0.12263463 0.809119 -0.57470626 
0.17737697 0.28214985 -0.9428303 
0.18726617 0.28164002 -0.9410687 
0.45609203 0.72191805 -0.5203983 
0.024375234 0.7531451 -0.6574029 
0.4202083 0.5953177 -0.68485165 
0.13765301 0.73571324 -0.66315734 
0.42396924 0.8306421 0.3609486 
0.14345853 0.98028135 0.13589801 
-0.93443006 0.054452565 -0.35195926 
-0.89278984 -0.050378956 0.44764754 
-0.634128 0.7278458 0.26100245 
0.5271664 0.82722837 -0.19439347 
0.5330091 0.8363935 -0.12785587 
-0.113009766 0.9931338 0.030235564 
-0.6432651 0.765084 -0.029264556 
0.50506884 0.7411758 -0.4422262 
0.648111 0.23309094 -0.72499716 
-0.102386974 0.8187787 -0.56490564 
0.3204077 0.593962 -0.737935 
0.7136603 0.50163376 -0.48893014 
0.20518921 0.90312904 0.3771676 
-0.47032094 0.5594623 0.6824956 
-0.21565057 0.057354636 0.97478473 
-0.489319 -0.104545526 0.8658159 
-0.9846983 0.0056261597 0.17417692 
0.0596859 0.76707584 -0.6387742 
-0.13531694 0.5672032 -0.8123853 
-0.07690487 0.94456387 -0.31919396 
0.53132313 0.4190291 -0.73628145 
-0.18103255 0.6088852 -0.77232516 
0.52880174 0.32229337 -0.78517246 
0.4237598 0.28485802 -0.85981613 
0.82780296 0.06580153 -0.5571467 
0.7293737 0.6779139 0.09190658 
0.7528503 0.613108 0.23940589 
0.79564816 0.5550963 0.24251199 
0.7322516 0.42216074 0.5344043 
0.7778348 -0.05635771 0.62593687 
0.26215672 0.41753832 0.87002045 
0.32607827 -0.62307984 0.71094626 
0.012238951 -0.61440885 0.78889287 
-0.74044347 -0.49647635 0.45305058 
-0.8936819 -0.31375185 -0.32076856 
-0.34400353 -0.4465466 -0.825989 
-0.11391953 -0.087534614 -0.9896262 
0.7236973 -0.5691015 -0.39036608 
-0.05818412 -0.9474628 0.31452975 
0.16296946 -0.94694716 0.2770058 
-0.38841555 -0.36935866 -0.84422004 
-0.11032811 0.39853686 -0.9104923 
0.73182577 0.260329 -0.6298095 
0.76589805 0.48799723 -0.41863945 
0.47946626 0.19363672 -0.8559305 
0.95721775 -0.013612161 0.28904843 
0.7960655 0.19501314 -0.57293075 
0.9156969 -0.35711852 -0.18429764 
0.986217 -0.15761878 0.05032307 
0.65681624 -0.4186439 0.6271602 
0.7938898 -0.420664 0.43906808 
0.6776771 0.31762624 0.66322494 
-0.18393774 -0.16151372 0.9695773 
-0.3997612 -0.62098205 0.6742197 
-0.104826644 -0.48369703 0.86893535 
-0.11765662 -0.5312124 0.8390295 
-0.04844088 -0.9650741 0.2574597 
0.06046425 -0.71183103 0.6997433 
-0.33704802 -0.8248388 0.45391583 
-0.6638289 -0.7326541 0.15016411 
-0.054654017 -0.99304557 -0.10427587 
0.09225224 -0.9043256 -0.41675505 
0.12649761 -0.9914014 0.033492845 
-0.16476865 -0.98601025 0.02519948 
0.10904986 -0.9492601 -0.2949804 
0.18067652 -0.9811839 -0.06807436 
0.38293526 -0.8926953 0.23760413 
0.58414745 -0.6354379 0.5049658 
0.5684459 0.06806569 0.81990016 
0.8851963 -0.4562184 0.09106211 
0.66070294 0.13385928 0.7386158 
-0.14535417 0.29359832 0.9448134 
0.025936747 0.79540956 0.6055171 
-0.83695555 0.38853464 0.38541725 
-0.29550245 0.8648516 0.40584502 
-0.395654 0.2808792 0.87439394 
-0.5523306 0.43344757 0.7120773 
-0.7113859 0.6299641 0.31156933 
-0.6295203 0.72089475 0.28985333 
-0.407889 0.9125155 0.03069438 
-0.5655536 0.7495421 -0.3439996 
-0.90011823 0.09456549 -0.4252581 
-0.7631634 -0.3108204 -0.56654435 
-0.6030834 -0.48981127 -0.62958354 
-0.21110994 -0.3316343 -0.91948426 
-0.2000061 -0.39396808 -0.89709914 
-0.026408061 -0.32980666 -0.94367915 
-0.3919662 -0.44808757 -0.80348 
-0.12584154 -0.13388419 -0.9829745 
-0.71519405 -0.31515804 -0.62383723 
-0.97792125 -0.13639511 -0.15832442 
-0.302482 -0.26361015 -0.9159773 
-0.26964557 0.39649007 -0.87754595 
-0.51304984 -0.11722846 -0.85031605 
-0.066891134 -0.54557973 -0.83538514 
0.40948448 -0.481416 -0.77495885 
0.8553444 0.44218174 0.26992843 
0.81866825 0.2741146 -0.5046223 
0.5208207 0.5994623 -0.60777533 
0.7137 0.49755225 -0.49302554 
0.7526229 0.65443933 0.07258063 
0.8428714 0.46630314 0.26856863 
0.94531566 0.18274252 -0.2701546 
0.7359396 0.47750393 -0.4799823 
0.8572282 0.034590743 0.51377374 
0.93208927 -0.23838001 0.27273554 
0.5301552 -0.034126244 0.84721357 
0.089260794 -0.22909227 0.96930355 