# OOMMF: rectangular mesh v1.0
# Segment count: 1
# Begin: Segment
# Begin: Header
# Desc: Time (s) :  3.670000000000001e-07
# Title: m
# meshtype: rectangular
# meshunit: m
# xbase: 2e-09
# ybase: 2e-09
# zbase: 5e-10
# xstepsize: 4e-09
# ystepsize: 4e-09
# zstepsize: 1e-09
# xmin: 0
# ymin: 0
# zmin: 0
# xmax: 1.024e-06
# ymax: 1.024e-06
# zmax: 1e-09
# xnodes: 256
# ynodes: 256
# znodes: 1
# ValueRangeMinMag: 1e-08
# ValueRangeMaxMag: 1
# valueunit: 
# valuemultiplier: 1
# End: Header
# Begin: Data Text
-0.28300965 0.13010459 -0.9502518 
0.1346376 -0.54417676 -0.82809687 
0.88971305 0.3585442 -0.28258944 
0.5273363 0.48255068 0.6993292 
0.23619857 0.5898507 0.7721959 
0.25002265 0.9446161 0.21257788 
0.6493175 0.5004615 0.5726476 
-0.33081287 0.33445257 0.8824423 
-0.5662367 -0.3443957 0.7488442 
0.46779385 0.46313015 0.7527811 
0.13591039 0.9156619 0.3782746 
-0.6345652 0.55478835 0.53808635 
-0.5806442 0.6542514 -0.48456934 
-0.35773343 0.932267 -0.053898096 
-0.90046525 0.36530593 0.23603792 
-0.60711867 0.66443056 0.43582004 
-0.029315384 0.97699416 0.21124184 
0.07543175 0.65556717 0.75136 
-0.992601 0.10888392 0.053736843 
-0.6538512 0.6854851 -0.32029495 
0.43529186 -0.07846005 -0.8968641 
-0.29856518 -0.4396914 -0.84707165 
-0.6046429 -0.13257068 -0.78538644 
-0.3534109 -0.061658695 -0.93343407 
0.23318549 0.8722593 -0.42987007 
-0.20917994 0.86393774 -0.45809972 
-0.080145404 0.7736962 -0.6284672 
0.67100173 0.727727 0.14202146 
0.45889488 0.24245289 0.85477024 
0.5292693 -0.1496212 0.8351572 
-0.31971738 -0.25834087 0.9116144 
0.19082722 0.4342393 0.88035285 
-0.42879152 0.86839926 0.24903947 
-0.2426866 -0.37082872 0.89643145 
-0.24606387 0.12524527 0.96112764 
-0.21167578 0.8444997 0.4919489 
-0.55285025 0.7268959 0.40740508 
-0.64177895 0.737783 0.20927526 
-0.7239378 0.6862282 -0.07074559 
-0.20336947 0.9319493 -0.3001855 
0.36282328 0.5465473 -0.7547485 
-0.7113045 0.51820785 0.47487548 
-0.97580737 -0.14250857 -0.16580546 
-0.83079594 -0.2735004 0.48474306 
-0.81738275 -0.5406576 -0.19893451 
0.42180336 -0.7982359 -0.43000147 
0.7038327 -0.10096232 -0.70315444 
0.3571033 -0.89120597 0.279695 
0.84117895 0.17900845 0.51026845 
0.28271925 0.62805367 0.7249955 
0.20258112 0.15841904 0.9663666 
0.13895668 0.9854308 0.09806815 
0.5224492 0.79013604 -0.32051823 
0.01564352 0.99956423 0.025035087 
-0.22161642 0.9421681 0.25140694 
-0.76559484 0.62856394 0.13701047 
-0.9925118 0.04056483 0.115216404 
-0.88251853 -0.25799426 -0.39319217 
0.10513783 0.6107487 -0.7848135 
0.1334041 0.96772003 -0.21382569 
0.28828976 0.13719478 -0.9476638 
-0.50057083 0.322843 -0.80324423 
-0.1405098 -0.2770499 -0.9505264 
0.28309956 -0.62763715 -0.72520775 
0.36645532 -0.24341534 -0.8980309 
0.5600552 -0.13079128 -0.81806594 
0.6642356 0.24324748 -0.70683926 
0.9917519 0.088984974 0.09224847 
0.8238369 0.5473354 0.1473664 
-0.07261292 0.98858094 -0.13204192 
-0.41382158 0.8001411 0.4341958 
0.35993785 0.10855955 0.9266389 
-0.104891926 -0.44872758 0.8874915 
-0.53370714 0.6797504 0.5030867 
-0.70618856 0.6766463 -0.20844096 
-0.04597551 0.6105447 0.7906463 
-0.9916311 0.09030943 0.09226036 
-0.40872762 -0.5022098 -0.7620545 
-0.22024034 -0.51517546 -0.8283046 
0.5100411 -0.5581689 -0.65445065 
0.42439604 -0.45239592 -0.7843635 
-0.06569168 -0.6548861 -0.7528671 
-0.0782292 -0.33222213 -0.9399515 
0.33510756 -0.20377713 -0.9198793 
0.7370065 0.6690016 -0.09622053 
0.4485489 -0.1878035 -0.8738042 
0.70905477 -0.49188033 -0.50526744 
-0.1028021 -0.7703469 -0.6292832 
0.5434486 -0.2593434 -0.7983763 
0.9914518 0.045589212 -0.12225002 
0.8280896 -0.5312002 -0.17914766 
0.21498783 -0.6714322 -0.70919615 
0.4375543 -0.4428952 -0.7825536 
0.28141743 0.043477077 -0.95860004 
0.27036634 -0.7606517 -0.59017897 
0.56973875 -0.3617062 -0.7379475 
0.60831326 0.068357445 -0.790748 
0.9730731 0.03662611 -0.22756813 
0.59688014 -0.7252021 0.34324354 
0.93451416 0.27125362 -0.23044497 
0.9874677 0.14973031 0.049884226 
0.9587823 0.28290167 0.026515031 
0.9092218 0.34409958 0.23433119 
0.9882022 -0.121528134 0.093206584 
0.9652636 0.014825217 0.26085705 
0.5981288 0.55333257 0.57971126 
0.591264 0.774122 -0.22614592 
0.9952979 -0.009166964 -0.096426845 
0.69623643 0.30098474 -0.6516618 
0.75111175 0.24065077 0.6147507 
0.8543891 -0.18283008 0.4864079 
0.5068317 0.6783794 0.53190506 
0.614391 0.65389335 0.44152832 
0.30398378 0.8873646 0.34666708 
-0.12183927 0.84674466 0.5178598 
-0.199588 0.970256 0.13699655 
0.71672636 0.56277835 -0.41180572 
0.90872806 0.29865012 0.29158425 
0.7887085 0.602341 0.122981355 
0.11920193 0.74421597 0.6572165 
-0.07755437 0.31706232 0.9452285 
0.4581452 0.6075565 0.64882827 
-0.6134309 0.7741693 0.156091 
-0.9211345 0.37448144 0.10618373 
-0.98122567 0.18269299 0.061801672 
-0.6763455 0.39772525 -0.619977 
-0.14419146 0.16386035 -0.9758887 
-0.7671986 0.16548453 -0.61969453 
-0.372719 -0.2627032 -0.8899818 
0.14462751 -0.43736055 -0.88758034 
0.72507125 -0.14141028 -0.6739992 
-0.18266629 0.20453416 -0.9616646 
-0.09550931 0.2342846 -0.9674651 
0.15318485 0.48713604 -0.8597866 
-0.1612322 0.62405217 -0.7645672 
-0.25993395 0.45322776 -0.85265416 
-0.24171875 -0.41251647 0.8782952 
0.142212 -0.61003816 0.77950585 
-0.009795024 0.6569652 0.7538573 
-0.25458786 0.5980683 0.7599338 
-0.17175944 0.5429557 0.82200843 
-0.847138 0.44636574 0.28829682 
-0.5299711 0.36987984 0.7630986 
-0.46346727 -0.8205905 0.33440927 
0.39311853 -0.87683004 0.27681562 
0.70851773 -0.60570365 0.36211297 
0.0032766508 -0.8942971 0.44746175 
-0.034162562 -0.677893 0.7343665 
0.4102713 -0.29687265 0.8622901 
-0.52170485 -0.7245401 0.45040625 
-0.028600095 0.48130438 0.8760869 
0.34793407 0.31664038 0.882429 
-0.62968 0.5740489 0.52342254 
0.7157808 0.5248338 0.46065965 
0.49997663 0.67001504 0.54872876 
0.28709477 0.8360395 0.4675625 
-0.71033776 0.70143527 0.058385313 
-0.822729 -0.15814985 -0.5459907 
0.03533029 -0.25631136 -0.96594846 
0.46968317 0.20613663 -0.85843194 
0.19175662 0.7311956 -0.654662 
0.21965113 0.5394152 -0.8128866 
-0.28339082 0.025898552 -0.9586548 
0.35009283 -0.18303718 -0.91865796 
0.88392985 -0.32024992 -0.34074634 
-0.7389835 -0.66191494 -0.12558655 
-0.68726015 -0.70958513 0.15544283 
-0.7941156 -0.34067503 0.5033102 
-0.8109173 -0.3811708 0.44398427 
-0.9143244 -0.021282809 0.4044232 
-0.26083636 -0.12763906 0.95690787 
-0.5872054 -0.7430893 0.3209487 
-0.44971722 -0.7706234 0.45154637 
-0.60851717 0.6210206 -0.4940043 
-0.3876221 -0.19936042 -0.9000026 
-0.4292004 -0.35707706 -0.82962835 
-0.60304147 0.106345624 -0.7905894 
-0.09307374 -0.60630363 -0.78976786 
0.021326575 -0.91438067 -0.40429363 
0.5927759 0.26342148 -0.76106894 
0.9902736 -0.13648456 -0.02702389 
0.7076871 0.58146334 0.40134716 
0.47342044 0.4970678 0.7271841 
0.5667575 0.58054614 0.5845958 
0.34698 0.55253375 0.7578335 
0.61883307 0.637956 0.4583207 
0.98664427 -0.15626337 -0.045989286 
0.71449256 0.6923184 0.10097401 
0.31437758 0.74121684 0.59309727 
-0.9325281 -0.02174925 0.36044204 
-0.807798 0.055659167 -0.5868257 
-0.82179147 0.03778713 -0.568534 
-0.99552363 0.019712266 -0.09243561 
-0.5867393 -0.8045863 0.09153154 
-0.6184506 0.09365353 -0.780223 
-0.6681349 0.28001687 -0.6893377 
-0.5650264 -0.19366552 -0.8020218 
-0.6828507 0.7129497 0.15942937 
-0.8894391 0.004541563 -0.4570313 
-0.31823927 0.07745855 -0.94484067 
0.21448426 -0.7095071 -0.6712646 
0.103405386 -0.53234696 -0.8401869 
0.2578501 -0.60395503 -0.75415623 
0.7391448 -0.21025303 -0.63988966 
0.61913127 -0.2697715 -0.73749566 
0.97594404 0.096141905 -0.19567865 
0.64042336 0.40153375 0.6546974 
-0.40828964 0.52742743 0.7450637 
0.0646503 0.24474753 0.96742904 
0.6852453 -0.12710705 0.71713513 
-0.41659588 0.39000377 0.8211852 
-0.11354283 0.9227501 0.36829367 
0.4321227 0.88861746 0.15371786 
-0.11586377 0.96395963 -0.23949426 
0.065958165 0.992326 0.104588345 
0.1317547 0.7837602 0.6069273 
-0.31995302 0.6954918 0.6433672 
0.26804963 0.30360553 0.91431564 
0.8198051 0.47682917 0.3171019 
0.8371349 -0.38007578 0.39337966 
0.271925 -0.10293878 0.956797 
0.18313023 0.22006585 0.9581411 
-0.23918632 0.45290938 0.8588731 
-0.9402931 0.31563917 0.1273619 
-0.4125177 -0.8407573 0.35065162 
-0.8951134 -0.22243488 -0.38638687 
-0.6303415 0.111205205 -0.7683119 
0.01326425 0.13424182 -0.99085987 
0.44985667 -0.85727847 -0.25040486 
-0.0767112 -0.7902789 -0.60792655 
0.64313924 0.14892948 -0.7511272 
0.114458814 -0.02422796 -0.99313253 
-0.29670176 0.23081648 -0.92665625 
-0.23445857 0.19077778 -0.95322245 
0.3605908 -0.7644388 -0.5344227 
0.31840557 -0.94564897 -0.06607559 
0.8951822 -0.27061296 -0.35414347 
0.88759756 -0.32059324 0.3307427 
0.62202024 0.03640755 0.7821543 
-0.06194665 0.5427666 0.8375961 
-0.6364375 0.5524731 0.5382573 
-0.4857824 0.84963155 0.20528466 
-0.31739864 0.6337669 0.705406 
-0.20244963 0.6148538 0.76221323 
0.036154028 -0.15009838 0.98800987 
-0.21145101 0.0062102466 0.9773689 
-0.50822335 -0.61121047 0.60673785 
0.028996943 -0.24039377 0.9702423 
-0.17840928 0.3423317 0.92248535 
-0.79470193 0.17070074 0.5825033 
-0.8579636 0.5070066 -0.082721524 
-0.56881577 0.29991716 -0.76583177 
-0.08201338 0.3770285 -0.9225635 
0.23220263 -0.3286443 -0.91546434 
0.88139075 -0.28447866 -0.3771237 
0.83438987 0.48745972 0.25724828 
-0.10836629 0.21455413 -0.97068185 
-0.25110805 -0.10934294 -0.9617634 
0.64612186 0.6272294 -0.43486765 
0.43743628 0.87628454 0.20192803 
0.5267914 0.68929005 0.4973632 
0.9913316 -0.021119557 0.12967524 
0.63695014 0.42382628 0.6439455 
0.07238904 -0.05374072 0.9959276 
-0.037560366 -0.581341 0.8127926 
0.5181297 0.04045373 0.8543449 
0.6360198 0.30914342 0.7070426 
0.5387466 0.07440123 0.8391762 
-0.061996114 0.7086644 0.70281667 
0.18789394 0.92759454 0.32289976 
-0.3234431 0.87911457 0.3500602 
-0.3040626 0.0604646 0.95073134 
-0.36019838 0.016766744 0.9327251 
-0.4309474 -0.37162906 0.8222994 
-0.808778 0.44594273 -0.3834233 
-0.867543 0.4969858 -0.019350838 
0.042677425 0.44085297 -0.8965641 
-0.5204651 -0.12945668 -0.84401244 
-0.1651693 -0.49391308 -0.85367966 
0.21044417 0.37345228 -0.9034638 
0.9083899 0.33493197 -0.2502966 
-0.22779453 0.77842605 -0.58494663 
0.2530904 0.7790037 -0.5736712 
0.07507223 0.8440316 -0.5310131 
0.16903104 0.85935426 -0.48263747 
0.26873767 0.48393652 0.83281785 
0.017070543 0.04245021 0.9989528 
0.19857566 0.057425555 0.97840184 
-0.6462306 0.36766642 0.66873574 
-0.485539 0.21600568 0.84710884 
0.07025086 -0.44948313 0.8905223 
-0.48926634 0.85186934 0.18691453 
-0.8660841 -0.45861098 0.1989332 
-0.97016615 0.24191271 0.016001515 
-0.9477337 0.24931096 -0.19911014 
-0.77746123 0.6061795 -0.16763216 
-0.39677328 0.7402354 -0.5427914 
-0.21261543 0.77956194 -0.58913314 
-0.38326976 -0.11829526 -0.9160298 
-0.54552037 -0.36318567 -0.7553171 
-0.38392648 -0.44186226 -0.8107764 
0.36271426 -0.29228032 -0.88487893 
0.93464273 -0.3358498 -0.11682466 
0.8210014 0.56494015 -0.08245879 
0.9246078 -0.31811073 -0.20953755 
0.9777336 0.13302098 -0.1623039 
0.9901304 -0.099095926 -0.09910521 
0.2204305 0.94778234 -0.23047571 
-0.3758388 0.8108401 0.44864652 
-0.41918585 0.5788359 0.6994514 
-0.3295847 0.6008051 0.7282907 
-0.6125661 0.7461958 -0.26068106 
-0.54942834 0.6704814 -0.49858123 
-0.6146648 -0.36105454 -0.7013038 
-0.53910136 0.34515786 -0.7682681 
-0.48801532 0.8472359 -0.20983876 
-0.37523547 0.64534277 -0.6653805 
-0.5640004 0.70045364 -0.43734235 
-0.44291976 0.03266255 -0.8959662 
-0.08256963 0.0036057713 -0.9965788 
-0.1864833 0.52325344 -0.8315227 
0.1723223 0.6485145 -0.74144053 
0.5715584 0.82049996 -0.010036208 
0.46297708 0.52613217 0.71332824 
0.5474797 0.43433753 0.7152741 
0.71580833 0.65671444 0.2373702 
-0.04009893 0.7631259 0.6450048 
-0.5564908 0.6224084 0.5503871 
-0.75396246 0.12267535 0.64536154 
-0.92467296 0.33875442 -0.1738545 
-0.6400123 0.673781 0.3693285 
-0.8163286 0.57641864 0.03673183 
-0.98684996 0.062103845 -0.1492322 
-0.7800194 -0.036924616 -0.6246649 
0.096609026 0.042814404 -0.9944012 
0.5620065 -0.13784078 -0.8155665 
0.1458213 -0.5126716 -0.8461112 
-0.2785128 0.024755638 -0.96011347 
0.09638317 -0.10481587 -0.9898101 
-0.35543418 0.3554774 -0.86446655 
0.068314545 0.5217007 -0.85038906 
0.28644165 0.045682855 -0.957008 
0.42579064 -0.48091862 -0.7664331 
0.7188365 -0.28558183 -0.6338116 
0.56176406 0.18445973 -0.80647117 
0.8559531 0.00057645974 -0.5170531 
0.783801 -0.33097467 0.5254633 
-0.0864133 -0.2650165 -0.960364 
0.15583861 -0.07511361 -0.9849225 
0.105675936 0.40388393 -0.9086861 
0.7187388 0.06311459 -0.6924097 
0.55743873 -0.4977052 -0.6644936 
0.8773959 0.13222097 -0.46118787 
0.9691473 -0.22151451 -0.108096436 
0.6498143 0.6438787 0.4039327 
0.8838622 0.15354618 0.44182736 
0.46887624 -0.6424694 0.6061256 
0.81671673 0.39500508 0.4206482 
0.45085558 0.45459938 0.76815933 
0.60678184 0.5016269 0.6165926 
0.9067007 0.41992006 -0.039509818 
0.5839399 0.61771476 0.5267284 
-0.029823512 0.96887046 -0.24576542 
0.6638028 0.7118617 -0.22938809 
0.94923127 0.25040665 -0.19041179 
0.68251574 0.6149794 0.39493385 
0.7018189 0.51679707 0.49027666 
0.5449314 0.64642274 0.53402954 
0.063316554 0.8851866 0.46090764 
-0.47283104 0.47293594 0.7434799 
-0.04356356 0.3008715 0.95266926 
0.339096 -0.14967807 0.9287683 
0.46024352 0.31335813 0.830652 
0.46074358 0.023204597 0.88722986 
0.21047877 0.7502466 0.6267606 
-0.37389266 0.55520123 0.7429374 
-0.81984323 -0.47649094 0.31751153 
-0.96901613 0.004673884 -0.24695301 
-0.7608882 0.6167001 -0.20181678 
-0.5801782 0.557969 -0.5933499 
-0.48088625 -0.29940867 -0.824077 
-0.41436413 0.376197 -0.8287208 
-0.08597087 0.52073056 -0.8493814 
0.08250042 0.23000564 -0.9696861 
0.29955268 0.060467735 -0.9521617 
0.43972906 -0.0007366289 -0.8981303 
0.5805352 0.757975 -0.29741058 
0.21394637 0.43837357 -0.87295794 
0.5283616 0.34920636 -0.77387923 
0.372577 0.3185571 -0.8716122 
0.5965686 0.78898436 0.14700207 
0.18147306 0.890157 0.4179571 
0.7937983 -0.026097307 0.607621 
0.6081524 -0.27861467 0.7433199 
-0.067139395 0.10381335 0.9923281 
-0.30586854 0.36140376 0.8808131 
-0.09414118 0.29644105 0.9504 
-0.9962222 -0.07722604 -0.03971808 
-0.9819743 0.07929026 -0.17157951 
-0.14007086 -0.675131 -0.7242778 
0.10356668 -0.9914079 -0.07990332 
0.59349257 -0.56491965 -0.57326466 
-0.27147904 -0.8550929 0.44171846 
-0.5395936 -0.73865384 0.40401644 
0.610743 -0.41863945 0.67211163 
-0.08464334 -0.17903857 0.9801942 
-0.07281686 -0.106998816 0.9915891 
0.062088367 0.20839076 0.9760729 
0.23726872 -0.4137262 0.87893933 
0.5037075 0.5552026 0.6618374 
0.64386356 0.4829488 0.59346455 
-0.33376455 0.06682745 0.9402847 
-0.6352642 0.33428597 0.6961985 
-0.6872187 0.725208 0.042471986 
-0.9562862 0.23137932 -0.17883077 
-0.9126133 0.40026787 -0.08320291 
-0.5583785 0.6985879 -0.44742435 
-0.39708316 0.035600785 -0.91709197 
0.33719814 0.027498461 -0.94103205 
0.3443989 -0.1792859 -0.9215455 
0.5180111 -0.7515909 -0.40838182 
0.30349407 -0.8204878 -0.4844492 
-0.2503121 -0.9555646 -0.15569282 
-0.7379205 -0.6715365 0.067171425 
-0.82272774 -0.4477047 0.35025644 
-0.74941593 -0.45828825 0.47785753 
-0.64814603 -0.7151039 0.26178858 
-0.83001393 -0.5092165 0.22754237 
-0.8314679 0.43086258 0.35073996 
-0.89185715 -0.11078138 -0.4385411 
0.081522346 -0.18048829 -0.98019296 
-0.30367047 -0.5368908 -0.787104 
-0.19677629 -0.066363774 -0.9781999 
-0.48156548 0.3320802 -0.81105953 
0.022506926 -0.44560307 -0.89494777 
0.91413367 0.17658567 -0.36493456 
0.93368185 0.057035577 -0.35353267 
0.9988272 -0.044560794 -0.0189388 
0.9558718 -0.08981523 0.2797184 
0.347143 -0.5817961 0.7355305 
0.6749773 0.25375193 0.69283164 
0.060572587 0.038261354 0.9974302 
0.5140998 -0.07575219 0.8543788 
0.52018696 -0.047284584 0.85274255 
-0.17476204 0.7360948 0.65392876 
-0.6161884 0.30341914 0.7268073 
-0.765646 -0.03533474 -0.642291 
-0.46116146 0.7586491 -0.46019727 
-0.50702953 -0.4489346 -0.73578453 
-0.98256046 -0.10777902 -0.15152161 
-0.7196972 0.1242463 -0.68308043 
-0.24477659 -0.41941425 -0.8741717 
-0.5721548 0.5892347 -0.57047474 
-0.5825639 0.4764249 -0.65851253 
-0.32078648 0.20937638 -0.92371947 
-0.1028683 0.84689856 -0.5217096 
0.16002066 0.71593857 -0.6795774 
0.14596152 0.9395628 -0.3097047 
-0.14122778 0.17210186 -0.9749029 
-0.17257398 0.061011802 -0.98310524 
0.6799335 0.28848034 -0.6741436 
0.94273365 0.18882522 -0.27495146 
0.8066076 0.47251916 0.35511968 
0.49758497 0.3497615 0.79377335 
0.054810174 0.64481425 0.7623716 
0.38726282 -0.17620628 0.9049745 
-0.53886217 -0.16841003 0.82538825 
-0.94570625 0.3244689 -0.018966809 
-0.029450161 0.99793243 0.057128698 
0.4645999 0.8827633 -0.06982771 
0.6648164 0.4084218 0.62546855 
0.055929527 0.42144683 0.90512687 
-0.63818043 0.10323392 0.76293415 
0.074326254 -0.19017941 0.97893184 
0.13217105 -0.6787221 0.7224038 
0.13584727 -0.24167147 0.96080196 
-0.072727956 0.16965203 0.98281676 
-0.14255588 0.0004298115 0.98978674 
-0.48973647 -0.18495603 0.8520267 
-0.9443098 -0.009579633 0.32891855 
-0.964499 0.24899644 -0.087991245 
-0.8379183 0.39700595 -0.37453893 
-0.43827763 0.46946535 -0.76649535 
0.043026745 -0.6064861 -0.7939291 
0.30958337 -0.6092491 -0.73005044 
0.25667894 -0.7993105 -0.5433403 
0.1544421 -0.9037959 -0.39912498 
-0.74161977 -0.34362388 -0.57612747 
-0.39780608 -0.25378618 -0.88167053 
-0.14229383 -0.120284274 -0.9824888 
0.6493902 0.072919235 -0.7569512 
0.44912753 0.014586992 -0.8933486 
0.715588 0.5858457 -0.3804192 
0.99731714 -0.04692745 0.056181204 
0.8583444 -0.48284552 -0.17350861 
0.074724875 0.06491296 0.99508923 
0.06141664 -0.24266979 0.96816295 
-0.5837923 0.5884476 0.55938905 
-0.062082212 0.6543066 0.7536768 
0.37145507 0.5169783 0.7712033 
0.5892773 0.103273116 0.8013032 
0.32911527 -0.23087838 0.91563 
-0.7317072 0.65828943 -0.17680375 
-0.23133516 -0.14758088 -0.9616153 
-0.742094 -0.52444863 -0.41743293 
-0.7055248 -0.24005783 -0.66678864 
-0.45820087 0.8543932 -0.24508025 
-0.42446327 0.86882955 0.25488472 
-0.56607866 0.25890765 -0.7826378 
0.026695559 -0.36675802 -0.92993337 
0.5991064 -0.032459076 -0.8000112 
0.95526505 0.29511207 -0.01943351 
0.37393063 0.68719834 -0.6228438 
-0.066664495 0.38087547 -0.92222 
0.31550628 0.03380381 -0.94832116 
0.9950376 -0.07334763 -0.06723374 
0.6453758 -0.2027277 0.7364724 
0.47412255 0.030093057 0.87994444 
0.37647048 0.06258896 0.924312 
0.75654745 -0.2018902 0.62199384 
0.6759248 0.06658495 0.7339565 
0.5717221 0.36940563 0.73257995 
-0.07059447 0.74388945 0.6645637 
0.23126262 0.19272906 0.95361066 
0.1569923 0.7301017 0.66506016 
-0.41310382 0.36789867 0.83306414 
-0.2933285 0.78695434 0.54282725 
-0.77171254 0.01814959 0.63571256 
-0.3028162 -0.4518134 0.8391467 
-0.4651093 -0.42431104 0.7769387 
-0.8712107 0.43048307 0.23595841 
-0.85233724 0.46261024 -0.24395303 
0.42762947 0.31324324 -0.84794563 
0.10317344 0.2733453 -0.95636696 
0.00047039916 0.59647936 -0.8026283 
0.2090863 0.74798757 -0.62991875 
0.6695665 0.651459 -0.35676596 
0.09161487 0.8097413 0.57959104 
0.057501443 0.8699476 0.4897803 
0.9919876 0.09888529 0.07862753 
0.1578976 0.8702592 -0.46660176 
0.635168 0.74147856 -0.21626675 
0.2291064 -0.9600903 0.16042724 
-0.02135941 0.01985925 0.99957466 
0.1227898 0.062920116 0.99043614 
-0.7152302 -0.20222722 0.6689918 
-0.98882705 0.08584817 0.121865444 
-0.90970623 0.3878389 0.14837638 
-0.8754063 0.25152496 0.4127943 
-0.9672329 -0.13198797 -0.21688671 
-0.7951637 0.19747676 0.57333916 
-0.8998487 0.33911288 0.2743626 
-0.66586804 0.6718307 -0.3244431 
-0.84818184 0.19663952 -0.4918541 
-0.5527994 0.036856603 -0.8324989 
-0.21667804 -0.27968785 -0.93532103 
-0.32433394 -0.3712557 -0.8700442 
-0.14995062 -0.5418166 -0.8270125 
0.86596394 -0.49091005 0.09546559 
0.9324602 0.33892754 0.12508476 
0.9800223 -0.076967075 0.18339115 
0.9122029 0.16460149 -0.37522316 
0.4472559 -0.014267728 -0.89429224 
0.51763535 0.85412 0.05032576 
-0.1540611 0.31193605 0.9375292 
-0.15465057 0.32858452 0.9317271 
0.18599781 0.2756055 0.9431047 
-0.5840944 0.69117624 0.42556927 
-0.57308656 0.44659597 -0.6871127 
-0.19920523 0.5502371 -0.81089854 
-0.73306715 0.5413429 -0.41177717 
-0.897317 0.26360124 -0.35402912 
-0.48522225 0.6418829 -0.5937557 
-0.063597634 0.664436 -0.7446343 
0.08107419 0.5327598 -0.842374 
-0.10914388 0.31380957 -0.94319206 
0.18055506 0.97036386 -0.16060516 
0.97291756 0.2214558 -0.06624886 
0.28921142 0.7972722 -0.52982444 
0.019199954 0.70709455 0.7068583 
-0.13146149 0.95116067 0.27930495 
0.38961232 0.8107972 0.4368182 
-0.45421794 0.5194937 0.7237488 
-0.36253238 -0.024315974 0.931654 
-0.8078874 -0.32319173 0.4928136 
-0.82544816 0.0014212541 -0.5644762 
-0.75688714 0.28638938 0.58745486 
-0.7201134 0.6873646 0.094692394 
-0.70962936 0.1837397 -0.6801956 
-0.32076627 -0.029139062 -0.9467101 
-0.68330973 -0.34966877 -0.64095217 
-0.8359436 -0.4381657 -0.33046836 
-0.7092522 -0.49782875 -0.49912715 
-0.5714531 -0.4863173 -0.6610121 
-0.37248272 0.41999048 -0.82756543 
0.15011398 0.927571 -0.3421667 
0.3687214 0.65063846 -0.66386306 
0.5433488 0.3474409 -0.76423615 
0.627394 0.2963275 -0.72011584 
-0.44332016 0.32857156 -0.83397126 
-0.16906527 0.59075713 -0.7889379 
0.20135367 0.5619104 -0.8023175 
0.6715267 0.10742944 -0.7331513 
0.4119421 -0.397775 -0.81980413 
0.60459596 0.46585613 -0.6460974 
0.5220537 0.097414844 -0.8473312 
0.92344713 0.33582586 -0.1856516 
0.30297998 -0.1661092 -0.9384088 
0.68069816 -0.2783876 -0.6776064 
0.72188836 0.31298345 -0.617186 
0.8485809 0.47273618 -0.23755217 
0.9094574 0.15169123 0.38713974 
0.7467138 0.64542156 0.16077816 
0.6847913 0.7106268 -0.16146368 
0.5514552 -0.3737203 0.7458086 
-0.21366361 0.46545544 0.8588942 
0.2247027 0.93173844 0.28525814 
0.55465806 0.55061346 0.6238424 
0.86136454 0.43472084 -0.26280966 
0.9895308 0.13408524 -0.053386398 
0.9013626 0.022617418 0.43247417 
0.791116 0.6116572 0.0033095167 
-0.042103123 0.88753355 0.4588155 
-0.115904 0.73417944 0.6689894 
-0.09804538 0.33650315 0.9365643 
0.25075656 0.15875943 0.9549433 
0.34654444 0.25579068 0.9024845 
-0.22205675 -0.73516613 0.64048547 
-0.2508723 -0.16082887 0.9545665 
-0.06154856 -0.17713653 0.98225987 
0.0640852 0.5257292 0.8482346 
-0.7174902 0.14684452 0.6809145 
-0.8311022 0.5285215 -0.17301509 
-0.7891783 0.38189355 -0.48099357 
-0.7550545 0.16612288 -0.63426816 
-0.5863656 0.7135329 -0.38346606 
-0.7913902 0.04623331 -0.6095605 
-0.77378064 0.34168953 -0.53339654 
-0.21362823 0.85549206 -0.47169515 
-0.5351254 0.6140489 -0.58015937 
0.46190208 0.8317086 -0.30807024 
0.4912761 0.8110849 -0.31747317 
0.79711336 0.5619416 -0.2209797 
0.7545797 0.48320916 -0.44398016 
0.8104149 0.18017206 -0.55746365 
0.82241 0.5621112 0.08759578 
0.82769644 0.1273206 0.5465419 
-0.1643052 0.7567937 0.63266665 
0.35246187 0.30895412 0.8833562 
0.69523597 0.39515594 0.6004155 
-0.14240116 -0.46060127 0.8761098 
0.15984334 -0.30867293 0.93764126 
0.006235159 0.29848427 0.95439416 
-0.29099688 0.9538689 0.07385812 
-0.49411598 -0.7876514 -0.36804163 
-0.73297226 -0.38512865 -0.56073844 
0.5754809 -0.76533145 -0.28825262 
-0.061823204 -0.8980616 -0.43550372 
-0.37725595 -0.73112726 -0.56844604 
-0.14893779 -0.9465504 -0.28611177 
0.3855019 -0.86399233 0.3238914 
0.17809656 -0.7248593 0.6654778 
-0.23824161 -0.9406849 0.24156336 
-0.11172733 -0.01442641 0.9936342 
0.35225195 -0.27553532 0.89442664 
0.30944502 0.530965 0.78887266 
0.31663835 0.45624113 0.83161545 
-0.34096694 0.203204 0.9178507 
-0.8405767 0.042975295 0.53998524 
-0.9225583 -0.03904376 0.38387752 
-0.9251478 -0.21175712 0.31505644 
-0.8947479 0.3265647 -0.30460095 
-0.7229152 0.6906238 0.020795932 
-0.44741982 0.65575534 -0.6081122 
-0.5557338 -0.034018684 -0.8306641 
0.24445593 -0.2280449 -0.9424632 
0.23715603 -0.12639622 -0.963214 
0.5401972 -0.78986394 -0.29034826 
-0.17930405 -0.93415993 -0.3085374 
-0.86881983 -0.37354565 0.32498574 
-0.79666823 -0.58678234 0.14493495 
-0.5171958 -0.7754427 0.3622114 
-0.5631927 -0.69943655 0.44000295 
-0.8092093 -0.11819475 -0.57550883 
-0.8051411 -0.059455514 -0.59009564 
-0.7054066 -0.2997341 -0.6423091 
-0.9419584 -0.023213599 -0.33492622 
-0.6154598 0.51900256 -0.5931659 
0.06616308 0.34175232 -0.93745816 
-0.20473747 -0.5845609 -0.7850931 
-0.078943565 0.14172676 -0.986753 
0.6504183 0.4504444 -0.61160123 
0.98892605 0.14531106 -0.030165488 
0.6524823 0.17844808 0.7364938 
0.21011966 -0.2944212 0.9322907 
0.41546288 -0.889458 0.1904079 
0.34228072 -0.34512344 0.87391865 
0.4237294 -0.06949587 0.90311885 
0.28038004 -0.6133581 0.7383623 
0.37039956 -0.38987413 0.843091 
-0.47705913 0.5124379 0.7140183 
-0.9797652 -0.110066384 0.1671695 
-0.9851566 0.13135706 -0.11050756 
-0.928072 0.059794754 -0.3675691 
-0.8353551 -0.40536305 -0.3712989 
-0.59298533 0.08526026 -0.8006868 
-0.52003515 0.1713539 -0.8367804 
0.0898986 0.14475283 -0.9853755 
0.078913845 0.990478 -0.11281023 
0.12936017 0.99118555 0.028587919 
-0.31888276 0.7962954 -0.51403064 
0.53053385 0.67969024 -0.5065127 
-0.24969509 0.53477895 -0.807257 
-0.049522396 0.9776003 -0.2045613 
0.37728718 0.7695496 -0.51521647 
0.80748826 0.123493314 -0.5768121 
0.85792977 0.28350493 -0.42846417 
0.8523305 0.2064662 -0.48052537 
0.8331514 0.5220005 -0.18268618 
0.4169785 0.9035719 -0.0984213 
0.11220507 0.47651368 0.8719775 
0.20982906 0.15711491 0.965032 
-0.81423926 -0.1895926 0.54869777 
-0.7841862 0.5249338 0.33090264 
-0.016381357 0.81966704 0.5726061 
0.13330963 0.5638445 0.81505096 
0.599086 -0.010839154 0.8006113 
0.01186718 -0.2058582 0.97850996 
0.31407306 0.024911335 0.949072 
0.697421 -0.23833896 0.67586875 
-0.33795732 0.40805963 0.8480991 
0.5316474 -0.011069671 0.8468934 
-0.11939823 -0.14973801 0.98148996 
0.2893016 0.18692164 0.93881047 
-0.38188744 -0.13949423 0.913621 
-0.6698651 0.09071741 0.73692006 
-0.61183655 0.751842 0.2457431 
-0.4289607 0.8646848 -0.2613675 
-0.6619537 0.57194746 -0.48445168 
-0.40886447 -0.28206506 -0.8679108 
-0.4637201 -0.34412283 -0.816421 
0.1711137 -0.90216404 -0.39600545 
-0.194852 -0.92706 -0.3203005 
-0.6228755 -0.7247535 -0.29454798 
-0.29931328 -0.58895844 -0.7506927 
-0.45243567 0.4203352 -0.78652424 
0.27074084 0.17198762 -0.947164 
0.90087956 0.013947046 -0.43384507 
0.85836995 0.47230172 0.20033021 
0.90766406 0.07476744 -0.4129842 
0.7404603 0.6610157 0.12156048 
0.52633566 0.713968 0.4617582 
0.74244696 0.39932087 0.5378805 
-0.1659723 0.12893027 0.9776658 
-0.009008033 0.1597585 0.987115 
0.12886599 0.17754978 0.9756381 
-0.33433953 -0.2887558 0.89712715 
-0.35870716 -0.5886843 0.72441703 
-0.7573424 0.4687591 0.45464 
-0.9381685 0.34092698 0.060072828 
-0.6643112 -0.54008824 -0.51671594 
-0.7045751 0.2703372 -0.6561187 
-0.624222 0.4957095 -0.60383695 
-0.9231227 0.2570314 -0.28597105 
-0.58456737 0.23728763 -0.7758708 
-0.2919389 -0.7237878 -0.6252224 
0.013746924 0.53924316 -0.84203804 
0.98719543 0.08093074 0.13746054 
0.6756076 -0.29211336 -0.67692256 
0.28896004 0.36197194 -0.8862722 
0.4689835 0.13201137 -0.8732855 
0.5448532 0.11305371 -0.8308754 
0.7373034 -0.40884566 0.53780025 
0.22784543 -0.63869053 0.7349564 
0.44295934 -0.49802944 0.745489 
0.22764838 0.51061475 0.8291254 
0.6220536 0.19930895 0.75718254 
0.31677175 0.47338426 0.8219264 
0.30841294 0.40647078 0.86003673 
0.07193832 0.6437728 0.7618278 
-0.2192175 0.13305041 0.9665616 
-0.4807471 0.3184832 0.81697655 
-0.31118184 0.9260071 0.21372141 
-0.29937464 0.89556575 0.32914564 
-0.26759753 0.8906204 0.36767775 
-0.74165916 0.20949382 0.6372238 
-0.92393875 0.38187566 0.022546545 
-0.6312831 0.5374067 -0.55917424 
0.23257208 0.49587286 -0.83667225 
0.52866936 0.34783185 -0.774288 
-0.04073944 0.90501785 -0.4234182 
0.61484003 0.5266628 -0.5870248 
0.47218162 0.76056385 -0.44563127 
0.4097996 0.773878 -0.48288444 
0.50742775 0.34139332 0.7911812 
0.1569866 0.93990386 0.3032094 
-0.2124435 0.9555833 0.20427561 
0.56628793 0.41548982 0.71181893 
0.71914506 -0.68751115 0.10079141 
0.23622587 -0.55463064 0.7978611 
0.20864165 -0.11931323 0.970687 
-0.70901513 0.16211106 0.6863072 
-0.97464746 -0.21597508 0.058457453 
-0.8476641 -0.291823 0.4430632 
-0.76707345 -0.46634075 0.44059592 
-0.9641278 0.023967959 -0.2643545 
-0.9957444 0.048825122 -0.07816168 
-0.67832834 0.58528745 -0.44419503 
-0.8795262 0.39849484 -0.2600684 
-0.46394867 0.8368713 -0.29051355 
-0.4240653 0.8536746 -0.30233827 
-0.6555059 0.69669473 -0.29142508 
-0.28221795 0.096980155 -0.95443594 
0.38096604 0.43254894 -0.8171697 
0.813617 -0.1938286 -0.54814047 
0.45558262 0.87319607 0.17312737 
0.95148724 0.066912 -0.30032468 
0.9011936 0.22224906 -0.37209612 
0.9725559 0.1810577 -0.14612736 
0.84728974 0.13034327 0.5148892 
0.80149084 0.4039496 0.44095027 
0.2264343 0.3451828 0.9108108 
-0.9897178 0.110414565 0.09092517 
-0.35276884 0.9196783 0.17247042 
-0.38260153 0.8570773 -0.34501374 
-0.22259463 0.9564013 -0.18907183 
-0.25340256 0.5818793 -0.7727896 
-0.8493462 0.4369263 0.2961529 
-0.015586831 0.7838231 -0.62078863 
-0.08960059 0.95593953 -0.2795558 
0.2869123 0.6693497 -0.685312 
-0.6632387 0.7247424 0.18671608 
0.27985328 0.8274331 -0.48686418 
0.20373541 0.93724525 -0.28295472 
0.37790418 0.839685 -0.3900226 
-0.109460376 0.61959636 0.7772509 
-0.81494707 0.5524055 -0.17524129 
-0.6038699 0.50771695 -0.61446285 
-0.6600664 0.66198957 -0.3550806 
-0.92875504 0.2654874 0.25870958 
-0.6992049 0.32894838 0.63474846 
-0.9469096 0.29785267 -0.12102076 
-0.34847564 0.27116558 0.89723694 
-0.79900193 0.57934844 0.16109389 
-0.58334434 0.22539236 -0.7803254 
-0.6708784 0.1204358 -0.73172224 
-0.62713885 -0.4749415 -0.61735517 
-0.56202024 -0.466803 -0.68280905 
-0.116309114 -0.46833134 -0.87586415 
0.026760576 -0.0054160194 -0.9996272 
-0.5332149 0.615325 -0.5805662 
-0.0022899094 0.8223911 -0.56891805 
0.05644739 0.6316342 -0.773209 
-0.05220054 0.4050669 -0.9127958 
0.48086968 0.83544713 -0.2660687 
0.36001068 0.8078813 -0.46660477 
-0.62355065 0.7513142 -0.21612898 
0.012366439 -0.18838316 -0.98201776 
0.199831 0.28098783 -0.9386764 
0.102458894 0.43809807 -0.89306897 
0.7005126 0.57512003 -0.4225153 
0.65984637 0.389213 -0.64274114 