# OOMMF: rectangular mesh v1.0
# Segment count: 1
# Begin: Segment
# Begin: Header
# Desc: Time (s) :  3.910000000000002e-07
# Title: m
# meshtype: rectangular
# meshunit: m
# xbase: 2e-09
# ybase: 2e-09
# zbase: 5e-10
# xstepsize: 4e-09
# ystepsize: 4e-09
# zstepsize: 1e-09
# xmin: 0
# ymin: 0
# zmin: 0
# xmax: 1.024e-06
# ymax: 1.024e-06
# zmax: 1e-09
# xnodes: 256
# ynodes: 256
# znodes: 1
# ValueRangeMinMag: 1e-08
# ValueRangeMaxMag: 1
# valueunit: 
# valuemultiplier: 1
# End: Header
# Begin: Data Text
-0.7154862 -0.36174136 0.59768116 
-0.83466434 -0.4370408 -0.3351581 
-0.16832489 -0.91089964 0.37673432 
-0.6943882 -0.71430045 0.087178014 
-0.6906195 -0.704366 0.16405256 
-0.9379341 -0.34281418 0.052517693 
-0.90243196 -0.3442384 -0.25906876 
-0.4142967 0.35622734 -0.8375323 
-0.51920134 -0.13805893 -0.84342736 
0.12697777 0.080578536 -0.9886272 
0.1996173 -0.9605022 -0.19387779 
0.22528592 -0.73223305 -0.64271384 
0.5721615 -0.7978011 -0.19011755 
0.93216014 -0.18660925 0.31024936 
0.67093533 -0.73256785 -0.11484856 
0.6165223 -0.10670524 -0.7800732 
0.7570592 -0.474529 -0.44909185 
0.7177461 0.6626813 -0.2137618 
0.7434759 0.2284374 -0.62853795 
0.9578567 0.049842123 0.2828892 
0.39119193 -0.43082973 0.8132371 
0.2781299 -0.048087884 0.95933896 
0.59552383 0.08408148 0.79892534 
0.3444362 0.005572588 0.9387932 
-0.045458645 -0.48083493 0.8756319 
-0.13569088 -0.9384713 0.31758398 
0.17458817 -0.93348044 -0.31326222 
0.8279818 -0.37321874 0.41851416 
0.03546562 -0.46595404 0.8840979 
-0.3002559 0.103435844 0.9482339 
-0.6636828 -0.5803459 0.47193632 
-0.19513747 -0.6853609 0.701571 
0.37288347 -0.48625854 0.79025996 
-0.00069030706 -0.76767576 0.6408382 
0.022696821 -0.7491762 0.6619819 
-0.6603945 0.37921467 0.6481322 
-0.9996273 0.026171364 0.0077676782 
-0.940176 0.338138 -0.04161453 
-0.38889363 0.08183156 -0.9176412 
-0.057800457 -0.3252483 -0.9438605 
0.05417727 -0.7009451 -0.7111546 
0.66181356 -0.6697207 -0.33686343 
0.82365185 -0.56138015 -0.08031243 
0.13398513 -0.97963846 -0.14952117 
-0.47394472 -0.8600344 -0.18898988 
-0.45341453 -0.89122075 0.01187086 
-0.56699634 -0.70710415 0.42251495 
-0.9573381 -0.14939365 0.24735682 
-0.97048837 -0.24087536 0.011470367 
-0.85859126 -0.31555566 -0.40403673 
-0.43016872 0.28782228 -0.8556362 
0.38993204 -0.61138034 -0.6885979 
0.65376127 0.24216552 -0.7169045 
0.7620606 0.17051476 0.6246507 
-0.18352516 0.58645093 -0.7889195 
-0.25036684 0.2571137 -0.9333858 
0.29562673 0.90211964 -0.31430092 
-0.25145003 0.96768177 -0.019103909 
-0.77316713 0.50688857 0.38115183 
-0.2509496 0.93992376 0.23144709 
-0.29322243 0.82865936 0.47680628 
-0.0028599205 0.60406625 -0.79692894 
0.6925979 -0.06401362 -0.7184779 
0.76466596 0.38994566 -0.51305795 
0.8722078 0.44513354 -0.20275544 
0.5147815 0.10920425 -0.8503379 
-0.15028656 -0.45126128 -0.87964606 
-0.60785025 -0.3194898 -0.72694176 
-0.4361565 -0.25396952 -0.86328846 
-0.6671798 -0.6223186 -0.40937835 
-0.34502837 -0.81486 -0.4657882 
0.020137621 -0.68213767 -0.7309465 
0.041584354 -0.023610037 -0.99885607 
0.02715546 -0.27189058 -0.96194494 
0.06324899 -0.5665709 -0.82158214 
0.114290185 -0.74937385 -0.65220904 
0.34221825 -0.47111037 0.8129833 
0.24982753 -0.58311427 0.77302265 
0.43431875 -0.7579292 0.48673454 
0.93767023 -0.33875993 -0.07756517 
0.6567982 -0.6526949 0.37763172 
0.4869066 -0.8695902 -0.08206658 
0.94123745 0.2036645 0.26943097 
0.81697637 0.4522488 0.35779956 
0.2027308 0.54036003 0.81664634 
-0.38577834 -0.34115064 0.8571997 
-0.6257462 -0.040949978 0.77895105 
-0.4390497 -0.6169246 -0.6531764 
-0.7843427 -0.59345615 0.18060032 
-0.6047328 -0.56016725 -0.5661369 
0.20529903 -0.21565051 -0.95464516 
0.3485636 -0.3801447 -0.8567342 
0.7445939 -0.45340794 -0.48989925 
-0.100002214 -0.31352046 -0.94430107 
-0.07044184 0.12698555 -0.98940015 
0.8257386 -0.49547336 0.2695588 
0.8839177 -0.42638254 -0.19206119 
0.42804292 -0.8906124 -0.15358704 
0.65302885 0.11351205 0.748778 
0.7325737 0.36703575 0.57325447 
0.7786262 -0.20687485 0.59240544 
-0.3341468 0.54101306 0.7717842 
-0.21278459 0.3034539 0.9287833 
-0.91215295 0.069376126 0.40393576 
-0.9096954 -0.299103 0.2880831 
-0.9409522 0.3334752 -0.0583386 
-0.9601365 -0.2220601 -0.16978627 
-0.8487647 -0.524997 -0.06306074 
-0.19925645 0.47681805 -0.8561201 
-0.43231097 0.08401916 -0.8978018 
-0.060833164 0.3651603 -0.92895496 
-0.32184017 0.5438991 -0.7749792 
0.33637995 0.24228542 -0.9100255 
0.49831814 0.6385144 -0.58649683 
0.9587725 0.21050435 0.19090119 
0.32040396 0.25009906 0.91366947 
0.15334468 0.8579876 0.49024773 
-0.1363606 0.8043583 0.5782851 
-0.84793127 -0.21607307 0.4840715 
-0.755707 -0.48603654 -0.43894818 
-0.92249846 -0.15190479 0.3548544 
-0.9167788 -0.35427767 -0.1844016 
-0.9020295 -0.4023439 -0.15640387 
-0.8398505 0.00789723 -0.5427605 
-0.81657946 -0.06953005 -0.5730301 
-0.6176338 -0.005991514 -0.7864431 
-0.6359965 -0.21597487 -0.74085313 
0.2936593 -0.76036364 -0.5793198 
0.5862481 -0.45532134 -0.67007136 
0.87766886 -0.47908202 0.013339428 
0.61982995 -0.604698 -0.5001513 
0.8773073 -0.39625198 -0.2707698 
0.36090335 -0.38291758 0.8503664 
0.8041308 -0.44390026 0.39538118 
0.5608278 -0.45459658 0.691964 
-0.5477336 0.034300983 0.8359494 
-0.4167443 -0.15314355 0.8960309 
-0.37065387 0.62520415 0.68683004 
-0.88683236 -0.2131449 0.40999728 
-0.9276319 0.2706924 0.25734183 
-0.9623361 -0.26873422 0.04112301 
-0.24272704 0.9692352 -0.0408264 
-0.84907466 0.49958065 0.17173044 
-0.5592542 -0.5866968 -0.58568054 
-0.034650277 -0.40710676 -0.9127232 
-0.13667822 0.20562094 -0.96904033 
-0.7836321 0.38823757 -0.48496637 
-0.13080116 -0.1095984 -0.9853321 
-0.60220087 -0.7731986 -0.1987917 
0.5251699 -0.7038956 0.47825474 
0.15000728 -0.9854434 0.07999493 
0.9290966 -0.20213746 0.30970964 
0.61530054 0.13133767 0.7772746 
0.7233473 0.006158491 0.690457 
0.43765247 0.039847422 0.8982609 
-0.08309984 -0.2340138 0.96867543 
-0.57366693 -0.507506 0.6429183 
0.88019735 -0.3884081 0.27274895 
-0.57745725 -0.31263706 0.75418913 
-0.6589925 0.48839024 0.5720173 
-0.21912386 -0.3392784 0.9148087 
-0.327692 -0.82286733 0.4642278 
-0.6844635 -0.6725629 -0.28136963 
-0.5216828 -0.1488164 -0.84006006 
-0.38466007 0.21725747 -0.89712644 
0.26558295 -0.25754622 -0.9290509 
-0.17074794 -0.37613988 -0.9106943 
-0.67839813 0.017363435 -0.73448926 
-0.3226287 -0.41923591 -0.84861773 
-0.7822618 -0.3354988 -0.5248876 
-0.8898234 -0.45594844 -0.018042093 
-0.6147576 -0.34941092 -0.7070963 
-0.66754055 0.016368216 -0.7443935 
-0.039005175 -0.4228559 -0.9053571 
-0.00050120306 -0.16933079 -0.9855592 
-0.24940804 0.3577454 -0.8998966 
-0.80594444 -0.07748882 -0.58689785 
0.041584175 0.5724625 -0.8188758 
0.4541058 0.6187965 -0.6409983 
0.850879 0.47967505 -0.21428223 
-0.04301095 0.1511805 -0.98757005 
-0.44467095 0.4907165 -0.74930984 
-0.21308753 0.42085624 -0.8817447 
0.21960193 0.3191256 -0.92191863 
0.6709209 0.3151369 -0.67123324 
0.89835954 0.41330832 0.14874965 
0.49395785 -0.22607136 -0.83958167 
0.65635264 0.12328161 -0.7443137 
0.8354674 0.10755352 -0.5389123 
0.46648386 -0.22172095 -0.8562901 
0.25010377 0.9483132 -0.19532101 
0.22731452 0.97183836 -0.06211604 
0.50756264 0.77673334 -0.37291476 
0.52338094 0.7964655 0.302845 
0.014836973 0.8812055 -0.47250044 
0.5693691 0.8220736 0.0037382043 
-0.16035736 0.93732345 0.30937067 
-0.6148257 0.71011096 0.34312066 
-0.73870397 0.35477617 0.57310593 
-0.7423987 0.1185359 -0.6593887 
-0.58377665 -0.11232352 -0.8041072 
-0.23125568 -0.7808112 -0.5803919 
0.17732228 -0.6330281 -0.7535465 
0.006392899 -0.8048812 -0.59340155 
0.9949023 0.07613621 -0.06612709 
0.7449307 -0.27453342 0.60803765 
0.4363913 -0.8609295 -0.26146322 
0.9063894 -0.41174552 0.09446575 
-0.115923576 -0.70605236 0.6986071 
0.80435824 -0.27035287 0.5290719 
0.68562007 -0.7203957 -0.10466751 
0.7130597 -0.51183367 -0.47913688 
0.2732873 -0.91941017 0.28284106 
0.5219489 -0.7692325 0.3685792 
0.9374137 0.06307096 0.34245825 
0.65936613 -0.14090072 0.73850083 
0.8743417 -0.17637366 0.45212728 
-0.3428381 0.6724096 0.65599346 
-0.31065205 0.48275378 0.8188065 
-0.44153684 0.44549286 0.7788334 
-0.4109292 0.91146564 0.019176245 
0.21757187 0.97290415 -0.07823068 
-0.26775393 0.6192985 0.7380902 
-0.34938386 0.739064 0.5759474 
-0.12962674 0.97733015 0.16740033 
-0.7734691 0.27565074 -0.5707559 
-0.9758029 -0.2046733 0.0769264 
-0.87305564 -0.48758197 -0.0061570783 
-0.8556222 0.41570896 0.30837753 
-0.7938167 0.60600555 -0.05111219 
0.28933865 0.2780601 -0.9159507 
0.40988222 0.77538425 -0.48039135 
0.70335305 0.65350014 -0.27970013 
0.58985656 0.69662505 -0.40839046 
0.074618444 0.9231242 -0.37719214 
0.8251667 0.2759894 -0.49287897 
0.8143288 -0.5235868 0.25045082 
0.5845688 -0.70050234 -0.40936032 
0.37615392 -0.92064124 -0.10453776 
0.62194604 -0.16546428 0.76537883 
0.3375545 0.38067052 0.860899 
-0.049097445 0.99456894 -0.0917728 
-0.14569882 0.98867023 0.036098592 
-0.6993238 0.7005202 0.14218925 
-0.52063406 0.7542136 0.4001277 
-0.37487724 0.22089873 0.9003726 
-0.6584322 0.28164408 0.6979568 
-0.8982444 0.0164572 0.43918806 
-0.9577666 0.037200756 -0.28513035 
-0.35053292 -0.36754647 -0.8614153 
-0.10524277 -0.7318138 -0.67332953 
0.36651802 -0.7597609 -0.5370548 
0.85403305 -0.50990045 -0.10309783 
0.9358682 0.058118973 -0.34752405 
0.8693389 -0.42388082 0.25411606 
0.98163885 0.10099382 0.16181904 
-0.8523799 -0.21728358 0.47564325 
-0.9564998 -0.035409708 -0.289576 
-0.922943 -0.14749429 -0.35555837 
-0.68256855 -0.48258117 -0.5488312 
-0.60437495 -0.7439257 0.28514135 
-0.46399236 -0.8815281 0.08728873 
-0.75590867 -0.5764607 0.31031466 
-0.7042596 -0.67287683 0.22639653 
0.13560624 -0.9396968 -0.31397617 
0.19462901 -0.36996537 -0.9084301 
0.66683376 -0.33430877 -0.6660109 
0.35382497 -0.88857883 -0.29195154 
0.54480743 -0.62381715 -0.5603902 
-0.44022128 0.21550615 -0.8716435 
0.44354036 -0.017967502 -0.89607435 
0.11308712 0.7357083 -0.66779083 
0.31748125 0.6011287 -0.7333826 
0.8644274 0.3765768 -0.33309957 
0.9424747 0.33402467 -0.013003132 
0.952786 0.14191657 -0.26843727 
0.36410907 -0.89374477 0.26200175 
0.7798893 -0.1331762 0.6115855 
0.845685 -0.5278921 0.078401506 
-0.09358185 -0.9802244 0.17436348 
0.5241782 -0.8502211 0.048593946 
0.11219498 -0.93939185 -0.32396787 
-0.3996065 -0.9001943 0.17310387 
-0.046662375 -0.5875215 0.80786216 
-0.19981185 -0.6656602 0.7190075 
0.074585415 -0.9646351 0.25281656 
0.09862347 -0.5624322 0.8209406 
-0.11691235 -0.9197585 0.37466756 
-0.06501835 -0.42373383 0.9034502 
0.21429493 -0.7959602 0.5661494 
-0.12029048 -0.42631972 0.89653873 
-0.8644861 -0.14114872 0.4824323 
-0.84429556 -0.5358761 -0.0013629695 
-0.9023816 -0.3199881 0.28864375 
-0.47197434 -0.39448267 -0.7884311 
-0.17279829 -0.6170034 -0.767755 
0.7163458 0.12803598 -0.68589765 
0.9502201 0.020225732 -0.31092235 
0.9213814 -0.3434981 -0.18183875 
0.7141824 -0.47924536 -0.51016414 
0.12313955 -0.9220837 -0.3668767 
-0.7355996 -0.6248001 0.2617599 
-0.4921346 -0.86846274 -0.05980114 
-0.89695925 0.21793471 -0.384667 
-0.64257705 -0.75215775 -0.14612854 
-0.59733695 -0.7901907 0.13706635 
-0.42810547 0.11256764 -0.89669067 
0.16198803 -0.6355986 -0.75483406 
0.2265503 -0.030534318 -0.9735208 
0.7218379 0.12874538 -0.6799814 
0.20096895 -0.55352795 -0.80821925 
0.60374427 0.5338568 -0.5920219 
0.096679024 0.923965 -0.37005675 
0.6160359 0.6280034 -0.47551194 
-0.25916404 0.9533327 0.15488912 
-0.008546346 0.997747 -0.0665438 
0.024118902 0.97744256 0.2098196 
-0.19638084 0.74838907 -0.6335206 
0.2890515 0.75404805 -0.5897973 
0.3697428 0.13883367 -0.91870326 
0.35746747 0.068045154 -0.93144345 
0.30342793 0.71656084 -0.62807024 
0.044243652 0.5297506 -0.84699875 
0.14237471 0.47397006 -0.86895454 
-0.31630352 0.11314969 -0.94188607 
-0.55288947 0.1664527 -0.8164599 
-0.3367908 -0.34274286 -0.8769831 
0.028870467 -0.6930093 -0.7203504 
-0.68029326 -0.37789688 -0.6280089 
-0.28299955 -0.27708906 -0.9182227 
0.42559987 -0.696456 -0.57776624 
0.057781987 -0.9615653 -0.2684275 
0.12150832 -0.90734994 -0.4024323 
0.10389779 -0.9945853 -0.0023068893 
-0.047389284 -0.75361377 0.655607 
0.18348 -0.89107263 -0.41511998 
0.7662502 -0.63636965 0.08885122 
0.9670559 -0.24012095 0.08452747 
0.8603579 -0.4252592 0.28096068 
0.16098425 0.41969457 0.89327526 
0.20704128 0.7162292 0.6664457 
-0.10243767 0.91903836 0.38062444 
-0.85048455 -0.14495334 0.5056329 
-0.90895444 0.072829984 -0.41048452 
-0.9324644 -0.17577946 -0.31561345 
-0.63612354 -0.26242748 -0.72558856 
-0.1518848 -0.46998304 -0.8695097 
0.51814634 -0.28316423 -0.80705786 
0.8014165 -0.26094902 -0.5381797 
-0.13877586 -0.669398 -0.72982717 
0.68961936 -0.50202304 -0.52191776 
0.9609502 -0.047658086 0.2725866 
0.80859834 0.4096516 -0.42231998 
0.9566272 0.21651903 -0.19489524 
0.65745354 -0.1084551 0.745649 
0.9788214 -0.026794644 0.20295553 
0.6544408 -0.11958658 0.74659646 
-0.104490936 0.34920046 0.93120396 
-0.81683904 0.1611107 0.553911 
-0.9715648 0.11099118 0.20914754 
-0.78217804 -0.4369574 -0.44414598 
-0.5067912 -0.59196955 -0.6266856 
-0.34575537 -0.12188305 -0.9303751 
-0.18220587 0.11388466 -0.97664285 
-0.11725853 -0.19734016 -0.9732971 
0.021232862 -0.28210858 -0.9591476 
0.8345347 0.17047538 -0.52391803 
0.6586902 0.3432773 -0.66954315 
0.3920322 0.8497918 0.35237008 
0.75433314 -0.5355449 0.3797018 
0.743057 -0.6226673 0.24525844 
0.6612274 -0.060750484 0.7477217 
0.18800285 0.96564895 0.17937994 
-0.5749364 0.31992027 0.75305986 
-0.9119446 0.17090026 -0.37302846 
-0.9138852 0.36127597 -0.18518578 
-0.9584647 0.2825226 0.039068747 
-0.7786047 0.45913923 -0.4277452 
-0.8203808 0.32932633 -0.46746075 
-0.7350234 -0.6531536 -0.18201946 
-0.91941524 -0.06445955 -0.38796997 
-0.8330608 0.16128519 -0.52914727 
-0.52057517 0.24832286 -0.8169072 
0.6709311 -0.23525319 -0.70321226 
0.7176234 -0.5659028 -0.40591955 
0.7447212 -0.6402492 -0.18833888 
0.9117722 -0.38255998 -0.14939716 
0.7860091 -0.6148797 0.0641301 
0.2673082 -0.49429777 0.82717353 
0.513592 -0.82065046 0.25051162 
0.13179968 -0.8662816 0.4818559 
-0.5345195 0.14420792 0.8327623 
-0.4994516 0.21163386 0.84009475 
-0.7395054 0.6337947 0.22679536 
-0.9998863 0.012652144 -0.008218136 
-0.8010518 0.58898365 -0.10683825 
-0.85789865 0.19903733 0.4737027 
-0.78233594 0.5951917 -0.18356846 
-0.9995928 0.026143294 0.011436072 
-0.7868076 -0.38083887 -0.4856908 
-0.58105266 0.1956327 -0.7900036 
0.08877623 0.15833575 -0.98338634 
0.10028415 0.76511806 -0.6360325 
0.35740462 -0.66511244 -0.655658 
0.033113625 -0.99641705 -0.077825375 
-0.19727235 -0.75611234 0.62400144 
-0.23643497 -0.9646365 -0.116511665 
0.3294308 -0.25130677 0.910121 
0.9135354 0.15241393 0.3771247 
0.7325192 -0.26492816 0.6270796 
-0.13295098 -0.51640433 0.84596145 
-0.45017692 -0.21614909 0.8663835 
-0.69796866 -0.7038096 -0.13225663 
-0.44666493 -0.86089355 0.2436242 
-0.96151996 0.27449533 -0.011477222 
-0.62313694 -0.23544635 0.7458321 
-0.78106844 0.09188998 0.6176475 
-0.889166 -0.1951074 0.41390455 
-0.24119481 -0.7475213 -0.6188998 
-0.085186005 0.0017754025 -0.9963636 
0.17285478 -0.12067467 -0.9775269 
0.3467754 -0.056223046 -0.9362616 
0.15549402 0.38207406 -0.9109562 
0.3620055 0.53158695 -0.7657463 
-0.29778716 -0.10120066 -0.949253 
-0.7119775 0.4003365 -0.5769046 
-0.8265966 -0.5534655 0.10205 
-0.8115285 0.38082302 -0.4431653 
-0.5373894 0.0555247 -0.84150445 
0.19992414 -0.5195038 -0.83075047 
0.50549674 0.5752419 -0.6430939 
0.4361735 0.59621745 -0.67400116 
0.15660392 0.5880202 -0.7935412 
0.5447109 0.31905305 -0.7755612 
0.21050847 0.80917525 -0.54856336 
-0.21672457 0.5070878 -0.83420163 
-0.6281345 0.4809147 -0.61169285 
0.16531232 0.8701957 -0.4641457 
0.017356204 0.5987671 -0.8007351 
-0.4565989 -0.25960326 -0.85095465 
0.7718038 0.5724845 -0.27673173 
0.97783494 0.18840995 -0.09132724 
0.9682712 0.047134332 -0.2454169 
0.97998226 0.19905949 -0.0031721813 
0.8739331 0.42400047 0.23762289 
0.42896625 0.3348108 -0.8389814 
0.37495822 0.8925015 -0.25069398 
0.20125718 0.9771263 -0.06870014 
0.1170605 0.9900246 0.07840974 
0.025259893 0.9254373 -0.37805805 
0.03270054 0.9979996 -0.05410661 
0.523453 0.33941683 0.7815326 
-0.48368257 0.38973188 0.7836838 
-0.8642261 -0.25680783 0.43262357 
-0.9970112 -0.019606806 -0.07472904 
-0.933522 -0.044460632 0.3557529 
-0.926078 -0.34880146 -0.14393434 
0.021128565 -0.98944235 0.14337847 
0.099591464 -0.89243 -0.44005722 
0.60126835 -0.7125919 -0.36150968 
0.8503004 -0.34828636 -0.39457062 
0.895581 -0.35226017 0.27174887 
0.98788136 0.12275708 0.09497965 
0.995264 -0.03917632 0.08896513 
0.67695826 -0.62178856 0.39383575 
0.93672013 -0.34325716 0.06877485 
0.5404713 -0.8099033 -0.22791968 
0.7869669 -0.31134477 -0.53267956 
0.41840968 -0.70237875 0.5758451 
0.2121368 -0.9771631 0.012260327 
0.92501307 -0.3799235 0.0029845051 
0.945944 -0.32363912 0.02115989 
0.98397434 0.13164812 -0.12026363 
0.387798 0.4077119 0.8266704 
0.723818 0.14802763 0.6739254 
0.41222534 0.7325932 0.5416433 
0.24091731 0.8325885 0.49875373 
0.40842518 0.634814 0.65589637 
0.24263524 0.12346501 0.962229 
-0.557339 0.1269933 0.82051575 
-0.48103294 0.025009833 0.8763457 
-0.8870916 0.13739155 0.44067246 
-0.6883795 -0.67267275 -0.2713762 
-0.9615311 -0.25969127 -0.08954606 
-0.8453957 0.39706537 -0.3572747 
-0.030150367 0.86189824 -0.5061842 
0.5617378 0.20197792 -0.8022815 
0.7981157 0.50036323 -0.3356311 
0.38920623 0.3292178 -0.8603105 
0.33867154 0.64848745 -0.6817373 
0.5614024 0.7083334 -0.42789158 
0.8969051 0.29677123 -0.3278537 
0.72911423 -0.6103108 -0.3096986 
0.9082046 -0.376648 0.1824848 
-0.053174607 0.25420943 0.9656863 
0.22575884 0.30485675 0.9252543 
-0.0027030783 0.6980346 0.716059 
-0.30185437 0.9529191 0.028794812 
-0.12837623 0.9568982 0.26051 
-0.67484766 0.6421727 0.36358628 
-0.6521071 0.022419784 0.7577953 
-0.9046683 -0.15810707 0.39569885 
-0.6779225 -0.73508596 0.008352334 
-0.9866485 0.13260187 0.094559364 
-0.94174945 -0.3324717 -0.05070039 
-0.59903145 -0.7911323 -0.123576514 
0.10428227 -0.11941084 -0.98735315 
0.55507916 -0.20581841 -0.80593175 
0.9879286 0.075223885 -0.13541949 
0.9173845 -0.29456788 -0.26764828 
0.8311085 -0.11047285 -0.54502696 
0.9821181 -0.18816155 0.0062672044 
-0.0054996596 0.29428002 0.9557035 
-0.9914932 0.12661275 0.030175513 
-0.6349271 0.17193788 -0.75319654 
-0.9497241 0.25704524 -0.17875102 
-0.86457103 -0.1212601 -0.48766068 
-0.9822889 -0.13158989 -0.13338916 
-0.82831466 -0.09971882 -0.5513175 
-0.9151157 -0.102956265 -0.38982472 
-0.2230359 -0.14432164 -0.9640676 
0.24092358 0.71106577 -0.6605614 
0.52850765 -0.4638018 -0.7110328 
0.10985784 -0.38502464 -0.9163446 
-0.07130743 0.1754143 -0.981909 
0.09384013 -0.31672186 -0.9438652 
0.4953338 0.22766872 -0.83833855 
0.45708102 0.6304494 -0.62738395 
0.24272375 0.96825355 -0.059751455 
0.31823075 0.9066057 -0.2771194 
0.838511 0.44988593 -0.3074117 
0.9644629 0.24665008 -0.09473692 
0.82729906 0.15141779 0.54097044 
0.8499647 -0.0193709 0.5264834 
0.9167842 0.26132154 0.30202278 
0.7848887 -0.5408756 0.3023298 
0.9143082 -0.3408533 -0.21876833 
0.50413084 -0.78301895 0.36432624 
-0.23835535 -0.6183579 0.7488793 
-0.058384527 -0.93660754 0.34548157 
0.1854805 -0.7881324 0.58689374 
0.53315085 -0.6976964 0.47850817 
-0.05122247 -0.9127721 0.40524504 
0.12869237 -0.9895394 0.06519297 
0.4036278 -0.84786373 0.34381923 
0.40490386 -0.5383414 0.7390815 
-0.11172437 -0.50922936 0.85334814 
-0.92806524 -0.14750613 0.3419605 
-0.72327936 -0.43960518 -0.5325546 
-0.7770904 -0.5489329 -0.30790147 
-0.116317496 -0.6910683 -0.7133687 
-0.3730756 -0.53661 -0.756878 
0.80114126 0.13795131 -0.5823591 
0.7907631 0.06370565 -0.6087983 
0.75598043 -0.62541455 -0.19326238 
0.48265266 -0.80909514 -0.33527833 
0.04242338 -0.99883723 -0.022902591 
-0.8547372 -0.3893635 0.34325004 
-0.32430884 -0.93244106 0.15930304 
-0.13056438 -0.43954456 -0.8886808 
-0.04927453 -0.98834634 -0.1440266 
-0.5729014 -0.48263806 -0.6624534 
-0.63333833 -0.02345542 -0.7735196 
-0.09233627 0.20470676 -0.97445846 
0.4668985 -0.23837319 -0.8515774 
0.6803852 -0.705184 -0.19947836 
0.24484515 0.0641838 -0.9674354 
0.68472576 0.4413851 -0.57993954 
0.21086876 0.8222535 -0.52861476 
0.20376514 0.8217317 0.5322 
-0.12991011 0.89748836 0.4214712 
-0.41189674 0.6652587 -0.6227134 
-0.030110994 0.9570477 -0.28836283 
0.25223982 0.47349304 -0.8439072 
0.08441758 0.9496171 -0.3018294 
-0.30570844 0.7829882 -0.5417305 
-0.26036003 0.95728695 -0.12575516 
0.20985098 0.9140796 -0.34701747 
-0.87127376 0.37871858 -0.31217694 
-0.26021662 0.6075027 -0.75048506 
-0.8701056 -0.19894765 -0.45092788 
-0.7815876 -0.4107749 -0.46945164 
-0.6334762 -0.7284149 -0.2609975 
-0.8256448 0.11516185 -0.55231196 
-0.13972545 -0.25256643 -0.95743775 
0.076960705 -0.5607447 -0.8244043 
-0.123368286 -0.64474565 -0.75437623 
0.2471687 -0.49968097 -0.83019674 
0.5611745 -0.3638846 -0.74341863 
-0.24299619 -0.81376857 -0.5279523 
0.8263696 -0.3582256 -0.43449715 
0.8844948 -0.40156293 0.2375207 
0.37262675 -0.6567855 0.6555778 
0.7286568 0.6815949 0.06699013 
0.83494186 -0.20113224 0.51226735 
0.75171465 -0.24508002 0.6122589 
0.81135184 0.35250002 0.4663175 
-0.08254826 0.10934362 0.9905704 
-0.43946186 -0.031054303 0.8977244 
-0.9730824 0.15102246 -0.17407723 
-0.8805282 -0.46758956 0.07765443 
-0.9597744 -0.17074692 -0.22288719 
0.09754592 0.11591035 -0.9884582 
0.1783871 0.20356146 -0.9626738 
0.32173973 -0.39044574 -0.86257505 
0.12681758 -0.74176216 -0.6585638 
0.23524113 -0.78268516 -0.57625127 
0.96684897 -0.24296513 -0.07855529 
0.9512333 0.2350381 0.19978029 
0.91477466 0.36495548 -0.17319049 
0.7106892 -0.22638376 0.66608655 
0.8080734 -0.005087212 0.58906 
0.48964244 0.5078452 0.70876205 
0.38925883 0.030588392 0.9206204 
0.09141829 -0.2053638 0.9744068 
-0.89356714 -0.06484972 0.44422102 
-0.87830234 -0.3725743 -0.29962218 
-0.81804633 0.13653085 -0.5587123 
-0.20349094 0.50523776 -0.8386455 
-0.40584067 0.5655997 -0.71790695 
-0.60525835 0.27104917 -0.74846154 
-0.40548375 0.5567018 -0.7250283 
0.5145181 -0.40576807 -0.7553962 
0.65665823 0.029359685 -0.75361663 
0.8111882 0.54112804 -0.22170748 
0.84671485 -0.5048539 0.1679186 
0.7784776 0.026633773 0.62710714 
0.45747864 0.061879616 0.88706493 
-0.42025796 0.45088708 0.78745425 
-0.4957989 0.6583358 0.56637216 
-0.96329 0.20150074 -0.17739765 
-0.9755325 0.21325456 0.053469636 
-0.87704027 -0.34408483 0.33527035 
-0.63987505 0.74000674 -0.20724401 
-0.5394838 0.63534707 0.5525318 
-0.99755967 0.049237065 0.049501557 
-0.8866907 -0.13620234 -0.44184694 
-0.6668217 0.5532432 -0.49927038 
-0.85098004 0.46578857 -0.24264 
-0.22673957 0.2763691 -0.9339216 
0.21879025 -0.57463866 -0.7886198 
0.9069333 -0.3308414 -0.26079896 
0.70717174 -0.39973548 0.5831979 
0.7281335 -0.6042997 -0.32348663 
0.7272277 -0.67027 0.14791232 
0.6465442 -0.60333776 -0.46686634 
0.7152622 -0.26096976 0.64830154 
0.14731191 -0.53155017 0.8341185 
-0.50781083 -0.44270688 0.73901206 
-0.9096123 0.0034079242 0.41544423 
-0.99931353 -0.030407531 -0.021163959 
-0.94977736 0.014510141 0.3125901 
-0.98728335 -0.15876897 -0.007998731 
-0.93990797 0.31872928 0.122411855 
-0.9953435 0.092992246 -0.025373789 
-0.89916253 -0.10623439 0.42452464 
-0.92891115 0.20432314 -0.3088303 
-0.8038873 -0.13274173 -0.5797799 
-0.5587933 0.09722976 -0.82358766 
0.5672833 -0.289187 -0.77107763 
0.61402935 -0.55547935 0.5607235 
0.4401369 -0.876559 0.19474047 
0.4080649 -0.6666018 -0.62379897 
0.9803183 -0.04217693 -0.1928657 
0.9197387 -0.027286205 0.3915817 
0.9218193 -0.07233817 0.38081026 
0.24010564 -0.8345441 0.49586844 
0.2726552 -0.27994254 0.9204843 
-0.44361326 -0.81948227 0.36284474 
-0.3646402 -0.8589073 0.35960504 
-0.98331743 0.17803809 -0.037274178 
-0.8288489 0.033086844 0.5584933 
-0.76920384 -0.15342495 0.62031144 
-0.7966922 -0.092076264 0.5973304 
-0.972434 -0.19335742 0.13032714 
-0.7363977 -0.06987039 -0.6729314 
-0.48229402 0.012508832 -0.8759201 
-0.3043082 -0.068885386 -0.95007974 
-0.37261093 0.13218528 -0.91852504 
-0.4082927 0.2415629 -0.88030934 
-0.5444263 -0.1746549 -0.820424 
-0.8862068 0.032704808 -0.46213424 
-0.8062775 0.098685086 -0.5832478 
-0.72979265 0.30525526 -0.61173683 
-0.04005164 0.43426642 -0.89989376 
0.026886871 0.4105734 -0.91143113 
0.30188963 0.87975657 -0.36727536 
-0.22542062 0.6723178 -0.7051059 
0.23603189 0.84091043 -0.48698938 
0.18439965 0.97571707 -0.118207514 
0.039371762 0.99906486 -0.017867416 
0.3613587 0.7317786 -0.5778582 
-0.5877121 0.71535945 -0.37796208 
-0.3269295 0.5115572 -0.7946234 
-0.32425725 -0.006417815 -0.94594723 
0.053938594 0.060900204 -0.99668545 
0.6463668 0.19763833 -0.7369865 
0.47167456 0.2951587 -0.83090574 
0.73228335 0.34862757 -0.5849957 
0.688825 0.6285649 -0.36114603 
0.8698447 0.1558742 -0.46805304 
0.735876 0.6626452 0.13924016 
0.5236895 0.84534067 0.10558671 
-0.30512756 0.9253221 0.22511375 
-0.0057353475 0.9510949 0.3088456 
0.02950524 0.9969721 0.071945965 
-0.6305277 0.57655185 0.51963717 
0.18398073 0.09169192 0.9786439 
-0.38578853 -0.00655034 0.92256397 
-0.79798806 -0.35251734 0.48882163 
-0.9332233 0.2651318 0.2424862 
-0.84766364 -0.07354138 -0.5254122 
-0.3529205 -0.7896391 -0.50191355 
-0.21806912 -0.9718191 -0.08951796 
-0.015542068 -0.75566196 -0.65477747 
0.57481694 -0.24436116 -0.7809437 
0.5384632 -0.35444754 -0.76447654 
0.1403855 -0.9741385 -0.17704879 
0.7429322 -0.4494399 -0.49603984 
0.9159334 0.19740303 -0.34942526 
0.7213259 0.033185054 -0.69180036 
0.9839178 0.005631483 -0.17853363 
0.9688788 -0.2396797 -0.061867908 
0.8969784 -0.36141545 0.25457564 
0.7067792 -0.52921695 0.46946007 
0.19617131 -0.9703007 0.14153999 
0.5391747 -0.8364074 -0.09855705 
0.3965324 -0.91798204 -0.008432301 
0.17831054 -0.62053984 0.76363325 
0.21998334 -0.05086964 0.9741764 
0.044131786 0.057301156 0.99738103 
-0.191094 0.33497882 0.9226442 
-0.4447506 0.8939325 0.055514213 
-0.083272524 0.9510074 0.2977425 
0.52949387 -0.48040417 0.6991768 
0.005632676 -0.29931217 0.9541387 
-0.5632083 -0.17289738 0.80802405 
-0.9247291 -0.25755823 0.2802499 
-0.7913791 -0.4560949 -0.40705842 
-0.95241195 -0.024224024 -0.30384964 
-0.8951451 -0.41547006 -0.16155425 
0.17413938 -0.1700731 -0.969923 
0.73338795 -0.11609804 -0.66982347 
0.8874286 0.4503601 -0.09821641 
0.8091886 0.1510232 -0.5678078 
0.62646365 0.35389704 -0.6944784 
0.49097288 0.75349206 -0.43725887 
0.5740169 0.566025 -0.5917096 
0.8158492 0.005790481 0.57823575 
0.9749599 -0.14751406 0.16641189 
0.19908465 0.53996307 0.8178051 
0.046541948 0.6916738 0.7207089 
-0.094158225 0.96066976 0.26124293 
0.38495082 0.9216337 -0.04903281 
-0.2934344 0.7934123 0.5332854 
-0.48232397 0.39445218 0.782158 
-0.4345288 0.5639414 0.70224994 
-0.9988688 -0.046664752 0.009136756 
-0.7717193 -0.61857194 0.14770995 
-0.72383165 -0.6336161 -0.2731273 
0.049961675 -0.5141723 -0.85623044 
-0.43962738 -0.34761077 -0.8281875 
0.31358367 -0.31893837 -0.8943957 
0.11393152 -0.45144126 -0.8849975 
0.60987395 0.20418674 -0.76574254 
0.3431457 -0.35233986 -0.87069386 
0.38103732 -0.09566767 -0.91959685 
0.37258008 0.37853038 -0.8472892 
-0.69839036 0.20329212 0.6862385 
-0.99666494 0.056330528 0.059041657 
-0.88100165 -0.18684883 -0.43465367 
-0.7342064 -0.30849847 -0.604789 
-0.6280932 -0.34951633 -0.6952247 
-0.659841 -0.32946017 -0.6753266 
-0.6917796 0.37468213 -0.617296 
-0.14725313 -0.905273 -0.39849398 
0.13373135 -0.2004074 -0.9705426 
0.0011045793 -0.22041975 -0.97540456 
0.4431383 0.4062018 -0.7991425 
0.56376976 -0.08919338 -0.8211019 
0.1891388 0.13359691 -0.9728198 
0.6947211 -0.10333015 -0.7118185 
0.72924626 0.27105448 -0.628275 
0.69141555 0.40901226 -0.59552807 
0.46504837 0.7881295 -0.4032145 
0.7972174 0.6026325 0.035757538 
0.99205303 -0.010721121 0.12536277 
0.3702249 0.704297 0.60572207 
0.5582898 -0.6225176 0.54843813 
0.25348946 -0.77059746 0.5847416 
0.55976844 -0.36576876 0.74355406 
0.42793554 -0.74988663 0.5045209 
0.003048328 -0.6774406 -0.73557127 
0.7992207 -0.21122752 -0.56269825 
0.39498913 -0.8932009 0.21488558 
0.7263644 -0.672326 0.14273284 
0.5697181 -0.76721925 0.29461133 
0.42098436 -0.7619084 0.49220717 
-0.16213825 -0.98544765 -0.05103269 
-0.0012702282 -0.92351604 -0.38355795 
-0.36177832 -0.70960027 0.6046354 
-0.52560794 -0.74268097 0.41492337 
-0.29521653 -0.83640194 0.46182156 
-0.632859 -0.16519246 0.7564398 
-0.9344459 -0.3165422 -0.16313194 
-0.1412167 -0.9258714 -0.35045698 
-0.44765654 0.08300023 -0.8903452 
-0.62050754 -0.41751572 -0.66381556 
0.07837748 -0.24632838 -0.9660121 
0.1256234 -0.25007215 -0.96004313 
0.3349833 -0.7339458 -0.5908551 
0.08724848 -0.85015374 -0.5192555 
-0.24243192 -0.89793664 -0.36733696 
-0.8285376 -0.5474504 -0.11757399 
-0.8145162 -0.5568277 -0.16280794 
-0.450752 -0.86797917 -0.20841035 
-0.21845788 -0.97119033 -0.095213816 
-0.7864005 -0.5267595 -0.3226433 
-0.8346946 -0.15564954 -0.52825963 
-0.16078024 0.2406358 -0.9572065 
0.1924478 -0.4047465 -0.89394873 
0.73649174 0.105330385 -0.6681957 
0.87087786 0.1368 -0.47207794 
0.5481951 0.33116418 -0.76799256 
0.9956231 -0.017301882 0.09184343 
0.29115742 0.8656828 0.407211 
-0.13358024 0.9128672 0.38578498 
0.19370076 0.85108715 -0.48798642 
-0.40119186 0.8797083 -0.2552616 
-0.56652194 0.36816064 -0.73723173 
0.1368261 0.90425074 -0.40448642 
-0.35890278 0.9140055 0.18916333 
-0.40797317 0.85539305 0.3191563 
-0.2910382 0.89407516 0.34047952 
-0.78942436 0.30655676 -0.53181964 
-0.27838728 0.9156055 -0.29011577 
-0.6024458 0.7893874 -0.11801098 
-0.67324585 0.5474591 -0.49701977 
-0.78757393 0.13184302 -0.6019508 
-0.7017524 -0.11958746 -0.70231223 
-0.67667747 -0.17686579 -0.714721 
0.2725974 -0.41588876 -0.86759853 
-0.30293795 -0.5833191 -0.7536362 
0.32977083 -0.40102118 -0.85465384 
0.34083462 0.14954695 -0.9281528 
0.19419572 -0.36553237 -0.9103155 
0.46680486 -0.042238947 -0.8833511 
0.5375554 0.083046414 -0.83912915 
0.88554436 -0.13901578 0.44326726 
0.9509719 0.16766441 0.25988686 
0.9928109 -0.0766409 -0.09193871 
0.77885205 0.59291756 -0.20454456 
0.023155041 -0.31669533 0.94824463 