# OOMMF: rectangular mesh v1.0
# Segment count: 1
# Begin: Segment
# Begin: Header
# Desc: Time (s) :  4.2100000000000034e-07
# Title: m
# meshtype: rectangular
# meshunit: m
# xbase: 2e-09
# ybase: 2e-09
# zbase: 5e-10
# xstepsize: 4e-09
# ystepsize: 4e-09
# zstepsize: 1e-09
# xmin: 0
# ymin: 0
# zmin: 0
# xmax: 1.024e-06
# ymax: 1.024e-06
# zmax: 1e-09
# xnodes: 256
# ynodes: 256
# znodes: 1
# ValueRangeMinMag: 1e-08
# ValueRangeMaxMag: 1
# valueunit: 
# valuemultiplier: 1
# End: Header
# Begin: Data Text
0.1708028 0.53833175 -0.82524264 
0.72640514 -0.17062974 -0.6657485 
0.85148853 0.51184535 -0.11393742 
0.12509313 0.9495626 0.28754574 
0.25345093 0.9400599 0.22814514 
0.50564045 0.37500155 0.77698237 
-0.41560793 0.8798097 0.23066205 
-0.20137274 0.9739171 0.10456783 
-0.31351906 -0.5250594 -0.7912132 
0.23198675 0.10202285 -0.9673539 
0.050531697 0.8823657 -0.4678433 
-0.32134175 0.049087606 -0.9456903 
-0.3330056 0.23620945 -0.91285956 
-0.4348768 -0.4791892 -0.76240414 
-0.5576186 -0.2978516 -0.77482 
-0.23988546 0.4377881 -0.86648524 
-0.7798235 0.22646406 -0.58360034 
-0.39592716 0.6795543 -0.6176145 
-0.53703505 0.26429203 -0.80108863 
-0.06746333 -0.3054301 -0.9498217 
-0.1179174 0.14365828 -0.98257715 
-0.7918691 -0.42917362 -0.4344575 
-0.1896603 -0.7791488 -0.5974581 
0.23763438 -0.77627784 -0.58388585 
-0.25666162 -0.8006625 -0.5413541 
-0.7716643 -0.6056623 0.19418395 
-0.1755195 -0.9659752 0.18995973 
-0.34015056 -0.27461353 0.8993804 
-0.63477325 -0.5298888 0.56238854 
-0.9901404 0.051895924 0.13011082 
-0.68048084 -0.6949015 -0.23250327 
-0.62135553 -0.6623046 0.41865265 
0.0132628605 -0.9994103 0.031675957 
-0.21585143 -0.9454009 0.24418284 
-0.51238364 -0.8269312 0.23161998 
0.11228337 -0.8820028 0.45767188 
0.059611615 -0.8995057 0.43282342 
-0.08163953 -0.56241536 0.82281464 
-0.40046906 -0.67958057 0.61465025 
0.030312464 -0.5161101 0.85598564 
-0.56900686 -0.61125916 0.55008495 
-0.33811772 -0.5578619 -0.75793576 
-0.31873134 -0.77246875 -0.5492745 
-0.0894789 -0.6384484 -0.76444566 
0.17512505 -0.13097781 -0.9757951 
-0.5317023 0.20517288 -0.8217037 
0.031703036 -0.324514 -0.94534945 
0.17838547 -0.29923153 -0.93735754 
-0.7710671 0.63166577 -0.080336876 
-0.34700304 0.7485268 -0.5650634 
0.53642094 -0.3920035 -0.747386 
0.5312225 -0.33448377 -0.7784107 
0.28091088 -0.9109358 -0.302134 
0.4608674 -0.65962243 -0.5937168 
0.1926975 -0.86035484 -0.47186574 
0.20682712 -0.9764549 0.06130646 
0.5278583 -0.5086077 -0.68020874 
0.4884156 0.13444787 -0.8621914 
-0.5009623 0.83484674 -0.22818384 
-0.9413276 0.33746862 -0.0041749473 
-0.00743896 0.8717815 -0.48983842 
-0.5549168 0.8317012 -0.018451944 
-0.07708535 0.573972 -0.8152386 
-0.56514025 0.39218885 -0.72581303 
-0.14767896 0.6913424 -0.70727414 
0.25181827 0.4289418 -0.8675232 
0.31115398 0.3319381 -0.8905057 
-0.61145794 -0.26981774 0.7438533 
-0.19000368 -0.9343302 -0.30153912 
-0.058915254 -0.4962121 -0.8662001 
0.032823846 -0.5599901 -0.8278488 
-0.2768448 0.3819269 -0.8817533 
-0.33538535 -0.14829001 -0.9303369 
-0.12206373 0.2814803 -0.9517717 
-0.066269614 -0.33754674 -0.9389732 
0.49670497 0.20954567 -0.8422439 
0.27809578 -0.65788746 -0.6998906 
-0.33807093 -0.43747315 -0.83326185 
0.38596225 -0.91264516 -0.13458115 
0.075236484 -0.03749562 -0.9964605 
-0.36287925 0.048369896 -0.93058 
-0.10528745 0.96037966 -0.25804174 
0.12154865 0.77567667 -0.6193155 
0.43930227 0.6413371 -0.62904716 
0.9431669 0.2525606 0.21598463 
0.8571382 0.14610359 0.49393108 
-0.4134163 0.04918445 0.90921277 
-0.65659356 -0.3332405 0.6766357 
-0.46983978 0.24548219 0.8479323 
-0.8094089 0.52080727 0.27132437 
-0.5882144 0.13635974 -0.79712605 
0.040511463 -0.8270533 -0.5606618 
0.053340487 -0.08943124 -0.9945637 
-0.18537657 -0.73909956 -0.64758587 
0.32231426 -0.15869676 -0.93323576 
0.6143056 -0.29473525 -0.7319561 
0.9907572 0.01840162 -0.13439375 
0.3907056 -0.8392671 0.37812692 
0.73282224 0.43736145 0.5212356 
0.9046985 -0.35586238 0.23427035 
-0.13217708 0.65450746 0.744412 
0.6656339 0.52728826 0.52810854 
0.56221884 0.6517627 0.5090338 
0.5372846 0.31166604 0.7837025 
0.3012545 0.31561032 0.89979774 
-0.38290283 -0.468298 0.7962931 
-0.74116164 0.24911618 0.6233944 
-0.26287174 0.4488747 0.85405505 
-0.94202495 0.26972863 -0.1995885 
-0.7422106 -0.45801452 -0.48923016 
-0.41304967 -0.6695642 -0.6173118 
0.5176179 -0.79695135 -0.31135225 
0.6690534 -0.40846947 0.6209028 
0.10033323 -0.39625704 0.91264105 
-0.3061705 -0.9343148 0.1825254 
-0.66612685 -0.7458302 -0.0035327848 
-0.24640583 -0.48603258 -0.8384847 
0.2953925 -0.748493 -0.5937184 
0.4475265 -0.77768344 -0.4415072 
0.007288777 -0.89917356 0.43753156 
-0.12134938 -0.991192 0.053035274 
-0.059595466 -0.9917074 0.11386385 
0.03602012 -0.51545966 0.8561565 
0.40763086 -0.8930326 0.19060422 
-0.20670913 -0.9714672 -0.11628752 
0.3250284 -0.7877306 -0.5232945 
0.7523999 -0.5031293 -0.4251531 
0.6133989 -0.7347363 0.2896624 
0.56479645 -0.8112966 0.15100606 
0.8316441 -0.5481591 0.08882451 
0.91700375 0.2975551 0.26564088 
0.98698676 -0.05546882 -0.15093164 
0.4789231 -0.14133209 -0.8664052 
0.7071308 0.24226998 0.66428256 
0.75039023 0.18741712 0.6338687 
-0.27248228 -0.37398398 0.8865041 
-0.26498407 0.28059435 0.9225239 
0.52031237 0.5349336 0.66567343 
-0.073979095 0.16477856 0.98355234 
-0.77496487 -0.025752665 0.6314795 
-0.7858938 -0.19019033 0.58838636 
-0.26586482 0.0044269366 0.96400017 
-0.6642841 -0.72501534 0.18187764 
-0.5489001 -0.7086995 -0.44323105 
0.6074748 -0.5203988 -0.60013294 
0.63248086 -0.14243565 -0.76136726 
-0.36767426 -0.31033772 -0.87664485 
-0.20981972 0.16979986 -0.9628831 
-0.46193773 -0.46474853 -0.7553956 
-0.01478378 -0.8236903 -0.56684726 
0.12969366 -0.091671534 -0.98730737 
0.47884893 0.542583 -0.6901504 
0.69456065 0.70707905 0.13275814 
0.4447793 0.8597217 0.25109747 
0.16417108 0.9767474 0.13788538 
0.29500976 0.76559705 0.5716908 
0.44203237 0.8950124 -0.059667785 
0.51724833 0.8244888 0.22950475 
0.6734357 0.61359096 0.41229922 
0.7899887 -0.3370394 0.5121741 
-0.22836895 0.636123 0.73701775 
-0.045509484 0.6402244 0.7668388 
-0.29085892 0.86164564 0.41589397 
-0.3056178 0.9451197 0.1155271 
-0.4599261 0.8851196 0.07093175 
0.11655486 0.3056287 -0.94499 
-0.29828826 0.6083848 -0.73545367 
-0.30650738 -0.013677834 -0.95177007 
-0.08343115 0.33188474 -0.9396233 
0.30504313 -0.32037947 -0.896831 
0.31414416 -0.5819998 -0.7500599 
-0.057504386 -0.20714958 -0.9766179 
0.32581976 0.86119413 -0.39011034 
0.7382674 -0.048090458 -0.67279166 
0.99394953 -0.0024655948 0.10981018 
0.5577549 -0.7706497 0.30823466 
0.41950855 -0.8439954 0.3341922 
0.6776993 -0.30257756 0.67020184 
0.743985 -0.09809611 0.6609566 
0.60474586 -0.20349066 0.7699831 
0.3429001 0.49703425 0.79710513 
0.15045276 0.41022757 0.8994873 
-0.54518867 -0.2539199 0.798933 
-0.9672199 0.25000608 0.04452796 
-0.8280899 0.37232968 -0.41909185 
-0.6423629 0.75842685 -0.11026666 
-0.93285376 -0.06475152 0.35438854 
-0.5481317 -0.8092537 0.21132979 
-0.29003957 -0.9127952 0.28754506 
0.23960802 -0.4160651 -0.877199 
-0.20506477 -0.38442004 -0.90009433 
0.94554746 0.097325005 -0.3105929 
0.8766819 0.45170102 -0.16551456 
0.8509074 -0.1457167 -0.5047013 
0.5027741 -0.8322366 -0.23366739 
0.9325913 0.1793984 -0.31319278 
0.81806326 -0.3207959 0.47734952 
0.77298844 -0.39502108 0.49643448 
0.14361845 0.52727735 0.8374678 
-0.47927952 0.35477415 0.8027618 
-0.8040888 0.06330303 0.5911294 
-0.24168849 0.4243631 0.8726412 
-0.6980652 0.02752751 0.7155049 
-0.018588874 0.707002 0.7069673 
-0.62964994 0.28760493 0.72168165 
-0.57600397 0.4042487 0.7104945 
-0.01250766 0.31508294 0.9489818 
0.11382779 0.5481778 0.8285798 
-0.22206269 -0.6037715 0.7656031 
0.15618804 -0.5641077 0.81079453 
-0.68051994 -0.67622447 0.28215796 
-0.52535903 -0.46476957 0.71273226 
-0.82894325 -0.55012774 -0.101056896 
-0.18168275 -0.9157037 -0.35843846 
-0.76418215 0.5676083 -0.3063437 
-0.35266998 0.04084569 -0.93485594 
-0.10373617 0.08962562 -0.99055845 
0.2984221 0.7926516 -0.5316463 
0.9418917 0.22126524 0.25274828 
0.757911 0.44581386 -0.47625738 
0.8388416 -0.039896775 -0.5429116 
0.764791 0.2344054 -0.60012406 
0.6968371 -0.049882244 -0.7154927 
0.29517257 0.05659554 -0.95376635 
0.3677813 0.22065207 -0.9033547 
-0.4166839 0.8814817 -0.22218154 
0.66578144 0.56625116 0.48589584 
0.6793857 0.541037 0.49569553 
0.6909956 0.2890676 0.6625444 
0.35375884 -0.033851113 0.934724 
0.20731843 0.19550602 0.9585388 
-0.38796213 -0.8921675 -0.23134993 
-0.67338055 -0.7293716 0.12073019 
-0.7026841 -0.14003098 -0.6975862 
-0.5919106 -0.31893593 -0.74021745 
-0.51425207 -0.2764707 -0.8118552 
-0.34284997 -0.6637355 -0.6647625 
0.84184057 -0.343028 -0.4166969 
0.70408946 -0.35189068 -0.61679095 
0.92810106 -0.26934567 -0.2570632 
0.81131685 -0.5097179 0.28627363 
0.3971254 -0.91259426 -0.097278684 
0.9597262 0.17404145 0.22053386 
0.64586574 -0.5377489 0.54192597 
0.58902663 -0.7746448 0.23015878 
0.8739251 0.48491067 0.0334175 
0.99374646 -0.025551157 0.10869784 
0.79241407 -0.36901236 0.48570555 
0.9740137 -0.18905811 0.12471701 
0.9442937 0.0434713 0.32622036 
0.96303993 -0.16117184 0.21581873 
0.3576345 0.63185936 0.68764186 
0.5166836 0.5457964 0.6596548 
0.9755541 0.19998601 0.09110284 
0.31180954 0.47616354 0.82221854 
-0.28001755 0.91162884 0.3008706 
0.79915154 0.10807345 -0.591335 
0.6094102 -0.033427197 -0.79215014 
0.89224815 0.26791522 0.3634761 
0.8205878 0.41731203 -0.390495 
0.39753848 0.7107297 0.58036757 
0.14906678 0.19337837 0.969734 
0.33197206 0.49622515 0.80221903 
-0.44389734 0.79166526 0.41978735 
-0.5558163 0.67540187 -0.48466557 
-0.9260283 0.28044373 -0.25263208 
-0.81558377 0.5596196 0.14713654 
-0.09801994 0.41405058 -0.9049609 
-0.63412786 0.38438675 -0.6709163 
-0.60935295 -0.20953377 -0.7647122 
-0.517409 0.31175137 -0.79693097 
-0.09856731 0.5604505 -0.8223015 
-0.8968854 -0.06293826 -0.43776184 
-0.8367465 -0.003374385 -0.5475801 
0.2675442 0.24496323 -0.93188685 
0.29265267 -0.5108419 -0.8083286 
-0.7798215 -0.035366468 -0.62500215 
0.003099087 -0.49293754 -0.8700593 
-0.34671137 -0.5628534 -0.7503248 
0.051176544 -0.7155827 -0.6966508 
-0.36979762 -0.8029005 -0.46754733 
-0.66275126 -0.42910036 -0.613705 
-0.2084452 -0.8225784 -0.5290705 
-0.7289201 -0.64732593 0.22281098 
-0.9085687 -0.41729257 0.019235132 
-0.5489434 -0.7489434 0.37114015 
-0.93391323 -0.26181176 -0.24343513 
-0.16896407 -0.7667237 -0.6193432 
0.31360495 -0.6922556 -0.6499494 
-0.039304424 -0.9964807 0.074036986 
0.45064253 -0.75823396 -0.47117162 
-0.049295973 -0.97197694 0.22984938 
-0.13946426 -0.9766403 0.16347344 
0.0216699 -0.5719642 0.8199923 
-0.0005989477 -0.4219227 0.90663165 
-0.15362008 -0.8191961 0.5525565 
-0.35025722 -0.9244303 0.15082683 
-0.23552555 -0.94238895 0.23755217 
-0.51447487 -0.074663825 -0.85424876 
-0.3388461 -0.1841878 -0.9226365 
-0.451613 -0.34653065 -0.8221692 
-0.22541335 -0.18888023 -0.9557788 
-0.06371638 0.31414878 -0.9472333 
-0.49668714 0.30308986 -0.8132886 
-0.8981246 0.20637134 -0.38830832 
-0.23189595 0.24603894 -0.9411106 
0.06573542 0.22129461 -0.97298896 
0.5025305 0.064775884 -0.86212945 
0.20767424 -0.28513813 -0.93571776 
0.11898354 -0.12304533 -0.98524255 
0.41042024 -0.17554651 -0.89484 
0.09275527 -0.15433238 -0.98365545 
0.6732122 0.24913208 -0.69621736 
0.2542561 0.72799236 -0.6366953 
-0.44050306 0.61140996 -0.65736973 
-0.56656915 0.17897104 -0.8043438 
0.30437055 0.845569 -0.43860215 
-0.69861275 0.6836495 -0.21110123 
0.15217292 0.9660773 -0.20865765 
0.04753564 0.42231056 -0.905204 
-0.78818417 0.37155932 -0.49062148 
-0.26416957 0.33998734 -0.90256476 
-0.11065828 0.4170039 -0.90214324 
0.15947045 -0.40371072 -0.90088123 
0.4132981 -0.2595984 -0.87280774 
0.4905597 -0.4198537 -0.7635929 
-0.44126505 -0.43834993 -0.783029 
0.17927824 0.12763442 -0.97548395 
0.0937336 -0.02133898 -0.99536866 
0.19783735 -0.018883418 -0.980053 
0.008714265 0.15750857 -0.98747915 
0.46021906 0.5891941 -0.66411513 
0.2966473 0.028898496 -0.95454985 
0.28004214 -0.51386863 -0.8108733 
-0.09622262 -0.09950541 -0.9903736 
-0.38541648 -0.11989976 -0.9149198 
-0.3176378 0.20075674 -0.9267162 
-0.47746077 0.70510185 -0.52427346 
0.31228837 0.59889543 -0.7374282 
0.7288297 0.67648906 -0.105687566 
0.7689255 -0.25665548 0.58556104 
0.65804714 0.11604733 0.7439806 
0.21576539 0.68524146 0.69562167 
-0.2741677 0.0090290075 0.9616395 
-0.39765915 0.12651038 0.9087697 
-0.76811343 0.6295275 0.11703405 
-0.93207437 -0.2614621 -0.25074896 
-0.58965826 -0.3845 -0.7102556 
0.21561116 -0.3090992 -0.9262665 
0.05349996 -0.6663546 -0.7437132 
0.39795253 -0.20606957 -0.8939627 
0.61121047 0.20207955 -0.7652358 
0.7067111 0.58347934 -0.40013927 
0.91561234 -0.39019376 0.09696917 
0.28577426 -0.94873077 0.1350668 
0.9734964 0.20883535 0.09323467 
0.8474818 -0.42908147 0.31251207 
0.78889465 -0.61180013 0.057844095 
0.99848545 -0.03157046 0.0450584 
0.6821132 0.123868525 0.72067904 
-0.17868423 0.44791028 0.8760413 
-0.32573742 -0.1276104 0.93680876 
-0.9607643 -0.21808013 0.17138572 
-0.5508708 -0.37358448 0.7463083 
-0.9231989 -0.30672997 0.23156136 
-0.3072791 -0.68733925 -0.6581371 
0.80117226 -0.5984053 -0.0058399835 
0.8537008 -0.4561942 0.25116104 
0.20975514 -0.78474504 0.5832479 
0.5236159 -0.7718661 0.3606233 
-0.42762834 -0.83327144 0.3504179 
-0.12055021 -0.99044526 0.06697602 
-0.38864252 -0.8130788 -0.4334279 
-0.29745173 -0.87940586 -0.3717096 
0.4045942 -0.77197605 -0.49026167 
-0.22215328 -0.94133204 -0.254051 
-0.3263982 -0.94431156 0.04171207 
0.052401476 -0.98948294 -0.13482425 
0.2215403 -0.8793784 0.4214423 
-0.058026962 -0.8583141 0.5098332 
0.6264022 -0.7708013 0.116128504 
0.037723105 -0.7183933 -0.6946136 
0.62092596 -0.26117796 -0.7390785 
0.9096742 -0.2669801 -0.3181422 
0.9138921 -0.22714588 -0.33646104 
0.89576155 -0.2894943 -0.33734912 
0.6955255 0.63615173 0.33399883 
0.7672368 0.60148853 0.22261928 
0.7706756 0.48615545 0.41196135 
0.7258767 -0.25427198 0.6391 
0.4863852 0.44169623 0.75387925 
-0.4301229 -0.34592947 0.8338627 
0.019292615 -0.3328789 0.94277227 
0.1414051 -0.52399856 0.8398989 
-0.5844281 -0.27635762 0.76293546 
-0.5865264 -0.46140015 0.6656551 
-0.86077416 -0.23435116 0.45182693 
-0.8773517 -0.44963834 0.16756925 
-0.83936065 -0.3346247 -0.42836916 
-0.11296034 -0.6376421 -0.7620056 
0.47876227 -0.33932373 -0.80971986 
0.78952426 -0.0071962513 -0.6136772 
0.3676909 -0.6410184 -0.6737202 
0.28110775 -0.45060593 -0.8473092 
0.05251183 -0.8043566 -0.59182173 
-0.055490635 0.022144 -0.99821365 
0.70488125 0.6142224 -0.35478634 
0.55715513 0.8152973 0.15769768 
0.12990141 0.90321183 0.40906492 
0.46988556 0.72559845 0.5027073 
0.41605747 0.7476099 0.5176638 
0.7611614 0.59209687 -0.2646785 
0.7096043 0.6991013 -0.08785811 
0.5306592 0.57267535 0.624855 
0.75678 0.55831337 0.33995625 
0.9416309 0.1578248 0.29735938 
0.81382185 -0.343669 0.46859962 
0.023542052 0.48976457 0.8715369 
-0.836212 0.5026046 -0.21940424 
-0.8634678 0.43875676 -0.24882917 
-0.63555527 0.7166046 -0.2873107 
-0.6012008 0.21483657 -0.7696772 
-0.1664378 0.2096181 -0.9635138 
-0.37088546 0.19243911 -0.9085214 
-0.12222647 0.68120825 -0.7218144 
-0.27171674 -0.097923614 -0.9573824 
0.28222224 -0.780452 -0.55789375 
0.24471793 -0.034051504 -0.9689963 
0.8814841 -0.2129214 -0.4214859 
0.9463633 -0.3109184 -0.08789934 
0.8522247 0.19057006 0.48723325 
0.84882426 -0.06538269 0.52461654 
0.4337583 -0.44538656 0.78325266 
0.50176185 -0.12309198 0.856203 
0.8464239 -0.51999956 0.114747636 
0.8367631 -0.36739466 0.4060156 
0.66288567 -0.15304817 0.7329113 
-0.431329 0.11546533 0.8947754 
-0.30584222 0.56165856 0.76876545 
-0.88487643 0.28921077 0.36517242 
-0.98913574 0.06788481 0.13039252 
-0.8939899 -0.025576757 0.44735664 
-0.5850901 -0.4514866 0.6736687 
-0.67808944 -0.2990504 -0.6713893 
0.2081911 -0.8390017 -0.5027253 
0.16458797 -0.49790058 -0.85147285 
-0.24273317 -0.7674053 -0.5934389 
0.8919456 -0.25887603 -0.37069702 
0.9987385 -0.050212987 -2.5748139e-05 
0.94882035 0.11238145 0.29514474 
0.9274904 0.009795092 0.37371874 
0.9786605 0.20124346 0.041529465 
0.7789391 -0.38896495 0.49189454 
0.8136407 -0.03765138 0.5801476 
-0.061155178 -0.0037383302 0.99812126 
-0.10225852 0.26491657 0.9588339 
-0.7376566 -0.18414223 0.64958024 
-0.37809172 -0.77294165 0.50951743 
-0.67679936 -0.505462 0.535211 
0.605457 -0.10021856 0.7895429 
0.12863785 -0.75330466 0.6449687 
-0.5686772 -0.28182098 0.77277637 
-0.5250857 -0.17917374 0.8319747 
-0.25737074 -0.19961874 0.9454696 
-0.58045936 -0.39066157 0.7144583 
-0.23007041 -0.9447816 0.23335703 
-0.35145015 -0.7548395 0.55380523 
-0.95458096 0.26204467 0.14180198 
-0.93483174 -0.29571512 -0.19657609 
-0.6165841 -0.5250432 -0.5866462 
-0.3648159 0.59493953 -0.7162097 
0.07483598 0.3154438 -0.94598883 
0.54049224 0.23786819 -0.8070236 
0.5211888 0.31578672 -0.7928688 
0.9606043 -0.08522735 0.26452944 
0.4669259 0.345014 -0.8142148 
0.62049145 0.48925537 -0.6128781 
0.7090317 0.5348238 -0.45960602 
0.0380977 0.6868405 -0.72580904 
0.55849075 0.54929197 -0.6215838 
0.4623043 0.5573566 -0.6896582 
0.618575 0.71390265 -0.32818896 
0.046415642 0.0948529 0.99440867 
0.5099624 0.055778574 0.8583864 
-0.09089728 -0.06086308 0.99399877 
0.029888347 0.0047321804 0.9995421 
-0.07652113 0.5281947 0.8456683 
-0.88511634 -0.34849977 0.30841047 
-0.080720045 -0.951179 -0.2978974 
-0.35219604 -0.2085663 -0.9123914 
-0.86563194 -0.29287785 -0.4060837 
-0.83668447 0.22053796 -0.5013204 
-0.5992882 0.0033628345 -0.8005264 
0.4104046 0.26036382 -0.87394446 
0.5600238 0.25369197 -0.7886785 
0.99301517 -0.068505816 0.096061714 
0.9332077 -0.32695934 0.149067 
0.79599816 -0.569348 -0.20549892 
0.79494095 -0.15660188 -0.58612686 
0.91418916 -0.38107944 -0.13797335 
0.8845091 -0.41448635 0.21411413 
0.9652578 -0.056071103 0.2552124 
0.895904 -0.27031907 -0.35253876 
0.9462213 -0.28903452 -0.14534257 
0.569476 -0.032684263 0.8213579 
0.7440189 -0.19042538 0.6404484 
0.76651657 -0.29809362 0.56885207 
0.589296 0.3211926 0.7413269 
0.20237699 0.24505451 0.9481519 
0.05339197 0.50800085 0.85970026 
-0.17227116 0.24804287 0.9533087 
-0.6241314 0.3827015 0.6811752 
0.8699726 0.14217465 0.472159 
0.7268594 -0.24401763 0.6419742 
0.9258075 -0.351505 0.1390137 
0.50602794 0.85363567 0.12345823 
-0.19263963 0.7290131 0.65683323 
-0.118703924 0.47277364 0.873152 
0.6835819 0.60784394 0.40403163 
-0.09456247 0.62914586 0.7715138 
-0.74980265 0.56967163 0.3365564 
-0.85060406 0.52577597 -0.00569245 
-0.80752414 0.20327148 -0.5537017 
-0.6431458 -0.06498584 -0.7629812 
-0.5930509 0.2515906 -0.76484823 
-0.048401095 0.18193063 -0.98211944 
-0.07696473 0.6273153 -0.774953 
0.38906908 0.46086273 -0.7976408 
0.3883767 0.55404896 -0.73633784 
-0.27934602 0.7231435 -0.6316877 
-0.2527753 0.9620877 0.10243014 
-0.5918261 0.5919457 -0.5471218 
-0.7784459 0.022728791 -0.6273002 
0.55798244 -0.2552554 -0.7896204 
-0.08754679 -0.4326298 -0.8973111 
0.050702 -0.5324685 -0.84493 
0.036147106 -0.9097166 -0.4136533 
-0.97752273 -0.048366137 -0.2052075 
-0.7258752 -0.5289805 -0.43964174 
-0.56566775 -0.45046702 -0.6907239 
-0.22748764 -0.7663046 -0.60085493 
-0.83486897 -0.5401322 -0.1060707 
-0.69340414 -0.34416026 -0.63304377 
0.06583081 -0.82536685 -0.56074584 
0.1618457 -0.9749307 0.15269662 
0.47797996 -0.7549474 -0.44898733 
0.21042402 -0.8464389 -0.48914537 
-0.19052984 -0.86615896 -0.46202502 
-0.06487476 -0.90780675 0.41434062 
0.28535607 -0.95239353 0.10732515 
-0.52118886 -0.8362598 0.17038752 
-0.77623844 -0.61236453 0.1498786 
-0.57849485 -0.7330706 -0.35770267 
-0.060994774 -0.71125144 -0.70028645 
-0.5140679 -0.35521016 -0.78074336 
-0.1930563 -0.21599974 -0.9571172 
0.024087187 0.11922168 -0.9925755 
0.4263489 0.3217363 -0.84540665 
-0.12270354 0.21861404 -0.96806604 
-0.9796915 0.10624797 -0.17004687 
-0.6397051 0.589168 -0.49361777 
-0.3733343 0.07028848 -0.92503035 
-0.35603058 0.39771542 -0.84561497 
-0.42113444 0.21488096 -0.8811765 
-0.6504134 0.43384463 -0.6234912 
-0.61673063 -0.2627685 -0.7420216 
-0.31947422 0.3593221 -0.8768261 
0.2571465 0.17519349 -0.9503594 
0.5562794 0.22456382 -0.80007774 
0.34496972 0.57003665 -0.7456904 
-0.010480323 0.62505716 -0.7805087 
-0.45633754 0.885917 -0.08310869 
0.49559525 0.5308375 -0.6874569 
0.032458365 0.999231 -0.021997249 
-0.02220196 0.89392036 -0.4476757 
-0.45319638 0.3952451 -0.79899585 
-0.521489 0.80992997 -0.26844487 
-0.31957743 0.8721006 -0.37055475 
-0.6612963 0.7449693 -0.08779596 
0.08782487 0.38891175 -0.91707927 
0.27015182 0.44583708 -0.85337406 
0.16750218 0.065995455 -0.9836604 
-0.3946471 -0.47992545 -0.7835339 
0.2859195 0.42671114 -0.8580021 
0.51924115 0.20169096 -0.8304875 
-0.47417024 0.6695297 -0.5717452 
0.020845138 0.92040324 -0.39041457 
-0.44871035 0.76335204 -0.4647073 
0.5591995 0.5692287 -0.6027227 
-0.6061798 0.08889139 -0.79034454 
-0.4784522 0.17702274 -0.86008525 
0.0019612133 0.24347673 -0.9699048 
0.1301659 0.96653545 -0.22105697 
-0.27968365 0.94544065 -0.16709054 
0.33497253 0.3760225 -0.86394477 
0.65812296 0.7482148 0.08395756 
0.91645426 -0.1274079 0.37931362 
0.87957966 0.024912052 0.4750989 
0.62117577 0.110952586 0.7757773 
-0.080659986 -0.3021829 0.9498313 
-0.36807033 -0.6671956 0.6475912 
-0.8500897 -0.52262837 0.06486354 
-0.88200057 -0.27033117 0.3860004 
-0.95409214 0.20654446 -0.21690455 
-0.44995 -0.0094164265 -0.8930042 
-0.18616396 0.13676186 -0.97295386 
0.45410106 -0.40534908 -0.7934006 
0.8124504 -0.39440092 0.4293859 
0.5049142 -0.8630791 -0.012495662 
0.8778639 -0.4664864 -0.10837605 
0.51056594 -0.1780697 -0.84119785 
0.8602822 -0.38620338 0.3328085 
0.9357445 0.24724019 0.25150472 
0.9232247 -0.31271464 0.2233064 
0.0043306584 -0.8331687 0.55300194 
0.23592135 0.22980906 0.9442081 
0.37656707 -0.119657084 0.9186292 
0.6178776 -0.46213734 0.63612616 
-0.7348273 0.28571287 0.6151399 
-0.9587064 -0.15234748 0.24015072 
-0.85267884 -0.5207975 0.041337363 
-0.58064926 0.25615048 -0.7728088 
-0.05708757 -0.9915303 -0.11665636 
-0.10582518 -0.99149114 -0.07580473 
0.20100993 -0.931361 0.30358154 
-0.1753542 -0.98386157 -0.035601117 
-0.73797596 -0.65894574 0.14554052 
-0.61123866 -0.54252666 -0.5762397 
-0.7459141 -0.25233456 -0.6163923 
0.40605164 -0.89902186 -0.16395716 
0.027701294 -0.20660335 -0.97803265 
-0.010615858 -0.98641765 -0.16391331 
0.28079918 -0.94405 0.17297833 
-0.13467802 -0.9886279 0.066909015 
-0.28667864 -0.94858694 -0.13415727 
-0.3114719 -0.9124728 -0.26528996 
-0.00904578 -0.98025066 -0.19755204 
0.38209248 -0.33087116 -0.8628613 
0.34069154 -0.41025418 -0.8459437 
0.6048721 -0.7754462 -0.18114364 
0.8718933 -0.44161293 0.21161346 
0.3521814 0.37496677 0.8575362 
0.6431008 0.6494682 0.4057246 
0.20311044 0.51798344 0.83092684 
0.4517853 0.8849051 0.113282554 
0.8412802 -0.2225832 0.49265048 
0.4838857 -0.10309592 0.86903733 
-0.38730296 -0.10728152 0.91568947 
-0.23362836 0.12911057 0.9637159 
-0.22402875 -0.59325445 0.7732142 
-0.8502417 -0.31866667 0.41897574 
-0.5951474 -0.5850234 0.55095124 
-0.88564265 -0.32487848 0.33179986 
-0.9886936 -0.14984186 -0.0056999577 
-0.7865923 0.13854396 -0.6017294 
-0.120052464 -0.36395904 -0.9236456 
0.66638434 -0.50571865 -0.5478874 
0.9176891 -0.37191558 0.13973439 
0.51084876 0.13072732 -0.84967285 
0.4598596 -0.5929749 -0.6609916 
0.5953972 -0.05696956 -0.80140924 
0.7713262 -0.44159234 -0.45831442 
0.987069 0.1583121 -0.025142798 
0.9820866 0.04959495 -0.1817866 
0.6113863 0.71953243 0.3293629 
0.017697694 0.32394275 0.9459111 
0.86188066 0.24523035 0.4438737 
0.61755157 0.5948453 0.5145768 
0.8001903 0.5198051 0.29916227 
0.6763255 0.50828165 0.5331358 
0.63794243 0.15024212 0.75528586 
0.9439406 0.22935987 0.23742424 
0.7849261 -0.13244647 0.60526776 
0.034399725 0.49706158 0.8670332 
-0.4088801 0.45034772 0.793728 
-0.91076225 -0.042986073 -0.41068783 
-0.9945673 0.104076855 0.0020280662 
-0.3100224 0.20644137 -0.9280453 
-0.63391495 0.19122931 -0.74938864 
-0.26594666 0.8171156 -0.51146317 
-0.22614288 0.47494972 -0.85046005 
0.27002987 -0.3887026 -0.8809053 
0.36400858 0.013773266 -0.9312938 
-0.13022174 0.8210614 -0.5557884 
0.24137881 0.41572043 -0.8768768 
0.67632395 0.13847882 -0.72347057 
0.8791176 0.4599354 0.124946795 
-0.016957276 -0.036694545 0.99918264 
0.05126019 -0.32001778 0.9460238 
-0.070661165 -0.49954024 0.86340404 
0.46971154 -0.3032361 0.8291073 
0.607354 -0.09946436 0.78818023 
-0.4133746 -0.4842924 0.77109164 
-0.81357366 -0.23036864 0.5338805 
-0.49631292 0.3320954 0.8021135 
-0.57385826 0.15091512 0.8049294 
-0.7773557 -0.29896224 0.5534798 
-0.893626 -0.06656553 0.44384867 
-0.6595372 -0.68151563 0.31709194 
-0.77536744 -0.29012913 -0.56091946 
-0.289808 -0.87102747 -0.39663908 
-0.00019622565 -0.7946349 -0.6070876 
0.2958451 -0.4873621 -0.82155585 
0.616553 -0.71207684 -0.33587047 
0.566442 -0.82326776 0.037062313 
0.91431123 0.014949368 -0.4047364 
0.9999852 0.0018508321 0.0051203975 
0.9039318 0.09942371 -0.41595936 
0.9604224 -0.22052473 0.17016962 
0.424963 0.37344578 0.8245876 
0.26213312 -0.42607415 0.8658794 
0.63227475 0.21018428 0.7456885 
-0.7601254 -0.25698113 0.59679985 
0.05785718 -0.705808 0.7060367 
-0.095479 -0.9483218 0.30260465 
0.35208395 -0.25265184 0.90122366 
0.39779076 -0.7695226 0.4995974 
-0.6609146 -0.71421653 0.23040536 
-0.7362134 -0.40682247 0.5408191 
0.23304816 -0.64021355 -0.73199403 
-0.18099757 -0.94645476 -0.26732656 
-0.77943355 -0.29934335 -0.5503427 
-0.85679543 -0.50704896 0.09382385 
-0.6422722 -0.5731522 -0.5089038 
-0.41065338 0.33664137 -0.84737027 
-0.22869939 -0.105265215 -0.96778923 
0.64389044 0.3968457 -0.65415496 
0.48545375 0.3026349 -0.8202114 
0.20558639 0.63054955 -0.7484261 
0.6423216 0.3679754 -0.67232215 
0.75561166 0.12543508 -0.6428974 
0.62356365 0.20957127 -0.7531589 
0.50339675 0.2154878 -0.8367537 
0.6403777 0.3726483 -0.6716023 
-0.11043778 0.48190388 -0.8692365 
0.5703938 0.594886 -0.5663582 
-0.026775334 0.43151927 -0.9017064 
-0.0063606645 0.9807864 -0.1949812 
0.2172761 0.15035774 0.9644603 
0.63248456 0.10021828 0.76806223 
-0.21387337 0.12431608 0.96891886 
-0.13598719 0.1084345 0.9847586 
-0.25472924 -0.51839983 0.8163178 
-0.85786664 -0.5117165 0.047022354 
-0.24146864 -0.60238975 -0.76080185 
-0.7621478 0.3166968 -0.56465393 
-0.94012344 0.2071655 -0.2706482 
-0.4883186 0.5071606 -0.7101641 
-0.11809253 0.12223344 -0.9854508 
0.360519 0.05155191 -0.93132627 
0.36410105 0.7480502 -0.55484354 
0.8822017 0.24646032 -0.40122017 
0.59423834 -0.23417301 -0.7694438 
0.34978575 -0.80453104 -0.47997886 
0.9364322 -0.32336453 0.13612528 
0.90844065 -0.32620016 -0.2613983 
0.18691418 -0.9218932 0.33937594 
0.9482613 -0.31651413 -0.024885707 
0.3523753 0.22943346 -0.9072992 
0.8255447 -0.56429017 -0.0072533293 
0.7009852 0.20083036 0.684315 
0.93357146 0.3315925 -0.13598092 
0.9301648 0.18100613 0.31942192 
0.56711847 0.5779606 0.58680344 
0.5809817 0.22091874 0.78336143 
-0.13920206 0.5532943 0.82127225 
-0.56709653 -0.062750265 0.8212576 
-0.8887805 -0.32368836 0.32449216 
-0.47899827 -0.8003628 0.36052758 
0.1685964 -0.8125382 0.5579937 
0.803925 -0.5884601 -0.08613607 
0.9885475 0.14691785 0.034480963 
0.8877665 -0.2824061 0.36347994 
0.17176227 0.083370246 0.9816044 
0.6121264 -0.43623617 0.6595449 
-0.13911241 0.6662887 0.73260295 
-0.37751865 0.07855788 0.9226637 
-0.811835 -0.49462834 -0.310269 
-0.89703345 0.184043 -0.40181994 
-0.73610586 -0.096880324 -0.6698974 
-0.49105912 0.07749689 -0.86767226 
0.22821388 0.6031335 -0.76429605 
0.052295547 0.93391377 -0.35365278 
0.4637774 0.639049 -0.61361796 
0.40975636 0.79374623 -0.44951817 
0.11889005 0.91611195 -0.3828891 
-0.25258148 0.66696703 0.70096904 
-0.668465 0.19746032 -0.7170523 
-0.8544499 0.4887475 -0.17618488 
-0.36269593 0.19117214 -0.9120883 
-0.6013404 0.29549202 -0.7423437 
-0.49673623 0.12192054 -0.8592954 
-0.18059267 -0.0014310329 -0.9835569 
-0.47894916 0.1715981 -0.8609076 
-0.41270998 0.02990596 -0.9103715 
-0.555557 -0.1062386 -0.8246635 
-0.9245018 -0.33630803 -0.1794254 
-0.7638146 -0.33349958 -0.5525986 
-0.5569703 0.032946777 -0.8298787 
0.17816582 -0.6508027 -0.7380467 
0.59232295 -0.40152675 -0.6985198 
0.46514848 -0.52649385 -0.7116468 
0.4102943 -0.39490572 -0.82201475 
-0.008160689 -0.61697 -0.78694445 
-0.05577936 -0.9810167 -0.18572845 
0.21944422 -0.9354964 0.2769312 
0.011284202 -0.99975836 -0.01887057 
-0.65699774 -0.5686837 -0.4949272 
-0.4963778 -0.49489102 -0.7132265 
-0.23790427 -0.90529656 -0.35190883 
-0.1417154 -0.36576235 -0.9198558 
0.1593851 0.5241803 -0.8365593 
0.52440965 0.8217281 -0.22306389 
0.7849767 0.13758533 -0.6040545 
0.83097833 0.55436385 -0.04642977 
-0.17577943 0.94029665 -0.29145113 
-0.10133455 0.9832855 -0.15126525 
-0.34634882 0.76924235 -0.53694403 
-0.47531235 0.87894845 -0.03908697 
-0.74034226 0.4670811 0.4834548 
-0.9523642 0.071154855 0.29654592 
-0.74535924 -0.5877951 -0.31454182 
-0.7059903 -0.11986747 -0.69800395 
-0.036414035 0.5697554 -0.82100725 
-0.019239977 0.6675196 -0.74434364 
-0.104902 0.7890209 -0.60534424 
0.5230636 0.44588596 -0.72635406 
0.327495 0.63376147 -0.70078063 
0.4468737 0.38437036 -0.807814 
0.23326065 0.9055193 -0.35443512 
-0.39381272 0.7364056 -0.5501076 
-0.9188708 0.39230946 -0.04207044 
-0.62697524 0.74966055 -0.21192257 
-0.55546135 0.731689 -0.3950873 
-0.84829444 0.41362935 -0.3306166 
-0.5715961 0.27287424 -0.7738331 
-0.56926334 0.10251941 -0.81573844 
-0.6124146 0.2978055 -0.73229796 
-0.076198876 0.018268362 -0.9969253 
-0.012224086 0.25249788 -0.96752024 
-0.108187966 0.64231116 -0.7587699 
-0.40968624 0.18202156 -0.8938823 
0.15608741 0.9796288 -0.12634934 
-0.21310335 0.6925273 -0.6891973 
-0.04567851 0.9362292 -0.34840816 
-0.61573166 0.6286165 -0.4750956 
-0.5350387 0.7400997 -0.40741396 
0.12851675 0.46544918 -0.87569433 
0.7703629 0.6376021 0.0021808886 
0.56313074 0.468912 -0.68044496 
0.78306013 0.19643497 -0.5901104 
0.9573058 -0.19998528 -0.20873816 
0.88756216 0.44036868 -0.1353101 
0.38996074 0.89645576 0.21047056 
0.4373056 0.63095504 0.64082724 