# OOMMF: rectangular mesh v1.0
# Segment count: 1
# Begin: Segment
# Begin: Header
# Desc: Time (s) :  4.300000000000004e-07
# Title: m
# meshtype: rectangular
# meshunit: m
# xbase: 2e-09
# ybase: 2e-09
# zbase: 5e-10
# xstepsize: 4e-09
# ystepsize: 4e-09
# zstepsize: 1e-09
# xmin: 0
# ymin: 0
# zmin: 0
# xmax: 1.024e-06
# ymax: 1.024e-06
# zmax: 1e-09
# xnodes: 256
# ynodes: 256
# znodes: 1
# ValueRangeMinMag: 1e-08
# ValueRangeMaxMag: 1
# valueunit: 
# valuemultiplier: 1
# End: Header
# Begin: Data Text
0.09607092 -0.9945673 -0.040079862 
0.7036156 -0.67213225 -0.23057203 
0.68344444 -0.70890534 0.17423277 
0.6064016 0.17495897 0.7756717 
0.23803592 0.5796041 0.77935743 
-0.5735286 0.52909577 0.6253981 
-0.117630854 0.3073737 0.9442905 
-0.36596313 0.88090116 -0.30014017 
-0.38738355 -0.36680937 -0.8458043 
-0.35268676 -0.75987875 -0.5460738 
0.49274474 -0.7924899 0.3593919 
0.4641839 -0.3260468 0.8235454 
-0.043700274 0.56179845 0.8261192 
0.15435465 -0.010704976 0.98795754 
0.30558813 0.036568422 0.95146143 
-0.39434344 -0.061863713 0.9168786 
-0.12406852 -0.388441 0.91308314 
-0.4599515 -0.6899425 0.5589491 
-0.8392635 -0.3137025 0.44410306 
-0.9506305 0.011292208 0.3101197 
-0.7845715 -0.32723728 0.526653 
-0.9523913 0.30183783 0.042952303 
0.43598148 -0.65942615 -0.61243564 
-0.13216634 0.054966994 -0.9897024 
0.32759583 0.374375 -0.8674816 
0.13908723 -0.15872437 -0.9774771 
-0.026286777 -0.84121233 -0.5400655 
0.7798744 -0.605555 -0.15842716 
0.71557766 -0.67812526 -0.16761547 
0.70824397 -0.48324785 0.5146475 
0.5576077 -0.8276057 -0.06436272 
0.64494413 -0.74611104 -0.16542514 
0.62923914 -0.5182429 0.57920843 
0.282374 -0.16191177 0.9455419 
-0.65225023 -0.28400385 0.70278835 
-0.6480012 0.52272403 0.5539442 
-0.31186402 0.3648039 0.8773021 
0.05694584 0.35065126 0.93477315 
-0.56818336 0.18128233 0.8026858 
-0.2974493 -0.12216853 0.94688904 
-0.47606844 0.8204947 0.31646058 
-0.3968047 0.5610451 -0.72648084 
-0.5971116 0.59893405 -0.53360635 
-0.35890815 -0.47419158 -0.8039448 
-0.73705953 -0.44534403 -0.50834244 
-0.97464675 -0.22106571 0.034550834 
-0.9716037 0.17372409 -0.16064346 
-0.89713186 -0.2600135 -0.35713783 
-0.7054045 -0.69889647 0.11810292 
-0.37280476 -0.8627253 -0.34164578 
-0.34384367 -0.89129674 0.29557008 
-0.08127919 -0.16163932 -0.9834971 
0.91288507 -0.31772247 -0.25630686 
0.8373683 -0.0597965 -0.5433589 
0.43920147 0.13296588 -0.8884944 
-0.002044163 0.17899923 -0.9838471 
0.4307624 0.5932068 -0.68010986 
0.37009957 0.8915284 -0.26115793 
0.5980923 0.52664 -0.60409933 
0.53351843 0.35174617 -0.76917666 
0.7207488 0.6542741 -0.22901244 
0.58792984 0.69269425 -0.41774786 
0.98241305 -0.016563317 0.18598446 
0.9441533 0.26472497 0.19620237 
0.99416876 -0.07373984 0.078683205 
0.3244997 0.15972205 0.93230295 
-0.51167583 0.49890894 0.699484 
-0.7310461 0.48350653 -0.48144895 
-0.55066 -0.28548962 -0.78439105 
-0.6346488 -0.39130732 -0.6664079 
-0.5816164 -0.12717836 -0.8034601 
-0.07726972 -0.44400176 -0.892688 
0.77812237 -0.62336344 -0.077095315 
0.14848746 -0.98873895 0.018621877 
0.78159636 -0.4314292 0.45052862 
0.10835287 0.10935213 0.98807985 
-0.26273432 -0.21201426 0.94128674 
0.06965224 -0.57735115 0.8135198 
-0.13893266 -0.5426027 0.8284202 
-0.35641134 -0.34811348 0.8670571 
-0.34051314 -0.6569069 0.6726992 
0.14072147 -0.47914943 0.8663795 
-0.12720245 0.12780893 0.98360795 
-0.80553234 0.5800136 0.121251605 
-0.06500882 -0.2414478 0.96823394 
-0.61508346 -0.738462 0.27630842 
-0.28264394 -0.95363474 -0.10340769 
0.13043422 -0.63314384 0.76296514 
0.7497745 -0.20995219 -0.62750167 
0.9590313 -0.2830994 0.010666298 
0.8308803 -0.41711083 0.36831582 
0.9743442 -0.13818169 0.17764947 
0.54594076 -0.8213054 0.16554801 
0.39357227 -0.32327014 0.8605796 
0.69590026 -0.0269002 0.7176345 
0.914495 -0.38692585 0.11826824 
0.019629989 -0.4656166 0.8847689 
0.008335129 0.47574475 0.8795439 
0.37080696 0.36536252 0.85382235 
0.3748064 -0.6010285 0.705893 
-0.2936818 -0.35847116 0.886143 
-0.57082045 -0.20202173 0.7958337 
-0.93761086 0.34563282 0.037736118 
-0.6651205 0.57099813 0.48122337 
-0.9466674 -0.04285939 0.3193493 
-0.87656605 -0.4312031 0.21376581 
-0.19648066 -0.88641274 -0.4191277 
0.5924285 -0.750342 -0.29328385 
0.3021225 -0.90777916 -0.2909621 
0.41116047 -0.8651733 -0.28709307 
0.25841 -0.86495095 0.43021402 
0.039047707 -0.8594142 -0.5097867 
0.9253935 -0.22556539 -0.30457687 
0.7862542 -0.3213763 0.52775145 
0.30313638 -0.49555132 0.813964 
-0.16479348 -0.598365 0.7840935 
-0.5682706 -0.6253026 0.5348507 
-0.26518366 -0.84275514 0.46844563 
0.051927283 0.60028446 0.7980991 
-0.6961106 0.44852445 0.56058526 
-0.31936002 0.90938294 0.26651818 
0.36746815 0.85804784 0.35877728 
0.42480174 0.6359995 0.6442424 
0.42054036 0.4168505 0.80584204 
0.3639821 0.6083714 0.7052669 
0.8537111 0.35344344 0.38243303 
0.3543847 0.12660633 0.92648923 
-0.20104334 0.18963677 0.9610513 
-0.7775686 0.43296516 -0.45599157 
-0.00974142 0.97628534 0.21626863 
-0.88458866 0.10778714 0.45374548 
-0.53738517 0.049930457 -0.84185755 
0.6777141 -0.5106875 0.52905756 
0.97442925 -0.15959115 0.15817174 
0.3385685 0.49649522 -0.79928964 
0.9248551 -0.33712173 0.17604575 
0.33631307 -0.8803944 0.33436415 
0.033974584 -0.8714453 -0.4893146 
0.26440853 -0.9540527 -0.14096731 
0.02231131 -0.99943274 -0.025229441 
0.08903291 -0.91260344 -0.3990341 
0.19221032 -0.98086315 0.031029658 
0.33971873 -0.8671131 0.36428845 
0.3338148 -0.12597139 0.9341836 
-0.99006814 -0.06960163 -0.12215076 
-0.48851258 -0.8161024 -0.30875957 
-0.6233834 -0.5202164 -0.5837534 
0.33387086 -0.82517534 -0.45564896 
0.03394674 -0.8502692 -0.52525234 
0.49642423 -0.7678682 -0.40489697 
0.86574394 -0.25278234 -0.43195906 
0.9884687 -0.005992171 0.15130727 
0.4061975 0.48651946 0.77350014 
0.6402389 0.71103007 0.2907412 
0.8823271 0.40307456 -0.24296097 
0.80054265 0.59690976 -0.0532014 
0.6099986 0.5862552 0.5331103 
0.9316801 0.35667065 0.06898129 
0.8231295 0.56479514 0.0588595 
0.69684106 0.52596325 0.4876221 
-0.31622574 0.25008884 0.91512674 
-0.8385388 -0.06823641 0.5405521 
-0.8565896 0.2228457 -0.46539664 
-0.8401659 0.37536186 -0.39143932 
-0.31930676 0.049753055 -0.94634444 
-0.86347014 -0.06636019 -0.50001574 
-0.07250734 -0.5030367 -0.8612183 
0.08902081 -0.93734854 -0.336828 
0.17570907 -0.9554044 -0.23733711 
-0.037561275 -0.98641634 0.15991259 
0.10422396 -0.9381168 0.3302641 
-0.6804984 -0.6328098 0.3694234 
-0.15422538 -0.9872198 0.040145237 
-0.24735141 -0.90681624 -0.3413235 
-0.546855 -0.6931228 -0.46960667 
-0.31918982 -0.08628362 -0.94375473 
0.040784102 -0.41174477 -0.9103862 
0.099008285 -0.057658736 -0.99341476 
0.05902638 0.056337886 -0.9966654 
-0.28837124 -0.35611662 -0.88883245 
0.7059207 0.59672844 -0.38156414 
0.3107411 0.69037306 -0.6533185 
0.6230246 0.4000791 -0.67214376 
0.5974372 0.53456646 -0.5977521 
0.8322329 0.5528583 -0.0416685 
0.80323994 0.16926773 0.571099 
-0.14786965 0.8757248 0.45960927 
0.31830475 0.9438296 -0.08870139 
0.4286417 0.8936365 -0.13296647 
0.5095638 0.8428077 0.17326282 
0.35950577 0.845791 0.39419955 
-0.6599823 0.49270037 0.56715935 
-0.9300244 -0.23194899 -0.2850516 
-0.7689608 0.6158689 -0.17147864 
-0.9871556 -0.04415533 -0.15353873 
-0.94170314 0.1768576 -0.28621086 
0.4056373 0.2445549 -0.8807107 
-0.75471926 0.47830918 -0.44902027 
-0.8878186 0.21081789 -0.409065 
-0.60302216 0.3647311 -0.70946145 
-0.633334 0.747821 0.1991278 
-0.5962025 0.14720863 -0.7892226 
0.06211763 0.23758794 -0.96937793 
0.61716884 -0.62814826 -0.47384867 
0.7081421 -0.654903 -0.26388818 
-0.011032065 -0.9988742 -0.046138037 
0.3961467 -0.8118209 -0.4289693 
0.59021723 -0.7833432 -0.19497992 
-0.43197927 -0.88543016 -0.17148547 
0.29140812 -0.564453 -0.7723174 
-0.74925643 -0.6480899 0.13636166 
-0.042950835 -0.18747053 -0.9813308 
-0.09969583 -0.4134576 -0.905049 
-0.66403204 -0.597936 -0.44892544 
-0.037922367 -0.16787581 -0.9850785 
0.2244516 -0.06585503 -0.97225755 
0.604195 -0.42523733 -0.6738855 
0.5282612 -0.25842297 -0.80880016 
0.87866926 0.24973255 -0.40690807 
0.8612981 0.45782357 -0.22037068 
-0.015747974 0.2755735 0.961151 
0.1502758 0.65556675 0.7400335 
-0.048150957 0.4223196 0.9051673 
-0.5912089 0.331425 0.7352752 
0.2504565 0.84546816 0.47165164 
-0.91773444 0.39370877 -0.052507754 
-0.7008339 0.6781543 -0.22122093 
-0.93137884 0.1437836 -0.33445454 
-0.3135195 0.9353171 -0.16397393 
-0.45684856 0.6291817 0.6288242 
-0.44556975 0.8229192 0.35252172 
-0.6707604 0.106948 0.73392284 
-0.6832408 0.6355639 0.35950044 
-0.48062876 0.7539219 -0.44788143 
-0.54234546 0.67330134 -0.5025203 
0.13230674 0.83714885 -0.5307324 
0.65617394 0.2949487 -0.6945798 
0.8940304 0.36887804 0.25424144 
-0.1790665 0.6623189 0.7275088 
0.2781749 0.86306244 -0.42159465 
0.10386453 0.6105359 0.78514844 
-0.537517 0.24309552 0.80745286 
-0.40487793 0.9113192 -0.074640915 
0.062446423 0.9952634 -0.07450642 
0.14970997 0.43797705 -0.8864329 
-0.15858343 0.5973559 -0.7861408 
-0.15780705 -0.32559073 -0.9322487 
-0.49971163 0.17908831 -0.84747607 
-0.27906358 0.48268503 -0.83014387 
0.045528524 0.7881536 -0.61379236 
0.22552799 0.46158668 -0.8579482 
0.51850414 0.69897574 -0.4925306 
0.73413044 0.30493903 -0.6066834 
0.91968846 -0.30841336 -0.24301118 
0.53495336 -0.26302633 0.80289614 
0.79435533 0.2923125 0.5324969 
-0.06986796 -0.91508645 -0.39715883 
0.5357962 -0.842586 -0.054510996 
0.5037199 -0.85930175 0.088696 
0.5546378 -0.10605098 0.8253062 
0.11248881 0.29675716 0.9483046 
-0.67638403 0.31010458 0.66808665 
-0.8098213 0.38632685 0.44152126 
-0.32798624 0.20782684 0.9215385 
-0.8143514 -0.5409335 -0.21029234 
-0.77862865 -0.21209636 -0.59055275 
0.41471505 -0.6049685 -0.6797239 
0.55630475 -0.7107928 0.43046328 
0.31011972 -0.4213017 0.8522504 
0.45819843 -0.14932942 0.8762163 
0.0026562943 -0.07088647 0.9974809 
0.27812907 -0.43437448 0.8567165 
-0.45480272 -0.55130273 0.69944257 
-0.6923118 -0.17948219 0.69892097 
-0.8183012 -0.19087423 0.5421719 
-0.79730994 -0.58181393 0.16059083 
-0.7739443 -0.43713138 0.4581772 
-0.80823827 -0.57853895 -0.10974324 
-0.29641446 -0.622111 -0.7246492 
-0.6214878 -0.37032083 -0.6903734 
-0.012573113 0.3188662 -0.9477164 
0.08927943 -0.9047933 -0.41638708 
0.8216678 -0.5377999 -0.18876821 
0.9255981 -0.26306975 0.2721446 
0.2704435 -0.9317986 0.24209867 
0.8151708 -0.5787798 -0.022594362 
0.5386798 -0.8243542 0.17396662 
0.9508244 0.24369198 -0.19117358 
0.73035634 0.20737338 -0.6508271 
0.10435288 0.033446513 0.9939778 
-0.74514353 -0.28215262 0.6042773 
-0.55139977 -0.3443128 0.7598731 
0.04542799 -0.038073268 0.99824184 
-0.59674895 0.1466314 0.788917 
-0.6063665 0.661352 0.44151247 
-0.030222962 0.73360354 0.6789053 
-0.7615211 0.563104 0.3209356 
-0.90546817 0.29777053 -0.30242392 
-0.8627068 0.4980561 -0.08761992 
-0.807964 -0.006626271 -0.58919454 
-0.9682794 -0.20254858 -0.14631875 
-0.85124636 -0.39946535 -0.3403045 
-0.97658914 0.1385861 -0.164522 
-0.91149014 -0.39608997 0.11089897 
-0.5724317 -0.42525175 -0.70105845 
-0.42532274 -0.5008112 -0.7538492 
-0.84303534 -0.49962762 -0.19915743 
-0.16770317 0.2849108 -0.9437699 
0.71648645 -0.23460051 -0.65697026 
-0.2104621 -0.15207781 -0.96570086 
-0.30103025 -0.16362847 -0.9394715 
0.26510498 0.038851645 -0.9634365 
0.10816523 -0.0824141 -0.99071103 
-0.78093666 0.29838687 -0.54872876 
-0.123912334 -0.20924845 -0.9699799 
0.3970826 -0.0004644661 -0.9177828 
0.8012285 0.007605692 -0.5983102 
0.9212063 -0.16794914 -0.35095885 
0.85908693 0.18900229 0.47565514 
0.8849828 0.2093906 0.41588598 
0.75876033 -0.20388503 0.6186387 
0.06421184 0.09056766 0.9938181 
-0.2437327 0.75958085 0.6030185 
-0.55730385 0.8243514 0.09928432 
-0.38703626 0.9023872 -0.1894738 
-0.9939054 0.08880114 -0.06531864 
-0.7472709 0.22477393 -0.62535024 
0.21908763 -0.2871992 -0.9324791 
0.84935975 -0.36400813 -0.3822122 
0.6399397 -0.7682943 0.014178035 
0.6413243 -0.76362777 0.074672356 
0.5305847 -0.34635064 0.7736415 
-0.07837932 -0.2240817 0.97141355 
-0.069826074 -0.86778307 0.49201325 
-0.3726485 -0.8927529 0.2532299 
-0.18129703 -0.70932394 0.68116885 
-0.11967041 -0.94783586 0.29544258 
-0.08474033 -0.8575315 0.50740415 
-0.16359082 -0.20851992 0.9642394 
-0.76778555 -0.48400614 0.4198135 
-0.7155638 -0.3909029 0.57893306 
-0.789034 -0.46549475 -0.40092418 
-0.2670033 -0.9200053 0.28687894 
-0.3424011 -0.84400934 0.41280717 
0.74533975 -0.6645078 0.053834032 
0.94499624 -0.09220277 0.31381658 
0.8904931 -0.36607593 -0.2702044 
0.95202845 -0.30456504 -0.029700693 
0.95412856 -0.27901587 0.10857672 
0.28038004 -0.549058 0.78735155 
0.7782167 -0.52868474 -0.33892658 
0.38285184 -0.58516043 0.71485096 
0.3137588 -0.08091515 0.94604874 
0.4705424 -0.11879797 0.8743437 
0.313747 0.33695632 0.8877068 
0.24273314 -0.55313903 0.79694283 
0.101387486 -0.7634244 0.6378902 
-0.5157259 0.018385086 0.8565564 
-0.9598882 0.1922679 0.20407797 
-0.73587483 0.30744237 0.60329723 
-0.89106435 -0.015452723 0.4536141 
-0.587563 -0.2690061 -0.763155 
-0.46204567 -0.5567727 -0.69030285 
-0.07098467 -0.6670666 -0.7416086 
-0.37538725 -0.35454595 -0.85637707 
0.0026016792 -0.62272465 -0.7824367 
0.49125627 -0.8170482 -0.30182707 
0.3527481 -0.7207827 -0.59669185 
0.9319208 -0.34345552 0.11645553 
0.95152456 0.014255848 0.30724218 
0.60036594 -0.06959383 0.79669154 
0.23537165 -0.4300795 0.8715687 
-0.1646878 -0.65949374 0.733448 
-0.4435782 -0.5384457 0.7164599 
-0.208675 -0.4166833 0.8847768 
-0.1541814 -0.5890172 0.7932761 
0.3430712 0.30916438 0.8869722 
0.341484 0.4319216 0.834765 
0.5234459 -0.20086026 0.82804567 
0.66793495 -0.35666546 0.6531866 
0.7147771 0.3695689 0.5937277 
0.61959726 0.55705243 0.5529845 
0.4425742 0.33872318 0.83029795 
-0.45956203 0.3520553 0.81538945 
-0.92045003 0.2935293 -0.2580938 
-0.642877 0.60772693 0.4662374 
-0.7363671 -0.1668282 0.655692 
-0.38813233 0.270576 -0.88098925 
-0.49763662 -0.3857958 -0.77686524 
0.055074323 -0.34580994 -0.9366869 
0.96216303 -0.27123344 -0.025974946 
0.8328781 -0.55183357 -0.042354006 
0.33551058 -0.8189077 0.46564245 
-0.31826624 -0.853102 -0.41342917 
0.7190005 -0.67078304 0.18190226 
0.6179051 -0.71490735 0.32726264 
0.37115952 -0.92810553 -0.029340515 
0.6535687 -0.7538039 -0.068027556 
0.5481688 -0.7828933 0.29426008 
0.5692671 -0.41049853 0.71233845 
-0.49693093 -0.35575393 0.7915167 
-0.4947913 -0.5731497 -0.6532083 
0.010366527 0.10130844 -0.99480104 
-0.25923693 -0.4675162 -0.84511817 
-0.20299627 -0.38042414 -0.9022583 
0.82643193 -0.48160446 -0.29166326 
0.85535145 0.18395403 -0.48428792 
0.269492 0.9093947 0.31682065 
0.444236 0.649189 0.61742055 
0.2164824 0.97339004 0.07514798 
0.98561937 0.15772305 -0.060645524 
0.47933543 0.76351446 0.43276247 
0.10235131 0.8384918 0.53521556 
0.5799734 0.34723645 0.7369246 
0.605899 0.6239466 0.49353525 
0.5558805 0.6537148 0.51347256 
-0.5838301 0.32866085 0.7423776 
-0.97706443 -0.20570089 0.055066545 
-0.8389964 0.3576573 -0.410081 
-0.78493226 0.57993037 -0.21808742 
-0.15440062 -0.0777414 -0.9849451 
0.106970385 -0.48866877 -0.8658869 
0.39659172 -0.64409965 -0.65410304 
0.19078973 -0.97669846 0.0982825 
-0.060035937 -0.9566675 -0.2849263 
0.5039499 -0.6558365 -0.56206137 
0.6028907 -0.79553866 -0.06034084 
0.6044251 -0.7662829 0.21790116 
0.05115157 -0.93244284 0.35767844 
0.066120125 -0.9958127 0.06312917 
-0.49104372 -0.66717386 -0.5601385 
-0.31489587 -0.6606012 -0.68150336 
-0.23708086 -0.07827484 -0.9683314 
0.46677527 -0.52408934 -0.7123561 
-0.10169752 -0.5845045 -0.8049921 
0.42528751 0.43778583 -0.7921326 
0.27698338 0.5137391 -0.81200516 
0.5338985 0.7410002 -0.40727293 
0.28939658 0.77979934 -0.5551241 
0.56638914 0.8224733 0.05235635 
0.91064453 0.3353556 0.24137804 
0.23621908 0.8223398 0.51764655 
0.44813195 0.25751495 0.85607475 
0.41255957 0.5549149 0.7224017 
0.33723617 0.7638262 0.55031013 
0.49395046 0.6039106 0.6255437 
-0.11918944 0.3810203 0.91685194 
-0.5443334 0.43699172 0.7160583 
-0.8545041 0.5141248 0.07415197 
-0.8793224 0.15521142 -0.4502241 
-0.9677487 -0.14208071 0.20802785 
-0.8658641 -0.39638633 0.30521664 
-0.48992428 0.8469026 0.20671307 
-0.83954936 0.49653518 -0.2204765 
-0.7693353 0.56559324 -0.2970312 
-0.030248996 0.7537201 -0.6564992 
-0.88031036 0.3768787 0.28812534 
-0.098112345 0.31109992 -0.9452994 
-0.011842478 0.10293196 -0.9946179 
0.2074547 -0.4231807 -0.8819754 
0.19747189 -0.60763687 -0.76927394 
0.5653116 -0.7834008 -0.25827518 
0.6015256 -0.77308667 0.20125648 
0.2970233 -0.83190835 -0.46872774 
-0.43358752 -0.7555935 -0.49099946 
0.38739747 0.16920525 -0.9062521 
0.13704301 -0.17392178 -0.9751772 
0.11995368 0.23648907 -0.9642013 
0.21184373 0.19626553 -0.9573934 
0.24785703 0.33478835 -0.9091115 
0.5819795 -0.017826855 -0.8130081 
0.4769608 -0.39152005 -0.78690565 
0.45419732 0.1698391 -0.87456256 
0.43169227 -0.10549637 -0.8958306 
0.80337954 -0.13611054 -0.57970273 
0.7292487 0.20907885 0.6515231 
0.015244145 0.43999135 0.8978727 
-0.28256243 0.89621526 0.3419894 
-0.1980405 0.27343833 0.94128186 
-0.9846375 0.045108296 0.16868408 
-0.6388306 0.5279363 0.5596239 
-0.92712086 0.3724068 0.04195477 
-0.83019334 0.49321997 -0.25983295 
0.18683705 0.81991327 -0.5411415 
-0.060487624 0.78020966 0.62258667 
0.12552889 0.25305068 0.9592747 
-0.028696116 0.22510605 0.97391164 
-0.63082147 0.08192706 0.7715907 
-0.2794728 -0.123031706 0.9522385 
-0.40003154 -0.031140052 0.9159723 
-0.81362087 0.58058834 0.030630806 
0.4160591 0.34076273 -0.84307516 
0.28191885 0.8666202 -0.41169313 
0.89366287 0.4478851 -0.027668905 
0.53540236 -0.2966876 0.7907723 
0.906481 0.2667059 0.3273535 
0.6621529 -0.13853177 0.73645276 
-0.44965428 0.08028821 0.889587 
-0.80161965 0.5628394 -0.20153879 
-0.8901721 0.0676978 -0.45056713 
-0.59499747 0.5252108 -0.60838455 
-0.18340793 0.15847597 -0.97017884 
-0.15572277 -0.19180481 -0.9690002 
-0.6158756 0.29274064 -0.7314371 
0.29052383 0.57368374 -0.7658217 
0.028011512 0.807063 -0.58980066 
0.4222301 0.75441885 -0.5025674 
0.6827526 0.7302634 -0.02375561 
0.9295071 -0.12773848 -0.34597626 
0.7404951 -0.40935254 0.53300816 
0.73918855 -0.6557931 0.15341389 
0.9336083 0.3384213 0.11767184 
0.17254888 -0.66225624 -0.7291389 
0.016757058 -0.9879204 -0.15405348 
-0.031397607 -0.7900539 0.612233 
-0.36131832 -0.497043 0.78892165 
-0.55672646 -0.25591907 0.79029185 
-0.82512504 0.12237902 0.5515361 
-0.98917824 0.13206495 -0.06391611 
-0.7097793 0.40584368 0.5757642 
-0.7076708 -0.6608176 0.2500443 
-0.62743646 -0.738985 -0.24540733 
0.59080845 -0.71553415 -0.37276855 
0.6059974 -0.68349487 0.40694234 
0.29350537 -0.9323796 0.21100439 
-0.15428483 -0.5317226 0.83274686 
0.39262408 -0.83162785 0.39273602 
0.0046803663 -0.87467194 0.48469284 
-0.27967247 -0.83320045 0.47703305 
-0.76972294 -0.61451393 0.17291443 
-0.6400588 -0.7683239 0.0017943592 
-0.58055145 -0.57392246 0.57755786 
-0.74996936 -0.2870856 0.59592605 
-0.8543652 -0.5195145 -0.012833192 
-0.48446143 -0.3342089 -0.8084563 
-0.33276534 0.021012839 -0.9427756 
-0.041870356 -0.06505823 -0.9970027 
0.19092903 -0.47870356 -0.8569651 
0.6569307 -0.31740224 -0.68388444 
0.6548397 0.74742424 -0.11199171 
0.9254471 -0.09109519 0.36776268 
0.6021074 -0.6162636 0.50762767 
0.7456045 -0.6344027 0.2039785 
0.62468064 -0.6622295 -0.41379485 
0.9892359 -0.031890787 0.14281271 
0.5998221 -0.20944974 0.7722334 
-0.23999642 -0.03907995 0.96998686 
-0.20072372 -0.36455047 0.9092926 
0.073275045 0.09786385 0.9924986 
0.09894504 0.30936727 0.9457811 
-0.48828232 0.2871029 0.82410705 
-0.24263863 0.79825413 0.55128664 
-0.8989716 -0.1331507 0.41727817 
-0.8343065 -0.20412949 0.5121171 
-0.99393 0.10919886 -0.01337546 
-0.76523864 0.35562968 -0.5365979 
-0.99630946 0.08563363 -0.0058763623 
-0.82567227 -0.22824508 -0.5159162 
-0.8799337 0.3913859 -0.26932094 
-0.9399795 -0.26835185 -0.2107749 
-0.096182525 -0.43902454 -0.8933121 
0.12490404 -0.039796993 -0.99137044 
-0.116954826 -0.19085595 -0.97462595 
0.4021329 -0.16854253 -0.8999348 
0.01118133 -0.6153549 -0.78817093 
-0.10089588 -0.0012793895 -0.99489623 
-0.18041734 -0.16242376 -0.97008663 
-0.6030884 -0.49140155 -0.6283382 
0.3196365 -0.05717808 -0.94581354 
0.15324299 0.32751018 -0.9323378 
-0.20768228 0.66305494 -0.71918446 
0.58232903 -0.1566083 -0.79772604 
0.9396596 -0.004741375 -0.34207824 
0.93394095 -0.1003733 -0.34304467 
0.91954863 -0.3211786 0.22643928 
0.8848389 0.1858811 0.42721006 
-0.102000736 0.15884593 0.9820203 
-0.133811 -0.024784794 0.9906969 
-0.12005333 0.123032026 0.98511446 
-0.80131507 0.56563556 0.19480926 
-0.76307493 0.560289 -0.32216904 
-0.78250504 0.15462026 -0.6031406 
-0.5651854 -0.54487896 -0.619413 
-0.26318595 -0.74502605 -0.6129188 
0.5930487 -0.7664933 -0.24653883 
0.4209417 -0.7024467 0.5739136 
-0.13491537 -0.8444359 0.51838773 
0.5654024 -0.5998239 0.5661551 
0.4185903 -0.7384957 0.528589 
0.48785573 -0.8089151 0.32810536 
0.23647615 -0.47522393 0.8474912 
0.53263247 -0.6001394 0.5967708 
0.31818268 -0.59177965 0.7406461 
-0.519465 -0.8444897 0.13035843 
-0.43563724 -0.8333494 0.3402192 
-0.21351239 -0.6102951 0.7628581 
-0.98466545 0.0065848366 0.1743294 
-0.89823985 -0.22692713 -0.37638998 
-0.3642725 -0.122094244 -0.9232544 
0.1312132 -0.97880393 -0.15724494 
0.87517416 -0.35140547 -0.33254224 
0.9895864 0.08276072 0.11776825 
0.9988133 -0.040387347 -0.027221048 
0.98869264 0.04372813 0.14343938 
0.9784581 0.014223927 0.20595528 
0.13649444 -0.122643635 0.9830198 
0.94736046 -0.29245928 0.13029127 
0.32391796 -0.6986987 0.63788503 
-0.009660697 -0.9622309 0.27206305 
0.6656884 -0.3644239 0.6511946 
0.6703125 0.2646251 0.6932927 
0.45800722 -0.32296005 0.8282066 
-0.26595914 -0.6188229 0.7391374 
-0.52301604 -0.10307899 0.8460669 
-0.80061525 -0.10761412 0.58943564 
-0.607799 0.24286017 0.7560419 
-0.75933146 0.0036252423 0.6506939 
-0.5070706 -0.7693782 -0.3885059 
-0.53658855 -0.7317383 -0.42027593 
-0.30471748 -0.6093394 -0.73201966 
-0.6725447 0.08944746 -0.73463106 
0.3568142 0.15635999 -0.92099684 
-0.2549827 -0.5477589 -0.7968337 
0.5084629 0.02982107 -0.86056745 
0.7824346 -0.21800391 -0.5833271 
0.8552743 -0.45355523 -0.25058663 
0.5148012 -0.1712055 0.84004074 
0.39202192 0.30874667 0.8665994 
0.7434841 -0.27110106 0.61133933 
0.518967 -0.67215747 0.52808875 
-0.18464065 -0.5965149 0.7810748 
0.11303614 -0.46134508 0.87999064 
0.4644667 -0.16369471 0.87033033 
0.9467165 0.27816352 0.16233632 
0.12475392 0.5986807 0.791213 
0.01738453 0.05918478 0.9980957 
0.36234713 0.9039725 0.22702041 
0.7302011 0.6595925 0.17816891 
-0.17825875 0.42940277 0.8853458 
-0.459735 0.36021572 0.8117195 
-0.76598066 0.5541225 0.32591712 
-0.5668668 0.79488635 0.21637452 
-0.42437652 0.8690715 -0.25420314 
0.0044731842 0.9290687 -0.3698802 
-0.450466 -0.265133 -0.85251683 
-0.29684618 -0.64058006 -0.7081946 
0.67754126 -0.72852224 -0.10096203 
0.61662215 -0.74566615 0.2525059 
-0.106531575 -0.9902193 0.09009329 
0.17826895 -0.86138964 -0.47563455 
0.3643185 -0.9311708 -0.013894184 
-0.07378858 -0.7781101 0.6237789 
0.4372428 -0.8219356 0.36502144 
0.25783208 -0.9011932 0.34838712 
-0.05711285 -0.9064037 0.41853392 
-0.36205167 -0.9023822 0.23371993 
-0.7808433 -0.5916019 0.20072612 
-0.44232792 -0.59272057 -0.6730738 
-0.055640195 0.12940533 -0.9900296 
0.15980484 0.083553866 -0.9836062 
0.5963012 -0.3183649 -0.736932 
0.95378226 -0.2889199 -0.08261251 
0.9393225 0.26680303 -0.21561441 
0.80982363 -0.20004974 0.5515123 
0.42595637 0.63619363 0.64328754 
0.21154435 0.83318913 0.5109255 
0.615398 0.20508271 0.76106924 
0.27417973 -0.13984698 0.9514559 
-0.07970211 0.3534278 0.93206036 
0.7792201 0.23757876 0.5799763 
0.56251204 -0.1462051 0.81375945 
-0.22287688 -0.052800063 0.97341573 
-0.43244916 -0.462002 0.7743008 
-0.7191052 0.523565 0.45691088 
-0.7556329 0.52312946 -0.39415053 
-0.44515026 0.30748275 -0.84100866 
-0.7590217 -0.09108114 -0.64466304 
-0.22683267 -0.7692854 -0.5972831 
-0.17022002 -0.8486484 -0.5008203 
-0.3667057 -0.86157745 -0.35101488 
-0.08313864 -0.8266545 -0.5565343 
0.09481823 -0.91985637 -0.3806232 
0.165308 -0.9154832 -0.36682934 
0.5272695 -0.82173145 -0.21620415 
-0.08778012 -0.91904104 -0.38426343 
-0.33716825 -0.8266798 -0.4504645 
-0.20956932 -0.95163155 -0.22467376 
-0.48507333 -0.525088 -0.6992757 
-0.21105723 -0.008469656 -0.977437 
-0.077060856 -0.6473374 -0.7582981 
0.16469271 -0.13806404 -0.9766343 
0.84868056 0.44913074 -0.2793259 
0.6571586 0.47185743 -0.58778673 
0.9548836 0.24336933 -0.17020214 
0.5122961 0.85252094 -0.10373387 
0.8080887 0.34836042 -0.47501332 
0.840502 -0.11533549 -0.52939045 
0.95860153 0.14138728 0.24716954 
0.845424 0.3703378 0.3848483 
-0.2060569 0.0018854621 0.9785382 
0.12588854 0.41370133 0.90166694 
0.011766825 0.7740843 0.6329732 
0.08297266 0.42192626 0.9028255 
-0.6451481 0.5570887 0.5229113 
-0.66119343 0.56443626 0.49420142 
-0.30093738 0.80102044 0.5174968 
-0.83644557 0.54803973 -0.0033454543 
-0.93975985 0.1904799 0.28384656 
-0.6499078 0.7551218 -0.08608609 
-0.9990872 -0.042692013 -0.0014996156 
-0.5122657 0.8313711 -0.21542029 
-0.9686121 0.22649881 -0.10241602 
-0.8936472 0.18765529 -0.40765205 
-0.40201047 -0.4150539 -0.8161604 
0.3700379 -0.3010788 -0.87887627 
0.359631 -0.44034764 -0.82265395 
0.17305055 -0.5310036 -0.82951117 
0.15381311 -0.81279916 -0.5618712 
0.2859097 -0.8695958 -0.40256512 
-0.026654467 -0.00352472 -0.9996385 
-0.44963166 0.20861682 -0.8685104 
0.2519381 -0.22653033 -0.9408567 
0.33760792 -0.507656 -0.79265773 
-0.3914006 -0.69616663 -0.6017953 
0.6966602 -0.6728631 -0.24883696 
0.35124773 0.41439426 -0.83958477 
0.07260632 0.4518542 -0.8891322 
0.41092214 -0.12184978 -0.90349084 
0.7923762 0.36013454 -0.4923853 
0.79469997 -0.031243473 -0.6061979 
0.79593754 -0.15201077 -0.5859831 
0.26861617 -0.1814799 0.94599706 
-0.36501178 0.1273517 0.9222516 
-0.15931831 0.772901 0.61420006 
0.02031424 0.19340342 0.98090905 
-0.71158576 0.25636587 0.65415776 
-0.7990882 -0.010797936 0.60111696 
-0.9196535 0.36435553 -0.14656968 
-0.9798854 0.02313165 -0.19821586 
-0.4839863 0.8219304 0.30031267 
-0.3641938 0.76949894 0.5246277 
-0.4932617 0.725718 0.47961056 
-0.10123446 0.34659073 0.9325377 
-0.5435918 0.60378397 0.5830548 
-0.8153677 -0.010778673 0.5788431 
-0.9305596 0.36254406 -0.0511942 
-0.78621817 -0.041796695 -0.616534 
0.038337257 0.5981439 -0.8004713 
0.8399067 0.5082072 0.19047952 
0.9543258 -0.2971269 -0.031272024 
0.24263355 -0.9490881 0.20089968 
0.71750605 0.68428534 0.13014847 
0.9377255 -0.20907277 0.27741575 
0.06551905 0.5350952 0.8422472 
-0.90177315 0.35271817 0.24979037 
-0.89253896 -0.37549025 -0.24976286 
-0.6807767 -0.69003487 -0.24575406 
0.022189394 -0.40358767 -0.91467184 
-0.21726038 -0.036996283 -0.9754123 
0.20964941 0.17940871 -0.96117616 
0.2771203 0.6146352 -0.7385309 
0.14824936 0.2525595 -0.9561569 
0.53293306 0.4191049 -0.7350738 
0.5512501 0.70547676 -0.44545025 
0.84134036 -0.5173809 0.1564075 
0.876673 -0.40014967 0.26706725 
0.62364376 -0.36459836 0.69147426 
0.80836844 0.20383541 0.55226046 
-0.092854775 -0.6160154 -0.7822424 
0.25176468 -0.96590495 -0.060352203 
0.4860715 -0.813884 0.31831947 
0.41672462 -0.16153443 0.8945654 
-0.34558558 -0.20251037 0.91627526 
-0.29847986 0.6494624 0.6993629 
-0.6373254 -0.30755612 0.70655906 
-0.5666095 -0.3555498 0.74332905 
-0.67786884 -0.68691486 -0.2619959 
-0.13996585 -0.98970944 -0.029746572 
0.37035823 -0.76426834 -0.5279477 
-0.024308372 -0.9330516 -0.3589204 
0.41660148 -0.76684713 0.48825055 
0.032594744 -0.94460744 0.3265802 
0.525092 -0.8412763 -0.12857978 
0.042185448 -0.7911903 0.6101135 
0.13655977 -0.89257604 0.42972013 
-0.8958197 -0.43494558 0.09126592 
-0.84999233 -0.38944152 -0.35475108 
-0.9396022 -0.20765214 0.27208173 
-0.8218579 -0.52871865 0.21214685 
-0.82829404 0.06639516 -0.55634594 
-0.4564335 -0.44180757 -0.7723177 
-0.09535032 -0.17099208 -0.98064786 
-0.009144322 -0.5111689 -0.8594316 
0.5222864 -0.54679877 -0.65439135 
0.36872178 -0.36213025 -0.8560993 
0.94511795 0.20392957 -0.2552742 
0.945715 -0.17860936 -0.27151766 
0.8785888 -0.24859959 0.40777433 
0.5134145 -0.8404376 -0.17340784 
0.9226799 -0.05997787 -0.3808734 
0.9700549 0.19748825 -0.14139232 
0.7910928 -0.4037186 0.45954722 
0.81044376 -0.059929095 0.58274305 
-0.28883985 -0.605058 0.741941 
-0.17430563 -0.22433898 0.95879596 
-0.5272213 -0.04288177 0.8486453 
-0.50584686 0.601886 0.617942 
-0.3691458 0.24844065 0.89554936 
-0.4927781 0.6086175 0.6218959 
-0.9019341 -0.4243039 0.0805054 
-0.8167325 -0.42987686 0.38490748 
-0.8210822 -0.53611064 -0.19598351 
-0.9875511 -0.059605967 0.14556853 
-0.97793204 -0.1972765 -0.06878243 
-0.9512806 0.1908946 -0.24212521 
-0.9133423 -0.22591132 -0.338777 
0.38747323 0.12416861 -0.9134806 
0.005732118 0.08064432 -0.9967265 
0.28648233 0.104855895 -0.95233035 
-0.30648875 -0.1902698 -0.932664 
-0.36148503 -0.42464957 -0.8300611 
-0.13402684 -0.117340475 -0.9840061 
-0.3561551 0.018197227 -0.93424964 
-0.12375402 -0.401675 -0.90738213 
-0.08200832 0.23341714 -0.9689124 
0.3919819 0.11373991 -0.9129149 
0.5464524 0.35921714 -0.75654006 
0.82195383 0.4474011 -0.35245457 
0.96154624 -0.10357577 0.25436386 
0.633738 0.026664793 -0.7730882 
0.7826843 0.1039486 0.61367744 
0.57767916 0.76837844 0.2754657 
-0.12514096 0.16978456 0.9775035 
-0.14810081 0.12707368 0.9807744 
-0.423106 0.43967113 0.7922566 
-0.8263932 0.45380408 0.33337086 
-0.58709025 0.6200977 0.5203883 
-0.9425237 0.33397755 -0.0104035195 
-0.6065064 0.22957866 -0.76121193 
-0.15826157 -0.4313574 -0.8881915 
0.122660704 -0.24431007 -0.96190804 
0.6036334 -0.757282 -0.24930048 
0.16205642 -0.9801473 0.1142329 
0.5999192 -0.7817232 -0.17031157 
0.5145184 -0.80321556 0.30019256 
0.3087912 -0.120026425 0.94352627 
0.17902164 -0.7981518 0.5752435 
0.01461313 -0.7282971 0.6851057 
-0.32545677 -0.7907406 0.5184662 
-0.37098798 0.5152498 0.7725837 
-0.9392269 0.19399759 0.28322762 
-0.901506 -0.38853538 0.19059686 
-0.91771907 -0.38509408 0.097439066 
-0.9411623 -0.2468239 -0.23084998 
0.33435157 -0.6232222 -0.70696765 
0.037279718 -0.6313649 -0.77458936 