# OOMMF: rectangular mesh v1.0
# Segment count: 1
# Begin: Segment
# Begin: Header
# Desc: Time (s) :  4.360000000000004e-07
# Title: m
# meshtype: rectangular
# meshunit: m
# xbase: 2e-09
# ybase: 2e-09
# zbase: 5e-10
# xstepsize: 4e-09
# ystepsize: 4e-09
# zstepsize: 1e-09
# xmin: 0
# ymin: 0
# zmin: 0
# xmax: 1.024e-06
# ymax: 1.024e-06
# zmax: 1e-09
# xnodes: 256
# ynodes: 256
# znodes: 1
# ValueRangeMinMag: 1e-08
# ValueRangeMaxMag: 1
# valueunit: 
# valuemultiplier: 1
# End: Header
# Begin: Data Text
-0.90169173 -0.22142643 0.37137902 
-0.5538875 -0.7935146 -0.2520779 
-0.7370707 -0.3676203 -0.5670822 
-0.9974507 -0.056443848 0.043659758 
-0.8383106 -0.5158076 -0.17657268 
-0.58477485 -0.7497445 -0.3097122 
0.3051617 -0.7665257 -0.5650794 
1.5190035e-05 -0.84173393 0.5398925 
-0.34855992 -0.31665787 0.88217556 
0.15617234 -0.5670353 0.80875283 
-0.11846734 -0.52162546 0.84490967 
0.15435995 -0.5745389 0.80378985 
0.7405544 -0.5808216 0.3379727 
0.85081065 -0.1703189 0.49710447 
0.6545169 0.19952886 0.72924346 
-0.17008942 -0.06380912 0.98336065 
-0.46757144 0.36192077 0.8064679 
-0.8784367 0.47754803 0.017231902 
-0.07289441 -0.26993373 0.96011573 
0.41088116 -0.11123592 0.90487754 
-0.22854231 0.010665104 0.9734756 
-0.48320985 -0.14141084 0.8640088 
-0.36530545 -0.62495446 0.68991596 
-0.6833967 -0.7292844 -0.033365875 
-0.619453 -0.2039947 -0.75806606 
-0.06376579 -0.31697005 -0.94628966 
0.08767763 -0.15095405 -0.98464495 
0.2655922 0.11810945 -0.95682335 
0.21233001 -0.2641446 -0.9408207 
0.41144288 -0.6976017 -0.586572 
0.6173944 -0.42896706 -0.6594024 
0.9559112 -0.038946297 -0.2910616 
0.29787531 -0.8464746 -0.4413062 
0.8311512 0.428884 -0.35390165 
0.94339734 0.30471474 0.13095942 
0.9536656 0.0017695185 0.3008633 
0.4658285 0.7037762 0.5363794 
-0.44170457 0.59732914 0.66939896 
-0.48184234 0.4355032 0.76037157 
0.032590874 0.24353954 0.9693433 
-0.13305122 -0.4152977 0.8999029 
-0.2577923 0.56529826 0.7835695 
-0.67792505 0.37805143 0.63047194 
-0.6826691 0.56686544 0.46111456 
0.05718852 -0.60734683 0.7923758 
0.35790768 -0.72212243 0.59198093 
-0.081524566 -0.9283346 0.36269644 
-0.5069912 -0.8512457 -0.1354285 
-0.61723477 -0.70126146 -0.3567262 
-0.4864993 -0.80114156 -0.34855512 
-0.36809397 -0.83753914 -0.40377584 
-0.89015454 -0.4505736 -0.06788387 
-0.56980556 -0.7598627 0.31293815 
-0.9197995 -0.17449775 0.35145348 
-0.3850369 -0.9144919 -0.124302715 
-0.2963053 -0.9124189 0.28230315 
-0.050363075 -0.9828743 -0.1772619 
0.8071332 -0.47594008 -0.34930944 
0.82456785 -0.40678895 -0.39320585 
0.8076458 -0.3526665 -0.472583 
0.661453 -0.7459606 -0.077606976 
0.35984308 -0.9258346 0.1155133 
0.64081496 -0.71058255 0.2905662 
0.07128822 0.4830797 0.8726695 
0.18233484 0.7217054 0.66775405 
0.5403705 0.5597998 0.62819093 
0.2748393 -0.030766472 0.9609979 
-0.70872945 -0.31002557 0.6337087 
0.26578537 0.34472442 0.90029067 
-0.39932966 0.2077204 0.8929659 
-0.74655837 0.57328874 0.33762497 
-0.43369195 0.77426684 -0.46089277 
-0.26079527 0.3734904 -0.8902195 
-0.02991566 -0.312248 -0.94952947 
0.2904881 -0.32998523 -0.89817953 
0.027295692 -0.9080879 -0.41788918 
0.07839641 -0.91029817 -0.4064619 
0.24207212 -0.66022605 -0.71098715 
0.29975906 -0.45994806 -0.83581835 
-0.51389414 -0.6001512 -0.6129693 
-0.2759617 -0.19215654 -0.9417649 
-0.5617478 -0.07561663 -0.8238456 
0.09077562 -0.49972078 -0.8614168 
0.68050194 -0.62100905 -0.38892803 
-0.21382995 -0.82403135 -0.5246418 
-0.0905619 -0.72013044 -0.68790317 
-0.45257738 -0.5609986 -0.69314814 
-0.16158454 -0.98315203 -0.08545495 
0.4149872 -0.692484 -0.59012854 
0.33693227 -0.4949072 0.80096406 
0.5654314 -0.5199633 -0.64025426 
0.8969584 0.09259069 -0.43231085 
0.7300996 -0.5595239 -0.3922852 
-0.27697703 -0.348756 -0.89535075 
-0.06187065 -0.73509806 -0.67513186 
-0.031670712 0.29102254 -0.95619184 
0.51964253 0.07172293 -0.85136807 
0.4228428 -0.12786019 -0.8971376 
0.42015928 0.03827878 -0.90664274 
0.69683725 -0.70106316 0.15142088 
0.8743514 -0.46455374 0.14035563 
0.34476385 -0.79679614 0.49623954 
0.8879899 -0.45826623 -0.03829043 
0.80302083 0.33985323 0.4895481 
0.59525424 0.42946678 0.6791397 
-0.10819772 -0.43661088 0.89312047 
-0.86712074 -0.3285627 0.37436372 
-0.10807734 -0.9772342 0.18257251 
-0.12956238 -0.8907443 0.43564698 
0.7127537 -0.69841313 -0.064817816 
0.3672966 -0.74484515 -0.55704486 
-0.20089683 -0.63039285 -0.7498302 
-0.16263092 -0.58044183 -0.79789627 
0.105401576 -0.2783867 -0.9546682 
-0.98102367 0.16023883 -0.10916092 
-0.9695269 0.037327293 0.24212492 
-0.26683852 -0.54762024 -0.793038 
0.06431968 -0.86498004 -0.49766707 
-0.5586304 -0.17544232 -0.8106492 
0.038769685 -0.03245271 -0.9987211 
0.5339919 -0.24529614 -0.8091246 
0.8084064 0.033177186 -0.5876891 
0.49021173 0.60513085 -0.6273031 
0.72979623 0.6715702 0.12802789 
0.8473244 0.082060404 -0.52469754 
0.90627223 -0.33467945 0.25818676 
0.769458 -0.15557669 0.61945975 
-0.19038863 0.33273098 0.9236029 
-0.018135753 0.18600614 0.9823812 
0.07069062 -0.7974065 0.5992877 
-0.19817454 -0.16856673 0.9655632 
-0.2867427 -0.6120748 0.73698246 
-0.43066686 -0.5741667 0.69631803 
-0.10383694 -0.78370905 0.6123872 
-0.20643406 -0.9463318 0.24867906 
-0.4738733 -0.8074811 -0.35130957 
-0.3687194 -0.600398 -0.70962554 
-0.022909163 -0.47666386 -0.8787871 
0.02335638 -0.87463766 -0.4842145 
0.10990186 -0.87161136 -0.47771898 
0.22005965 -0.4067719 -0.8866287 
0.55886954 -0.06303177 -0.82685673 
0.83329266 -0.040174413 -0.55137044 
0.40740645 -0.6421977 -0.649309 
0.66037524 -0.6427129 -0.38836154 
0.3629071 -0.7318561 0.5767886 
0.7045585 -0.706407 0.06772407 
0.4296437 -0.881851 0.19428119 
0.39343134 -0.9137709 -0.10116613 
0.062192444 -0.91117406 -0.40730065 
0.331359 -0.8521613 -0.40499666 
0.31722733 -0.8103842 -0.4925896 
-0.35809252 -0.909457 0.2113237 
-0.86851615 -0.43506035 0.23749126 
0.17337503 -0.6961638 -0.6966328 
0.7757428 -0.6215792 -0.10891541 
0.5462221 -0.35518333 0.75860804 
-0.17566238 -0.32627895 0.9288083 
0.12208577 0.34145322 0.931936 
-0.24876517 -0.08886415 0.9644786 
-0.5983338 0.5944888 0.53719616 
-0.7891104 -0.33822778 0.51274437 
-0.5993221 -0.5317475 0.5983792 
-0.17680566 -0.9711978 0.15973333 
-0.25701582 -0.8700368 0.42068863 
-0.3340646 -0.74864304 0.5726556 
-0.374775 -0.65585244 0.65528727 
-0.36837447 0.32983547 0.8692001 
-0.45021683 -0.20118485 0.8699594 
0.045111436 -0.38385656 0.92229027 
-0.557995 -0.2815261 0.780631 
-0.25006947 -0.8973891 0.36353558 
-0.042225294 -0.37105435 -0.92765075 
-0.35884997 -0.71109575 -0.60462356 
-0.30925912 -0.9265516 -0.21415186 
-0.059941348 -0.29371673 -0.9540113 
0.43193486 -0.2007427 -0.87928075 
0.95485014 0.25680962 -0.14936605 
0.925662 0.2824601 -0.25172666 
0.8785873 -0.019635802 -0.47717795 
0.83430654 -0.5088279 0.21219538 
0.29400286 -0.45923385 0.8382521 
-0.10554008 -0.63458306 0.7656146 
-0.37016228 0.10632905 0.92286193 
0.10611892 -0.4836204 0.86882114 
0.24892125 -0.7194303 0.6484276 
-0.3828893 -0.8387276 0.38721022 
-0.41277832 -0.8042392 -0.42756677 
-0.1495552 -0.46367022 -0.8732944 
-0.054111633 -0.73375255 -0.6772587 
0.48780826 -0.82105356 0.29650348 
0.17043366 -0.5168472 -0.83894056 
0.28667566 -0.6704424 -0.6843421 
0.6227947 -0.6329085 -0.45994952 
0.7900622 -0.008548465 -0.61296713 
0.91427964 -0.39268565 0.099452436 
0.8718027 -0.46419412 0.15647368 
0.6078048 -0.37087807 0.70215595 
0.8552618 0.33902314 0.39190635 
-0.13001834 0.6173511 0.7758691 
0.79673994 0.35089168 0.49201676 
-0.1628401 0.48743197 0.8578422 
-0.09049706 0.45046955 0.88819337 
-0.27640992 0.79746044 0.5363343 
-0.39582264 0.5721188 0.7183346 
0.22918811 0.9714927 -0.060621195 
-0.005754396 0.79346454 -0.6085893 
-0.437787 -0.46813446 -0.7675889 
-0.5931967 -0.13856263 -0.79304355 
-0.52141625 0.61527336 -0.5912393 
-0.27983508 -0.111838415 -0.9535117 
-0.25829476 -0.33024856 -0.90786546 
-0.17196284 -0.7006406 -0.6924822 
-0.3496095 -0.74974865 -0.5618276 
0.07402876 -0.9654082 -0.2500138 
0.0062285285 -0.47152218 -0.8818323 
-0.25264424 -0.4604153 -0.8509928 
0.5529113 -0.23760864 -0.7986435 
0.37242547 0.124350786 -0.9196936 
0.60636586 -0.3698148 -0.7039584 
0.86270165 -0.50094193 -0.069304846 
0.6603727 0.7418863 -0.116244294 
0.6356813 0.69772464 -0.3302873 
0.37353176 0.39340973 0.84006125 
0.51323247 -0.09496093 0.85298 
0.7394473 -0.12022052 0.6623932 
0.99893254 -0.03577622 0.029220019 
-0.4512508 -0.076577425 0.8891056 
-0.3877613 -0.19851735 0.9001289 
-0.40272775 -0.121098086 0.90727377 
-0.2253377 -0.031191085 0.97378135 
-0.43062738 -0.1436942 0.89101744 
-0.7275965 0.29191077 0.620799 
-0.7610751 -0.53545403 -0.36613354 
-0.7270748 -0.5992359 0.33508012 
-0.63620824 -0.6945421 -0.33593228 
-0.31747591 -0.48627385 -0.81409264 
-0.4728192 -0.45257968 -0.7560513 
-0.5111886 -0.39859262 -0.7614526 
-0.4705666 -0.8597109 -0.1986567 
-0.64532346 -0.7621443 0.051901132 
0.50435627 -0.8609179 0.06667268 
0.28272685 -0.9579105 0.04973155 
0.6304223 -0.27944687 0.72420806 
0.27952117 -0.017266408 0.9599843 
-0.17281 -0.08575429 0.98121506 
0.011669069 -0.58870655 0.80826265 
-0.78607345 -0.52106744 0.33253172 
-0.9592309 -0.029266894 -0.28110427 
-0.033312295 -0.5931128 -0.8044299 
0.6670517 -0.4807172 -0.5691688 
0.8764719 -0.15151365 0.45699093 
-0.23762588 -0.31357703 0.91934943 
-0.39811918 -0.8650629 0.30523342 
-0.40016577 -0.5566786 -0.7279948 
0.4462962 0.017710298 -0.89471006 
-0.5546156 -0.82348603 0.119466566 
-0.55339324 -0.81671655 0.1634935 
-0.39088163 -0.592207 -0.70462936 
-0.4857423 -0.7162921 -0.50097924 
0.14199041 -0.8216187 -0.55207026 
0.12675828 -0.721083 -0.6811547 
0.19277008 -0.4754865 -0.8583428 
0.19266474 -0.9638834 -0.18387298 
0.10836507 -0.19471285 0.97485584 
0.0041296324 -0.6707614 0.7416618 
-0.21038826 -0.94072115 0.26604596 
0.20871454 -0.67498064 0.70770013 
-0.35304004 -0.6715112 0.6514872 
0.40158537 -0.49499694 0.77052414 
0.13276047 -0.06843516 0.9887828 
-0.44766465 -0.5061779 0.73714334 
0.25903395 0.18510859 0.9479643 
-0.1459901 0.40301928 0.9034725 
-0.2556178 -0.35497808 0.89924973 
-0.34385088 -0.41913623 0.8402925 
-0.30014485 -0.53524417 0.7895738 
-0.30258542 -0.7513848 0.5863983 
-0.007108273 -0.97279906 -0.23154137 
-0.17667973 -0.7122308 -0.6793465 
0.16496578 -0.5252124 -0.8348283 
-0.40848622 -0.51030165 -0.75679004 
0.046441462 0.10372744 -0.9935209 
0.11085109 -0.91857094 -0.3793937 
-0.5341377 0.046448935 -0.8441206 
0.5257176 -0.35143083 -0.77467245 
0.5616767 -0.42030612 -0.7126445 
0.9793571 0.1474611 0.13825634 
0.94881386 -0.056404874 -0.3107586 
0.4432618 0.80311877 -0.398145 
0.9904504 0.02633386 -0.13533129 
0.39436734 0.54097563 0.7428457 
0.44604957 0.49252814 0.7472991 
0.5275224 0.42685962 0.7345142 
-0.10666575 0.67740744 0.7278335 
-0.26172876 -0.06722752 0.9627973 
-0.50959474 0.4092036 0.7568789 
-0.30962083 0.07623049 0.9477995 
-0.4009976 -0.010063456 0.9160238 
-0.18092126 -0.31880796 0.93039185 
-0.35630155 -0.4906695 0.79516846 
-0.39547145 -0.812341 0.4286076 
-0.36890116 -0.8576969 -0.35814512 
-0.5869468 -0.809625 -0.0009366949 
-0.8966722 -0.37385717 -0.2370864 
-0.54435176 -0.8350467 -0.07986398 
-0.15370221 -0.9553704 -0.25227603 
-0.49624172 -0.6021378 -0.6254392 
-0.77954125 -0.4696666 -0.41440153 
-0.32277015 -0.9267677 0.19214863 
-0.44720778 -0.89092785 0.07907468 
-0.33413476 -0.90112257 -0.2762828 
0.28595775 -0.88226277 -0.3739526 
0.53617275 -0.14000078 -0.8324174 
0.2642107 -0.34923813 -0.89901364 
-0.031156687 -0.14070155 -0.98956174 
0.5250344 -0.8130879 -0.25144958 
0.5504634 -0.16934158 -0.8175045 
0.044690363 -0.94881797 -0.31264552 
0.42617646 -0.53639984 0.72845656 
0.32489032 -0.43694422 0.8387647 
0.5422758 -0.6260066 0.560404 
0.53061426 -0.48329002 0.69633275 
0.5135004 -0.01757953 0.8579093 
0.4771783 0.3184593 0.8190754 
0.061563637 0.36063913 0.93067145 
-0.7803925 0.1312289 0.6113646 
-0.8478656 0.5302082 -0.0018222275 
-0.66513246 0.52277815 -0.5331996 
-0.44029585 -0.3411386 -0.83052045 
-0.31025466 -0.019984743 -0.95044345 
0.09572704 -0.5221571 -0.84746 
0.30753523 -0.07039578 -0.94892925 
-0.22551815 -0.49602458 -0.83851135 
0.113279775 -0.08768513 -0.98968637 
0.1311673 -0.46305576 -0.87656987 
-0.18622619 0.1467408 -0.971487 
-0.47030625 -0.75146943 -0.46271548 
-0.31723207 -0.7053729 -0.6338872 
0.47829467 -0.55445707 -0.6810371 
-0.13842744 -0.752244 -0.64417934 
-0.056859467 -0.3619276 -0.9304706 
-0.21552172 -0.84555566 -0.4884529 
0.101993255 -0.7099468 -0.69683063 
-0.36327454 -0.80344546 -0.47170663 
-0.13836572 -0.98034674 0.14062433 
0.030878553 -0.7772235 -0.6284666 
0.8621245 -0.16155715 -0.48025072 
0.34971175 -0.4221096 -0.8363762 
0.623905 -0.64202696 -0.44558284 
0.60798967 -0.1007224 -0.78753 
0.17772257 -0.56830156 -0.80339783 
0.47773927 0.43460208 -0.76346993 
0.35814106 0.32926077 -0.87368315 
0.48272878 0.07679324 -0.8723965 
0.88634175 -0.42352876 -0.18714148 
0.9660309 -0.21678974 0.1406652 
0.49528572 -0.78724617 -0.36733595 
0.8106241 -0.57787 -0.09462943 
0.9751794 0.2210022 -0.013535355 
0.9911207 0.11304013 0.07001213 
-0.028488059 -0.67720455 0.7352432 
-0.10063734 -0.9862332 0.13121095 
-0.06378517 -0.9054682 0.4195935 
-0.14116047 -0.9885852 -0.052659873 
0.46600693 -0.8702044 0.15994349 
0.10754369 -0.8428988 -0.52721536 
-0.669776 -0.671191 -0.317652 
-0.026723936 -0.636188 -0.77107114 
-0.48610875 -0.005536744 -0.87388074 
-0.740789 -0.25722343 -0.6205383 
0.11756404 -0.2276038 -0.9666309 
0.011926731 0.10826043 -0.9940511 
-0.055350594 -0.44997898 -0.89132226 
-0.32654443 0.1004537 -0.93982863 
0.47890937 -0.30496436 -0.82319057 
-0.14366697 -0.14291286 -0.9792527 
0.7735478 -0.032190952 -0.6329198 
0.7495463 0.6302674 -0.20234504 
0.7140373 0.42546123 0.55599785 
0.6620705 0.6467933 0.37857786 
0.57416284 -0.10725434 0.8116857 
0.37616023 0.31289735 0.8721231 
0.023779046 0.10082491 0.99462 
-0.120266646 -0.015813712 0.9926157 
-0.19159932 -0.7560893 0.6257944 
-0.06950089 -0.7039671 0.70682395 
-0.22758685 -0.81440353 -0.53380805 
-0.045495354 -0.9988832 0.012753254 
-0.2717376 -0.95323503 -0.13229367 
0.08042479 -0.9806792 0.17832598 
0.40868756 -0.3941204 -0.8231911 
-0.57997257 -0.6875675 -0.4369015 
-0.20786814 -0.6824942 -0.7007087 
0.17418654 -0.0009259448 -0.98471224 
-0.022450885 -0.39622846 -0.9178775 
0.648996 -0.31724042 -0.6914932 
0.2837651 -0.9263889 -0.24754989 
-0.015894016 -0.44066438 -0.8975312 
0.27403226 -0.43108526 -0.8596929 
0.7351668 -0.08905844 -0.6720107 
0.93616605 0.055490572 -0.34715113 
0.9838715 -0.17307056 -0.045204148 
0.4083614 -0.9104022 0.066399716 
0.041825883 -0.99760747 -0.055044685 
0.1709266 -0.9621981 -0.21203549 
0.012715032 -0.9874591 -0.15736243 
0.84967613 -0.44343427 -0.285336 
0.45782465 -0.84144974 0.2869825 
0.14889234 -0.9606658 -0.23441896 
-0.038073238 -0.9809586 -0.19044845 
0.048068784 -0.7964145 -0.60283786 
0.8145807 -0.49967003 0.29459858 
0.7366738 -0.64810514 0.19305849 
0.096687056 -0.28114855 0.9547812 
-0.30405405 -0.26666093 0.9145727 
-0.49615222 -0.4946174 0.7135732 
-0.6015132 -0.5209613 0.6056247 
-0.06959603 -0.51336193 0.8553455 
0.12574501 -0.83615637 -0.5338828 
-0.7098206 -0.6914249 0.13448548 
-0.5928439 -0.70425403 0.39059255 
-0.3823575 0.21324256 0.899072 
-0.17491119 -0.44196412 0.8798147 
-0.00568467 -0.5028296 0.86436695 
0.50812685 -0.84993464 0.13935 
-0.44924277 -0.7236608 0.52392364 
-0.78942305 -0.57108045 0.225119 
-0.80303675 -0.06930996 -0.5918853 
-0.003849073 -0.7902764 -0.61273843 
-0.56563306 -0.82220817 -0.06350603 
-0.1056807 -0.8947333 -0.4339169 
0.6521801 -0.08557865 -0.75321805 
0.9779391 -0.18668249 -0.09372735 
0.7245728 0.24073811 0.64578605 
0.87327415 0.45940176 0.16230386 
0.16083734 -0.6960726 0.69972456 
0.38720825 -0.43432948 0.81328213 
0.2052327 -0.69834805 0.6857037 
0.1604897 -0.4939407 0.8545558 
-0.21763444 -0.4839622 0.8475942 
-0.86370695 -0.49939767 -0.06791517 
-0.7980754 0.14552467 -0.5847207 
-0.4262158 -0.23191433 -0.8743888 
-0.7507793 -0.52786064 -0.3971067 
-0.483507 -0.85008395 -0.20875429 
-0.41232395 -0.8236388 -0.38936874 
-0.1718376 -0.32343447 -0.93051714 
0.37428313 -0.7127962 -0.59315574 
0.6396554 -0.5396521 -0.54737246 
0.5931744 0.055291694 -0.803173 
0.9613866 0.15581839 -0.22684048 
0.96444905 -0.018387603 -0.2636284 
0.7734208 -0.21038981 0.59796035 
0.77113336 -0.00323789 0.6366655 
0.07617874 0.37288806 0.92474395 
0.5405175 0.24666464 0.80436146 
-0.5177001 0.75648874 0.39963913 
-0.22189298 0.8593219 0.46079227 
-0.38599125 0.40991 0.82642883 
-0.44374877 0.84763634 0.2908605 
-0.1693356 0.6389895 0.75034523 
-0.343082 0.9387527 0.032219477 
-0.9962517 0.079742506 0.03352187 
-0.9281463 0.157957 -0.3370373 
-0.9551699 -0.0054911748 -0.29600748 
-0.6700392 -0.22855246 -0.7062658 
-0.27135673 -0.32047567 -0.90755767 
0.045741167 -0.66057307 -0.74936706 
-0.8158605 -0.34148315 -0.46664873 
0.1734548 -0.4035177 -0.8983801 
-0.084941536 -0.22896428 -0.96972173 
0.3441352 0.83421034 -0.43088764 
0.80206525 0.26227587 -0.5365657 
0.8815733 0.29552284 -0.36809626 
0.9816426 0.03694411 -0.18711782 
0.7873044 -0.2145606 -0.57802725 
0.8663889 -0.26386932 -0.42396128 
0.7926384 0.60192627 0.097000964 
0.73866755 0.6216826 0.26053983 
0.74670833 0.19409356 0.63620317 
0.8744764 0.293068 0.3865258 
0.13576914 -0.4197659 0.89742035 
-0.18287198 0.22484952 0.9570792 
-0.15493695 -0.43903112 0.88501203 
0.44260743 0.17349583 0.87977153 
0.050426967 -0.5759515 0.8159271 
-0.16605812 -0.44420415 0.8804019 
-0.25477722 -0.63997775 0.72492564 
-0.8476109 -0.40341565 -0.34469083 
-0.74700993 -0.5067889 -0.4302805 
-0.55148935 -0.020682631 -0.83392555 
-0.07203693 -0.051603947 -0.9960662 
0.26336986 -0.76485753 -0.58790267 
0.031428717 -0.6888746 -0.72419894 
-0.06702409 -0.98144233 -0.17966303 
0.26049808 -0.6881168 0.6772267 
0.16505036 -0.96668035 0.19567227 
0.13653477 -0.9841745 0.112955004 
0.65027684 -0.6057835 0.45843914 
0.016973728 -0.56079197 0.8277828 
-0.42470592 -0.35686618 0.83202845 
-0.20456764 -0.5447956 0.81323415 
-0.7813353 -0.41867775 0.4628434 
-0.019220361 -0.9404017 0.33952215 
0.0038336492 -0.6185724 -0.78571844 
0.1672834 -0.65849364 -0.7337591 
0.31630427 -0.7873238 -0.5292193 
0.37612385 -0.91508746 -0.14541662 
0.31455898 -0.8736284 -0.3712495 
0.57347095 -0.45938456 -0.6783045 
0.9285535 -0.093013376 -0.35935637 
0.09093555 -0.38536975 -0.91827065 
-0.18449162 -0.92515266 -0.33174607 
-0.7901957 -0.61109364 -0.046425443 
-0.5201624 -0.6169011 -0.59064716 
-0.018692972 -0.54874486 -0.8357809 
0.44394836 -0.8450419 -0.2980171 
0.043517835 -0.84951335 -0.5257692 
0.28859976 -0.8450732 -0.45006835 
0.42806062 -0.761617 0.48652202 
-0.0071581346 -0.996928 0.07799689 
0.332306 -0.4851209 0.8088451 
0.12300384 -0.46925026 0.87445664 
0.11732863 -0.22701822 0.9667971 
0.25113305 -0.2122016 0.94440603 
0.65503895 -0.2703696 0.70556664 
-0.04256627 -0.7863336 0.61633396 
0.32199076 -0.5133776 0.7954655 
0.3445226 -0.7973126 0.49557742 
-0.33162162 -0.9357088 0.1203174 
-0.6390283 -0.57279265 0.51337266 
-0.3652191 -0.90593106 -0.21425249 
-0.59160984 -0.7557449 -0.28079814 
0.11340322 -0.9062358 -0.40727925 
0.62619615 -0.5454808 -0.557072 
0.10017028 -0.937431 -0.33345026 
-0.4859264 -0.67563665 -0.5544282 
0.46845508 -0.7888707 -0.39778483 
-0.17705522 -0.8710192 -0.4582324 
0.4076189 -0.49130988 -0.76971513 
0.77472246 0.0014451934 -0.6322999 
0.71861047 0.097264774 -0.6885773 
0.9775021 -0.21090049 0.0032682854 
0.8633594 0.50440574 0.013617146 
0.5045306 0.85205793 -0.13945037 
0.72796583 0.15096101 0.6687874 
-0.03232744 0.25519603 0.9663488 
0.5238157 -0.17251484 0.8341797 
0.24600342 0.661551 0.70840144 
0.021350274 0.5966027 0.8022527 
0.23915464 -0.22676231 0.9441314 
-0.5488671 -0.24380538 0.79956484 
-0.31605354 0.54651487 0.77552027 
-0.6757874 0.30722913 0.6700163 
-0.8157545 -0.111558944 0.5675381 
-0.90815455 -0.30003485 0.29194933 
-0.4734426 -0.8160162 -0.3316169 
-0.39669877 -0.7681576 -0.50255746 
-0.8691424 -0.46098655 0.17911683 
-0.42729533 -0.7889059 0.44164023 
-0.88182294 -0.46035138 -0.10229761 
-0.4161398 -0.49926355 -0.759976 
-0.9057099 -0.36695135 -0.21221761 
-0.79820246 -0.5992605 -0.061317243 
0.01323517 -0.9515905 -0.30708393 
-0.17413849 -0.7484295 -0.6399446 
-0.02950966 -0.3279499 -0.9442342 
0.32812452 -0.3660546 -0.87082624 
0.586467 0.12535816 -0.80021363 
0.87005687 -7.635719e-05 -0.49295127 
0.7941757 0.16737129 -0.5841848 
0.793404 -0.5199521 -0.31648043 
0.7953623 -0.2962497 -0.5288053 
0.7462247 -0.54493093 -0.38235977 
0.4054244 -0.8665953 0.2909358 
0.6601476 -0.5949472 0.45852262 
0.55217963 -0.8277622 0.09953687 
0.68406904 -0.68509984 -0.25037542 
0.5830161 -0.10748343 0.8053195 
-0.612925 0.150091 0.775755 
-0.5366302 0.7619358 0.3626042 
-0.8464834 0.20157759 0.49278018 
-0.58940417 0.5703281 0.5721265 
-0.73947275 0.3909067 0.548062 
-0.80357033 0.49383432 -0.33226854 
-0.3669337 0.3326263 -0.86874586 
-0.45682296 -0.50930876 -0.72932667 
-0.105958566 0.4441233 -0.88967824 
0.4747491 0.37070647 -0.7982418 
0.5152158 0.4278316 -0.7426392 
0.33763337 0.41200322 -0.8463198 
0.27891573 -0.22451966 -0.9337007 
0.37210566 -0.35963234 -0.85568804 
0.21656491 -0.18395239 -0.95878106 
0.31398675 -0.13598236 -0.9396389 
0.26089597 0.10012004 -0.96016115 
-0.0928457 0.86005646 -0.5016797 
-0.47382364 -0.1550564 -0.8668615 
-0.7537546 0.043085225 -0.65574205 
-0.74843633 -0.4592493 -0.47846967 
-0.13954945 -0.47701135 -0.86774784 
0.33773357 -0.19104712 -0.92164916 
0.42438856 -0.5203754 -0.7410155 
0.45393175 -0.23898411 -0.8583895 
0.4736528 -0.12226164 -0.8721842 
0.6200601 -0.33284485 -0.7104505 
-0.34873092 -0.53772306 -0.76762015 
-0.44169044 -0.57593906 -0.6878981 
-0.09604278 0.22491425 -0.9696337 
-0.38096035 0.13888285 -0.91410106 
0.48072478 -0.8457805 -0.2314283 
0.43999243 -0.83549374 0.32917643 
0.6358896 -0.7068371 0.3098804 
0.78275704 -0.5115709 -0.35438216 
0.63968694 -0.07803824 -0.7646637 
0.8965885 -0.15410016 -0.41518933 
0.23103914 -0.86873436 0.43808866 
0.36276868 -0.9022458 -0.2331338 
0.17655556 -0.9824629 0.059957556 
-0.38422358 -0.8805843 -0.27738723 
0.091655724 -0.9277692 -0.3617231 
0.33428305 -0.37309098 -0.8654814 
-0.19589119 -0.7166606 -0.66934615 
-0.256717 -0.9277089 -0.27102128 
-0.8574698 -0.5141795 -0.01910949 
-0.7691294 -0.32893756 -0.5479416 
-0.40253124 -0.30869222 -0.86178756 
-0.078135625 -0.05158335 -0.9956074 
0.16922529 -0.10552965 -0.9799114 
0.18436001 -0.21500629 -0.9590536 
0.3826504 -0.27607742 -0.88168013 
0.55110234 -0.28671393 -0.7836334 
0.57765865 -0.5233997 -0.62638915 
0.45910633 -0.3401796 -0.82067007 
0.87624264 0.15019661 -0.45786446 
0.52721214 -0.75753766 0.38494676 
0.11956242 -0.5656649 0.81592166 
-0.51220113 -0.046957556 0.8575809 
0.15589964 -0.48308152 0.86158437 
-0.4742757 -0.10006355 0.8746714 
0.034249805 -0.862953 0.50412214 
-0.25722197 -0.86611086 0.42858937 
-0.6511017 -0.75666064 -0.059424505 
-0.5906595 -0.6643847 -0.45794576 
-0.018027801 -0.8953428 -0.44501278 
0.2108794 -0.5168741 -0.82968134 
0.5576583 -0.13595358 -0.8188614 
0.35481516 -0.16087542 -0.92099154 
-0.22977729 -0.54205126 -0.808321 
-0.397506 -0.22152422 -0.8904583 
0.2581396 -0.26194513 -0.9299187 
0.14032611 -0.5432624 -0.8277528 
0.33844593 -0.6060311 -0.7198477 
0.3794396 -0.42829764 -0.82011396 
0.596422 0.18412693 -0.781267 
0.92531544 0.3790867 -0.009209558 
0.9314411 -0.32565457 -0.16237818 
0.7384448 -0.35794494 -0.57146716 
0.85820645 -0.33164957 -0.39177844 
0.58212847 0.38039282 -0.71862906 
-0.27738664 -0.9165566 -0.28806382 
0.5507446 -0.7838078 -0.28692478 
0.7437601 -0.56560487 -0.35624728 
0.8400936 -0.5273159 0.12720317 
0.42931843 -0.8595628 -0.27719596 
-0.19506381 -0.63370895 -0.7485741 
0.8250065 -0.4470929 -0.34564772 
0.9687264 0.043191142 0.24434385 
0.9587107 -0.14702189 0.24343061 
0.6032821 -0.512447 0.61110467 
0.31410512 -0.2796332 0.9072725 
-0.66524965 -0.39152855 0.63572663 
-0.761698 -0.61697847 0.19787315 
-0.74170244 -0.5823865 0.33272132 
-0.70456666 -0.6961438 -0.1377305 
-0.8751497 -0.23776256 -0.42140475 
-0.4826191 -0.8742695 -0.05226757 
0.27567378 -0.9349793 0.22319888 
-0.04676215 -0.2636323 0.9634892 
0.24572635 -0.9669179 -0.06847275 
0.06828135 -0.9319788 0.3560242 
0.3330601 -0.88238204 -0.33237484 
0.15987968 -0.9871328 -0.0027357494 
-0.32401133 -0.12690246 -0.9375033 
-0.21711336 -0.6386646 -0.73822045 
-0.016746527 -0.5518201 -0.83379513 
0.12318908 0.10448918 -0.9868671 
0.4350948 -0.14978282 -0.8878388 
0.95291394 0.2917358 -0.08273716 
0.47398734 0.030033907 0.88001937 
0.9536916 -0.032475542 0.29902813 
0.45559537 -0.22344227 0.8616882 
0.57895046 -0.44682878 0.6820268 
0.16140556 -0.39892313 0.90266746 
0.019145401 -0.9962571 0.08429204 
-0.3918151 -0.82273924 0.41180235 
-0.76703775 -0.5218011 0.37333202 
-0.55512947 -0.37875155 -0.7405259 
-0.04486373 -0.6078501 -0.79278344 
-0.41812646 -0.2877114 -0.8616219 
-0.8461229 -0.50337064 -0.17519747 
-0.84394664 -0.29873168 -0.44554856 
-0.52760863 0.055908002 -0.8476458 
0.19750586 -0.19633502 -0.96043944 
0.05319065 -0.21469215 -0.9752323 
0.22344957 0.1897474 -0.95606816 
0.8361228 0.21717212 -0.5037212 
0.87863916 0.12085526 -0.46193847 
0.9415657 -0.1799984 0.28470093 
0.5863301 0.3418663 0.7344008 
0.58783287 -0.05743634 0.806941 
0.76639307 0.09548576 0.6352356 
-0.2510871 0.20407623 0.9462073 
0.006334353 0.57347476 0.8191987 
-0.39901105 0.4205405 0.8148227 
-0.28744268 0.95633024 0.0530018 
-0.57423866 0.7375548 0.355335 
-0.8033067 0.3119677 0.50732106 
-0.16437308 0.6311389 0.7580535 
-0.96626496 0.20856187 0.15110932 
-0.6253663 -0.32291016 -0.71038455 
-0.5040766 -0.580563 -0.6394165 
-0.6841823 -0.4832434 -0.546233 
-0.119484924 -0.60377645 -0.7881481 
-0.21656743 -0.4354896 -0.87375474 
-0.0031920553 -0.24858601 -0.9686046 
-0.0998826 0.51000834 -0.8543506 
0.7158436 0.5515381 0.4282215 
0.9013129 -0.2966681 0.31563145 
0.9937868 0.104162194 -0.039219305 
0.97894883 -0.16839635 0.11533406 
0.5471782 0.17391181 0.8187495 
0.56673974 0.05919676 0.8217675 
0.79877716 0.26019084 0.54245365 
0.97431713 -0.1887361 0.122820295 
0.76977396 0.26145035 0.5823159 
-0.3102138 -0.38637182 0.8686105 
0.3260892 -0.5737177 0.7513414 
-0.22833598 -0.5112815 0.8285252 
-0.1602956 -0.75866187 0.6314567 
0.08831588 -0.9233417 0.37368494 
0.3970235 -0.4563072 0.7963391 
-0.47599295 -0.4388673 0.76211965 
-0.20182946 -0.1595179 0.96634305 
-0.9611286 -0.2691578 0.061529417 
-0.7338732 -0.61339074 -0.29185954 
-0.93674695 -0.10596543 -0.33358133 
-0.3172199 -0.7817973 -0.5368097 
-0.05956965 -0.65461695 -0.75361013 
-0.08248795 -0.43675643 -0.89578986 
-0.4748861 -0.8800381 -0.004029765 
-0.04229788 -0.99598795 -0.07886032 
0.12851848 -0.98768234 -0.08925618 
-0.11335397 -0.9885822 0.09927825 
-0.2298681 -0.7314285 0.64200705 
-0.5949328 -0.45399094 0.66328514 
-0.64041275 -0.5767196 0.50721407 
-0.9056511 -0.42280942 -0.032066714 
-0.77889794 -0.5358871 0.32579625 
-0.68974143 -0.6366966 0.34478146 
-0.087254174 -0.4756927 -0.87527317 
-0.36454168 -0.5773513 -0.730599 
0.09368791 -0.7663167 -0.6355953 
-0.103313595 -0.39568216 -0.912558 
0.20600186 -0.38290328 -0.9005268 
0.51729 -0.37337768 -0.770065 
0.6448311 -0.25686654 -0.71986973 
-0.1568234 -0.5153858 -0.84248674 
0.15230764 -0.3179573 -0.9357915 
-0.4218668 -0.20678042 -0.88276297 
-0.22511876 -0.1475245 -0.9630982 
-0.18115094 0.4088436 -0.89444464 
0.45964465 0.05052754 -0.8866645 
0.6070928 -0.76763654 -0.2053591 
0.9183116 -0.344049 0.19579116 
0.3555129 -0.8136557 0.459973 
0.07432186 -0.90476656 0.41937318 
-0.25898015 -0.8054632 -0.53306514 
0.21667522 -0.5721446 -0.7910135 
0.9893208 -0.06423392 0.1308369 
0.21284701 -0.8347392 0.50784504 
0.4592511 -0.53051424 0.71249074 
0.77570593 -0.60308975 0.18591148 
0.3716736 -0.8429792 0.38890225 
-0.33291742 -0.9279271 0.16768228 
-0.60283875 -0.7965367 -0.045985933 
-0.6624474 -0.6948378 0.27993563 
-0.72398186 -0.5129168 0.4612665 
-0.81460714 -0.02327736 -0.57954586 
-0.41604143 0.1353149 -0.89922166 
-0.2682404 -0.40013695 -0.8763205 
-0.002740367 -0.96291345 -0.26979676 
-0.05709271 -0.9932322 -0.10114503 
0.31750882 -0.76653934 -0.5582166 
0.4806881 -0.8482861 -0.22214787 
0.62276024 -0.25634655 -0.7392267 
0.93999416 -0.2905482 0.17886545 
0.84357697 0.3343669 -0.42021048 
0.8178432 0.5480288 0.17549093 
0.78683054 0.6081759 0.10497551 
0.7438197 0.38461152 -0.5466319 
0.88862103 0.3733242 0.26642424 
0.7794571 -0.0016264466 0.6264535 
0.46374902 -0.4185078 0.78088933 
0.3460509 -0.29842475 0.8894894 
0.17153075 0.22631228 0.9588327 
-0.20456441 -0.28623438 0.936068 
-0.20103808 -0.4382753 0.87606984 
-0.64215547 -0.035362527 0.76575845 
-0.7305045 -0.49814254 0.46713728 
-0.31008548 -0.04334855 0.9497199 
-0.93390155 -0.3460533 0.0898615 
-0.5594548 -0.6848415 -0.46690732 
0.049291316 -0.92961854 -0.36521217 
-0.78342927 -0.5543617 0.28093013 
-0.5433359 -0.7491296 0.37893406 
-0.67518014 -0.50069124 -0.54170114 
-0.49725816 0.009533976 -0.8675503 
-0.7004107 -0.06531655 -0.7107451 
-0.62655395 -0.60411763 -0.49241468 
0.07022621 -0.15060678 -0.98609626 
-0.45125243 0.48503548 -0.749074 
0.06874444 0.42489672 -0.9026278 
0.6006975 -0.0626358 -0.79701906 
0.64649814 -0.17487004 -0.742604 
0.9805988 -0.12207126 -0.15337782 
0.6623452 0.3295272 -0.67283785 
0.4112774 -0.3220948 -0.852705 
0.71454453 0.22455281 -0.66257244 
0.62398356 -0.45023084 -0.6386993 
0.7765719 -0.4886037 0.39774695 
0.56121886 -0.569402 0.60067874 
0.49341762 -0.86439574 0.09674298 
0.84202474 -0.53894675 -0.023037016 
0.78200054 -0.13373181 0.6087619 
-0.013544529 -0.07556414 0.997049 
0.42915997 0.14123403 0.8921182 
-0.56468743 0.22434127 0.7942287 
-0.35609445 0.48641318 0.7978715 
-0.94213474 0.116055205 0.31450486 
-0.9253896 0.37016752 0.08142634 
-0.44107217 0.73234844 -0.5187689 
-0.5443503 0.6656575 -0.51047325 
0.20258369 0.39044136 -0.8980621 
0.92179316 0.25971928 -0.28782493 
0.40089878 0.4567557 -0.7941376 
0.08061923 0.9651777 0.24886273 
0.2041785 0.26951694 -0.9411014 