# OOMMF: rectangular mesh v1.0
# Segment count: 1
# Begin: Segment
# Begin: Header
# Desc: Time (s) :  4.4200000000000044e-07
# Title: m
# meshtype: rectangular
# meshunit: m
# xbase: 2e-09
# ybase: 2e-09
# zbase: 5e-10
# xstepsize: 4e-09
# ystepsize: 4e-09
# zstepsize: 1e-09
# xmin: 0
# ymin: 0
# zmin: 0
# xmax: 1.024e-06
# ymax: 1.024e-06
# zmax: 1e-09
# xnodes: 256
# ynodes: 256
# znodes: 1
# ValueRangeMinMag: 1e-08
# ValueRangeMaxMag: 1
# valueunit: 
# valuemultiplier: 1
# End: Header
# Begin: Data Text
-0.84423995 -0.53443205 -0.040512457 
-0.30021104 -0.91731024 -0.2615633 
-0.7238387 -0.4514848 -0.5217463 
-0.7021126 0.09675361 -0.7054621 
-0.45327544 -0.36832902 -0.81171125 
0.51363075 -0.50324327 -0.69493145 
0.37467647 -0.883672 -0.28060892 
-0.7931993 -0.60535973 0.06614087 
-0.35449454 -0.9331402 0.05985848 
-0.7636104 -0.469943 -0.44277847 
-0.33583623 -0.21245618 -0.91764724 
0.39593348 0.16711146 -0.9029454 
-0.33151668 -0.1971325 -0.92262423 
-0.09113367 -0.59592056 -0.79785556 
0.11385737 0.98690975 0.114218265 
-0.9162142 0.3817308 0.12179159 
-0.41660285 0.8773317 -0.2381836 
0.0926046 0.76771635 -0.6340632 
0.26832092 0.43772358 0.8581387 
-0.28470144 0.45290363 0.84488076 
-0.5870503 0.030428583 0.8089785 
-0.94061273 -0.05810468 -0.33447215 
-0.078407265 -0.19579919 -0.97750443 
0.3603412 0.18559714 -0.9141707 
0.07920401 -0.24056448 -0.9673963 
-0.76104623 -0.5037412 -0.40872175 
0.008115225 -0.78188217 -0.6233735 
0.7521796 -0.45076025 -0.48066735 
0.78532225 0.04695669 -0.6173039 
0.8850821 -0.42931208 -0.17977993 
0.9401748 -0.29215434 0.1752633 
0.8343282 -0.325228 0.44511047 
0.52355635 -0.85133153 -0.033516444 
0.1839673 -0.44070572 0.87859803 
0.22873372 -0.80658305 0.5450731 
0.2047402 -0.21049938 0.95591396 
0.41537613 -0.40804863 0.8129939 
-0.23508956 -0.6657207 0.7082012 
-0.97153366 0.02491728 0.23558739 
-0.64687824 0.7052175 0.2902016 
0.1763384 0.31271484 0.933335 
-0.5443254 0.8297886 -0.123128764 
0.27713647 0.9345848 0.2230399 
0.13687985 0.7579359 0.6378064 
-0.024186313 0.8143206 0.5799112 
-0.928815 -0.089417085 0.35959318 
-0.6967208 -0.68482864 -0.21351801 
-0.37784097 -0.8909354 -0.251933 
-0.8354445 -0.41764018 -0.35722435 
-0.8156357 -0.006890203 -0.578525 
0.052087706 -0.15345925 -0.98678124 
0.9078648 0.18626636 -0.37561458 
0.55022925 -0.12907079 -0.82497793 
0.84732443 -0.53092813 0.012518584 
0.93360937 -0.30475628 0.18840666 
0.61587113 0.6054064 0.5041686 
0.34190106 0.57235634 0.7453267 
-0.37055248 0.42685184 0.8249172 
-0.9737606 0.026196208 -0.22606234 
-0.7104425 -0.04633686 0.70222825 
-0.6951528 -0.34204212 0.63227355 
-0.9745687 0.11434325 0.19272159 
-0.9499374 0.30245346 0.07836356 
-0.6293639 -0.72838235 -0.27085102 
-0.4465627 -0.53411406 -0.7178468 
-0.65531796 -0.75529015 -0.009762068 
-0.10115736 -0.98099226 0.16559426 
-0.6914899 -0.7051523 -0.15685052 
-0.4174857 -0.73341125 -0.5364828 
-0.568344 -0.5274487 -0.6314927 
0.123717435 -0.92490345 -0.35951024 
0.1128026 -0.18021448 -0.9771379 
0.47293004 0.39613318 -0.78702974 
0.11592354 0.8043654 -0.5827161 
-0.43564877 0.31765312 -0.84220344 
-0.12908277 -0.52103746 -0.84371656 
-0.58808166 -0.11999827 -0.7998502 
-0.542775 -0.39163417 -0.74297917 
-0.08607837 -0.08467805 -0.99268335 
0.012299694 -0.2533398 -0.96729916 
0.5032924 -0.2446585 -0.8287576 
-0.09028154 0.61353296 -0.78449124 
-0.7534005 0.5934764 -0.28314927 
-0.09483166 -0.31064394 -0.945784 
0.2946472 0.4579272 -0.83874065 
0.8044446 -0.18881476 -0.563221 
0.828791 -0.5585838 0.033011626 
0.8954444 -0.23920122 0.37544927 
0.34069365 0.27595356 0.89876443 
0.9362429 0.07345072 0.34359047 
0.7892091 0.5724595 0.22234896 
0.3893093 0.86704886 0.31090927 
0.20680466 0.9360075 0.284819 
0.09674783 0.6519225 0.75208837 
-0.7016135 0.047382902 0.7109806 
-0.47314775 0.26110032 0.8414023 
0.36165267 0.4190972 0.83280545 
-0.09879294 0.8258243 0.55520654 
-0.54269063 0.47381458 0.693532 
-0.89326733 0.23170875 -0.38520706 
-0.9964135 0.050944626 0.067563705 
-0.9323024 -0.289332 -0.21702379 
-0.7077046 -0.30943105 -0.6351431 
-0.043171894 -0.32479092 -0.9448001 
0.46971902 -0.4104444 -0.7816007 
0.6331692 -0.31383672 -0.7075333 
0.89179313 -0.17940441 -0.41535425 
0.15040535 -0.102925085 -0.9832521 
0.7557944 -0.05091503 -0.65282655 
0.74088454 -0.2538205 -0.6218242 
0.2259122 -0.8801261 -0.41754264 
0.80961615 0.15061858 0.56730574 
0.33551478 0.79460555 0.505996 
0.10388566 0.08001153 0.99136573 
-0.3782125 0.77657765 -0.5038677 
-0.04995169 0.9092113 0.4133277 
0.3581003 0.712367 0.60357064 
-0.35150906 0.3823054 0.8545666 
-0.71093166 0.3905452 0.584851 
0.08375807 -0.18008752 0.98007816 
0.12433624 -0.33661228 0.9333985 
-0.2556583 0.64015543 0.72445834 
-0.5362158 0.60718507 0.58634377 
-0.22834666 -0.42341998 0.87668324 
-0.43042535 -0.9026049 -0.00620384 
-0.6739415 -0.73448414 0.07959938 
-0.5877065 -0.7362511 -0.33546287 
-0.12641086 -0.5663455 -0.8144159 
0.44127598 -0.36640334 -0.8191607 
0.9837641 -0.1755812 0.037143156 
0.5650937 -0.5538307 0.61150694 
0.23563367 -0.7260715 0.64598536 
-0.40489858 -0.30894476 0.8605872 
-0.76689506 -0.05834946 0.63911444 
-0.33936614 -0.017577847 0.9404901 
0.3392972 -0.9151865 0.21751113 
0.38728058 -0.8375433 0.38540238 
0.37190035 -0.56283414 0.7381788 
-0.10899717 -0.42264396 0.89971757 
0.031525068 -0.012894437 0.99941987 
-0.33275017 0.29806992 0.8946685 
-0.7831923 -0.51656884 0.34607285 
-0.72511536 -0.68853474 0.0113019105 
-0.94853127 -0.3082756 0.07248913 
-0.69107723 -0.603189 -0.3982153 
-0.49914318 -0.57492274 -0.6483209 
-0.26518402 0.021213865 -0.96396446 
-0.09761864 0.124635294 -0.9873888 
0.7044333 -0.29594362 -0.6451287 
0.9543497 0.054697774 -0.29364064 
0.90987253 0.0011349719 0.41488642 
0.8560476 -0.5092947 0.088326596 
0.4095589 -0.42996 0.8046091 
-0.34311047 -0.49305215 0.79948413 
0.039767534 -0.86468655 0.5007353 
-0.7256522 -0.42147174 0.54386634 
-0.8023144 -0.49115482 0.33920282 
-0.910799 -0.36216107 -0.198203 
-0.62347853 -0.22018176 -0.75019634 
0.1592753 -0.7798571 -0.60535485 
0.03738548 -0.94496137 -0.32503912 
0.47692323 -0.6301435 -0.61275065 
0.8184765 -0.5744763 0.008565277 
-0.028031522 -0.9567338 -0.28961122 
-0.7043032 -0.53377044 0.46802378 
-0.8104271 0.20576897 0.5485135 
-0.33779722 -0.67098194 0.6600578 
-0.79045975 0.1965349 0.580127 
-0.19766462 -0.39374036 0.8977178 
0.2718399 -0.5287012 -0.8041009 
0.32646808 -0.89240354 -0.31150395 
0.90388054 -0.36513376 0.22288427 
0.51158404 0.5639334 0.64827543 
0.67743456 0.43780962 0.59110516 
0.5820151 0.37792388 0.72002226 
0.821302 -0.18951158 0.5380972 
-0.9019945 -0.07559169 0.42507866 
-0.7773362 0.5891669 0.22052442 
-0.6874208 0.7259005 -0.022832608 
-0.023066374 -0.47193494 -0.88133156 
-0.6666737 -0.40994227 -0.62248975 
-0.03566364 -0.7091255 -0.7041798 
0.7836093 -0.59560215 0.17667674 
0.9647103 -0.19713959 0.17455663 
0.8911911 -0.3240745 0.31741804 
0.5973362 -0.5238459 0.6072686 
0.19058613 0.0658307 0.9794608 
0.42880595 -0.29678628 0.85325456 
-0.11558158 -0.8282518 0.54830635 
0.3538284 -0.93530333 0.003638822 
0.9876542 0.110777184 -0.110758916 
0.91389424 -0.09106194 -0.3956074 
0.5677177 -0.18343346 0.80252653 
0.44710746 -0.810978 0.37737197 
0.6256732 -0.53003335 0.5723616 
0.03938426 -0.43190348 0.9010595 
0.7499422 -0.4865149 0.44820762 
0.49527767 -0.47950205 0.72441554 
-0.34807405 -0.055246316 0.93583775 
0.06113646 0.70151603 0.7100265 
-0.40236694 0.39488235 0.8259351 
-0.33943138 0.7919109 0.50760585 
-0.762477 -0.340526 0.55015546 
-0.67831755 0.20438638 -0.7057702 
-0.2766735 0.9409678 -0.19501635 
-0.49379015 0.82425356 0.27708733 
-0.9380913 0.10686844 0.3294904 
-0.7251689 0.23765883 0.6462573 
0.3877191 -0.11407814 0.9146913 
-0.2579095 -0.78288954 0.5661862 
-0.6045262 -0.4455877 0.66030276 
-0.569504 -0.64506227 -0.50947016 
-2.6712769e-05 -0.9834334 -0.18127005 
-0.19119829 -0.71411 -0.6734168 
0.041403037 -0.8660597 -0.49822322 
0.17704068 -0.6883999 -0.7033933 
0.40076137 -0.5126731 -0.7593134 
0.016639695 -0.57827795 -0.8156702 
-0.32471532 0.5811277 -0.7462242 
-0.5112745 -0.20540111 -0.8345111 
-0.30330306 -0.036954794 -0.9521773 
0.29406455 0.6095331 -0.73620343 
0.355763 0.8764809 -0.32436696 
-0.693843 0.71781576 -0.057641402 
-0.5902202 0.6221671 -0.5143425 
-0.092328764 0.29779208 -0.95015544 
-0.9553656 -0.0068047233 -0.29534775 
-0.9096077 -0.36263156 -0.20276156 
-0.5049075 -0.3165604 -0.80303043 
-0.34665033 -0.24199344 -0.90624106 
-0.6759666 0.10010167 -0.730102 
-0.69426596 -0.71600306 -0.073036894 
-0.7099027 0.67298454 -0.20767766 
-0.18112454 -0.4866125 -0.8546357 
-0.07288503 -0.74373853 -0.6644854 
-0.14961018 -0.96755564 -0.20360012 
-0.09455016 -0.9053132 -0.41408727 
-0.1650601 -0.9824882 -0.08644129 
0.626478 -0.7452376 -0.22835569 
0.7042467 -0.6060371 -0.36980486 
0.18159124 -0.9241988 -0.335978 
0.70398575 -0.46973416 -0.5326855 
0.44402918 -0.07027587 -0.89325213 
0.99215025 0.124012664 0.01608983 
0.9174394 -0.39523712 -0.045745436 
0.7234451 -0.5175644 0.4568964 
0.11490732 -0.9591832 0.25838694 
0.1444554 -0.07719054 0.986496 
0.79964507 0.22333002 0.557397 
0.60644555 0.1403415 0.7826417 
-0.05956184 0.7360744 0.67427516 
-0.66406125 0.6370314 0.39142522 
-0.42522475 0.47953576 0.76761293 
-0.98867 0.024408245 0.14810796 
-0.7797948 0.5156798 0.35495707 
-0.75683945 -0.06439532 0.65042096 
-0.93443537 -0.3498946 -0.06636475 
-0.5886302 -0.3425301 -0.73224837 
-0.42050534 -0.21405727 -0.8816773 
-0.21137235 -0.061877057 -0.9754451 
-0.685894 -0.6882098 -0.23646729 
-0.8472029 -0.12895828 -0.51538056 
-0.574459 -0.4075473 -0.7098606 
-0.4931588 -0.70840675 -0.50493 
-0.21857849 -0.8433282 -0.49093896 
-0.3706272 -0.63055784 -0.6819328 
0.22924125 -0.43093076 -0.8727812 
-0.32056335 0.56228435 -0.76228315 
-0.4453679 0.34132692 -0.8277339 
0.2902202 0.25302845 -0.92290246 
-0.11144553 0.83273023 0.54234695 
-0.3029324 0.95297277 0.00865272 
-0.2428058 0.9664309 0.08400416 
0.07166929 0.9896977 -0.123943925 
0.5095396 0.7769781 0.3696953 
0.0148331225 0.18981415 0.98170805 
-0.40037224 0.0832217 0.91256577 
-0.50951797 -0.8555182 -0.09208646 
-0.92200345 0.35271737 -0.15968797 
-0.77103615 0.2045437 -0.6030466 
-0.49990115 -0.4366675 -0.7479442 
-0.17740256 -0.6773427 -0.7139574 
-0.16712 -0.7539731 -0.63529164 
0.754576 -0.6089411 -0.2445523 
0.9422513 0.030200165 -0.33354232 
0.952047 0.26207694 -0.15786758 
0.9367927 0.087124206 0.33886433 
0.7254307 0.15997401 0.66944647 
0.11396841 -0.90044546 0.41977268 
0.0551659 -0.9061008 0.4194497 
0.21083184 -0.9614152 0.17672206 
0.58372325 -0.8116729 0.021314623 
0.6037883 -0.68725026 0.40388966 
0.6478876 -0.20659278 0.73318565 
-0.4366848 -0.34388766 0.83129275 
-0.7637732 -0.025502712 0.64498067 
-0.43854812 0.39158607 0.8089104 
-0.48442173 0.12252547 0.86621195 
-0.4180564 0.14199047 0.8972556 
-0.684318 0.13980938 0.7156552 
-0.8865418 0.10510699 0.45055106 
-0.78295 -0.19542032 -0.59059304 
-0.6662891 0.08401321 -0.7409458 
-0.469396 -0.6739665 -0.5704706 
-0.6567641 -0.39667273 -0.64133596 
-0.51179266 0.14420359 -0.8469201 
0.060150605 0.35850477 -0.9315881 
0.8279388 -0.21628313 -0.5174351 
0.5483657 0.3651682 -0.7522946 
0.7568147 -0.32387993 0.567744 
0.69349575 -0.62524134 0.35796222 
0.4481763 -0.13041224 0.8843815 
-0.31537315 -0.5858866 0.74650973 
-0.56244314 -0.056404088 0.82490987 
-0.58560276 0.009490303 0.8105427 
-0.48553473 -0.04519318 0.8730485 
-0.46407753 -0.619139 0.6334816 
-0.7964747 -0.2712452 0.5404205 
-0.679361 0.1710917 0.71358 
-0.844297 -0.5323098 -0.0617162 
-0.7044704 -0.6676008 -0.2408957 
-0.9261591 -0.3142001 0.20858492 
-0.4343874 -0.55694187 -0.7079007 
-0.6068959 -0.71577436 -0.34546265 
-0.30403227 -0.7664374 -0.5658075 
0.0046434863 -0.9202939 -0.39120013 
0.37262768 -0.70811415 -0.5997692 
0.79262686 0.16321406 -0.5874554 
0.9969197 0.011523538 0.07757827 
0.08142991 0.663596 -0.7436462 
-0.577331 -0.044169143 -0.81531477 
-0.44572306 -0.013743775 -0.89506537 
-0.53045404 -0.6686851 -0.52103627 
-0.35359457 0.08469014 -0.931557 
0.46276593 -0.07141404 -0.8835993 
0.9572746 0.22108495 -0.18640499 
0.62190527 0.1337601 -0.77158415 
0.63793653 0.6962814 -0.32898226 
-0.07014054 0.46835253 -0.88075334 
0.17911738 -0.38682276 -0.90459126 
0.6735312 -0.090029836 -0.7336555 
0.9252368 -0.24980026 -0.28554624 
0.89548254 0.17118335 0.41086173 
0.91024226 -0.23259602 0.34257576 
0.37253025 -0.5800492 0.7244061 
0.8646397 -0.09239348 0.49382362 
0.8264994 0.31968245 0.46335942 
0.6325747 0.43857276 0.6383598 
0.012568476 0.80707616 0.5903137 
0.17897025 0.62286484 0.7615834 
0.059113912 0.7238488 0.6874217 
-0.46106204 -0.07604264 0.8841037 
-0.6815885 0.13306989 0.71953434 
-0.56415987 0.22334638 0.79488367 
-0.6257006 0.089174345 0.77494955 
-0.9092311 -0.14329548 -0.39085174 
-0.75747633 -0.1661894 -0.6313563 
-0.727675 0.3177803 -0.6078691 
-0.5463541 0.1695672 -0.8202099 
0.1816561 -0.1853414 -0.96573794 
0.57458305 -0.42736757 -0.69800526 
0.7317411 0.50053686 -0.46262065 
0.9163615 0.13612579 -0.37649903 
0.32471997 -0.40976557 -0.85243714 
0.60542214 0.24316098 -0.7578501 
0.7968532 0.60221237 0.04863571 
0.9830365 0.1463753 -0.110515036 
0.9685054 -0.15495934 0.19489726 
0.7440796 0.49583384 0.447766 
-0.46282086 0.35934672 0.8103498 
-0.1558375 0.9395981 -0.30474603 
0.088761784 0.9273345 0.3635548 
0.576939 0.62688357 0.52360135 
0.32092246 0.62343544 0.71297765 
-0.18168128 -0.059939887 0.981529 
0.25123695 0.33377838 0.908555 
-0.5253003 0.024844673 0.85055417 
-0.64463 0.03035951 0.76389176 
-0.5571114 0.16636224 0.8136034 
-0.055713475 -0.10900273 0.9924789 
-0.79994583 -0.58766264 -0.12140596 
-0.81282 -0.57299817 -0.10486549 
-0.589713 -0.7899517 -0.16797318 
-0.06944785 -0.14992727 -0.986255 
0.5668654 -0.19212322 -0.8010945 
0.80873656 -0.55792445 -0.18618679 
-0.33703464 -0.7054996 0.6234405 
0.2912453 -0.94244623 0.16422917 
0.5529376 -0.59163237 0.5867122 
-0.3101097 -0.6629302 0.6814364 
-0.3573581 -0.74553514 -0.562559 
0.025856258 -0.9810591 -0.19197567 
0.40915307 -0.81752145 0.40528083 
0.2829386 -0.8179792 0.5008551 
0.015641816 -0.8503184 0.5260363 
-0.11886429 -0.12783416 0.984647 
-0.63002706 -0.24591854 0.73660713 
-0.748653 -0.4286407 0.5057529 
-0.7382349 -0.2421491 -0.62958175 
-0.8172606 -0.33684653 0.46756777 
-0.79424787 -0.04499486 -0.6059256 
-0.1896192 -0.12151454 -0.9743094 
0.477091 0.13708965 -0.868096 
0.31859508 -0.025195302 -0.947556 
0.24984133 -0.40452114 -0.8797397 
0.8021603 -0.18401025 -0.56804854 
0.96678746 0.18075499 -0.18069226 
0.8635374 -0.48966137 -0.12056156 
0.9119137 -0.40463883 0.06841829 
0.36972937 -0.9000576 0.23064387 
-0.31267834 -0.7539252 0.5777796 
-0.3204446 -0.9191552 0.2290609 
-0.58956605 -0.746679 -0.30802992 
-0.6257707 -0.119724385 -0.770764 
-0.16296583 -0.057737354 -0.9849409 
-0.50503176 -0.47602782 -0.71995866 
-0.38779622 -0.42869186 -0.81598854 
0.6984948 -0.47771132 -0.5328198 
0.75724477 -0.51451236 -0.40231508 
0.56649894 -0.5831089 -0.5822913 
0.4312689 -0.73269826 -0.5264603 
0.062723644 -0.9810458 -0.18334429 
-0.14585866 -0.9865183 -0.07420849 
0.09399498 -0.8037608 0.58748055 
-0.16621153 -0.9857892 -0.024362281 
0.29640788 -0.89015925 -0.34606186 
0.38777062 -0.79747385 -0.46224388 
0.6395466 -0.7648758 0.0771056 
0.6324377 -0.4153022 -0.6538705 
0.6643191 -0.48033017 0.57268065 
0.6321123 -0.6979293 0.3366435 
0.6487969 -0.4594308 0.60661846 
-0.72481906 0.578515 0.3741093 
-0.7190659 0.686921 0.105280325 
-0.6946351 0.70495975 -0.14322655 
-0.16423668 0.6452732 -0.74608904 
-0.0070230346 0.53283167 -0.84619224 
0.6659557 -0.3466245 -0.66057134 
-0.06428377 -0.9037912 -0.4231184 
0.96981674 -0.23681544 0.058085795 
0.9516272 -0.10495228 0.2887745 
0.8352907 -0.54940736 -0.0210033 
0.9473672 -0.17776719 0.26625967 
0.56247365 -0.6885821 0.45768768 
0.09549786 -0.8248516 -0.5572254 
0.6958069 -0.6219873 -0.3591443 
0.7708716 -0.45461473 -0.4461867 
0.9487851 -0.30450845 -0.084151894 
0.7941024 -0.55920464 0.23810034 
0.92287743 -0.0044458536 0.3850682 
0.19335538 -0.6517075 0.7334106 
-0.09872313 -0.5158199 0.8509898 
0.5742285 -0.43752775 0.69197625 
0.83368987 -0.33956885 0.4354932 
0.43416584 0.62492484 0.64882135 
0.018702619 0.44108677 0.8972696 
-0.46203488 0.28610143 0.8394462 
-0.3178944 0.41919002 0.85042524 
-0.33014452 -0.16560458 0.92929 
-0.4431152 0.86693585 -0.22819087 
-0.39012042 0.73673207 0.5522971 
-0.7615763 0.10527312 0.63946784 
-0.7630349 0.30945793 0.5674624 
-0.057615682 -0.6713013 0.73894185 
-0.37736493 -0.85916424 0.34559014 
-0.8777499 -0.36453345 0.31091878 
-0.89422464 -0.43679616 -0.0978338 
-0.3618179 -0.77595997 -0.5166954 
-0.17654198 -0.5489681 -0.81698656 
0.4080225 -0.5243658 -0.74736756 
0.48978573 0.3068902 -0.8160444 
0.30229574 -0.012456749 -0.95313287 
-0.3116304 0.14910693 -0.93843156 
-0.25506094 -0.032451037 -0.9663803 
0.111708574 0.7078112 -0.6975131 
-0.57673085 0.6635115 -0.47658592 
0.33901608 0.6564272 -0.6739225 
0.26626435 0.9569571 -0.11548301 
-0.13579701 0.9812517 0.13676405 
-0.44137585 0.6624787 -0.605235 
-0.90954125 0.02486483 -0.4148695 
-0.58873785 0.2653419 -0.76353216 
-0.69256246 0.11519553 -0.7121007 
-0.77172756 -0.6184318 0.14825216 
-0.94984853 -0.26032034 -0.17326589 
-0.86951876 -0.3406548 -0.3576191 
0.12732898 -0.7621534 -0.6347515 
-0.51444024 -0.24938302 -0.82046294 
-0.52049863 0.41544443 -0.74598074 
-0.71524394 -0.08767999 -0.693353 
-0.5967244 -0.17062831 -0.78409576 
0.08536658 -0.67038894 -0.737083 
0.5038441 -0.5695738 -0.64940506 
0.23982011 -0.44121724 -0.8647622 
0.9999252 -0.0074012843 -0.009741634 
0.84031993 -0.33110976 -0.42921877 
0.8619791 -0.45400965 -0.22553791 
0.8030502 -0.51001924 -0.3082059 
0.90672946 -0.2425475 -0.3449818 
0.9251585 0.29301047 -0.24130177 
0.77846384 -0.62008905 -0.09738453 
0.7034696 -0.602473 0.377037 
0.3099928 -0.7739868 0.5521313 
-0.35899106 -0.53649455 0.7637402 
0.06628308 -0.47879803 0.8754193 
0.58254975 0.1546198 0.7979528 
0.26877907 0.33763394 0.9020871 
-0.46065554 0.4494578 0.7653653 
-0.23411235 0.33742815 0.911775 
-0.8103816 0.009226402 0.5858298 
-0.17079961 -0.96573484 0.19540708 
-0.8990532 -0.430387 0.08043914 
-0.7178335 -0.42158625 -0.55405784 
-0.39378977 -0.18400942 -0.90059435 
-0.38677317 0.10844456 -0.9157763 
0.017441036 0.14266832 -0.9896169 
-0.8045651 -0.3236573 -0.4979167 
-0.6091791 0.07017467 -0.7899218 
-0.30723277 0.06752539 -0.94923574 
-0.20267285 -0.34154847 -0.9177518 
-0.2442836 -0.38228616 -0.8911694 
-0.16100149 -0.33036205 -0.9300212 
-0.23134676 -0.5996717 -0.76607615 
-0.31738147 0.7798474 -0.53954333 
-0.17605387 0.110388 -0.9781715 
-0.043941848 0.30290604 -0.9520069 
0.15607168 0.94871557 0.27491885 
-0.33343047 0.88503385 0.32486802 
0.36601168 0.8599293 0.3557486 
-0.0956238 0.1661793 0.9814482 
0.043862 0.025086768 0.9987226 
-0.38136777 -0.71025175 0.5916935 
-0.5997067 -0.55904216 0.572559 
-0.58255315 -0.72226274 0.37278482 
-0.9202103 -0.38144735 -0.08781245 
-0.88952476 0.1359675 -0.43618658 
-0.64130425 0.286594 -0.71175337 
0.098988764 -0.79341483 -0.6005783 
0.21765439 -0.65006584 -0.72803915 
0.3291459 -0.28455928 -0.90038276 
0.97431886 0.21496867 0.06701729 
0.8392746 -0.11731147 -0.53090143 
0.9995972 0.013664574 -0.024877772 
0.2801146 0.021670952 0.959722 
0.629666 -0.67761385 0.37994784 
0.2844063 -0.34913704 0.89286983 
0.24966629 -0.84357566 0.475444 
0.487606 -0.8292911 -0.27297753 
0.4898038 -0.73117524 0.47484216 
0.34964946 -0.43780753 0.8282933 
0.3963252 -0.35378745 0.84720767 
-0.3312623 -0.453723 0.8272852 
-0.7657504 -0.4829957 0.4246663 
-0.62586844 -0.18831329 0.7568532 
-0.5260721 -0.1678851 0.8337043 
-0.97859234 0.12547207 0.1631372 
-0.9878958 -0.009891015 0.15480375 
-0.50235736 0.85983866 0.09118506 
-0.727168 -0.11438553 -0.6768624 
0.3458638 -0.53196526 -0.77291095 
0.15140186 0.08808788 -0.98453957 
0.70536286 -0.052799813 -0.7068773 
0.7728767 0.16309749 -0.61323816 
0.8504485 0.37547913 -0.36844656 
0.8802621 0.37523276 -0.29041183 
0.83274364 -0.22529371 -0.5057479 
0.81627935 -0.3418444 -0.46565074 
0.20145023 -0.38337627 0.9013548 
-0.23065455 -0.18114959 0.9560248 
0.4951804 -0.32337525 0.8063652 
0.008580545 -0.0013382619 0.99996233 
-0.7595331 -0.09737518 0.64313895 
-0.6595402 -0.5068437 0.55508226 
-0.9631614 0.07395369 0.2585558 
-0.32119477 0.14717688 0.93550676 
-0.8333819 0.45529035 0.31334543 
-0.6043083 -0.3750302 -0.70296794 
-0.608986 -0.70101035 -0.3711074 
-0.51024824 -0.79377663 -0.33100653 
-0.24942358 -0.70106864 -0.66804993 
-0.055497468 -0.7804981 -0.62269014 
-0.3810454 -0.56195444 -0.73417413 
0.16880532 -0.09848488 -0.9807168 
0.61041516 0.5830895 -0.536097 
0.86419624 0.49090323 -0.11035894 
-0.096953325 0.7478795 -0.65671635 
-0.06065114 0.40492317 -0.91233695 
-0.027479855 0.76690364 -0.6411737 
0.11328138 0.5662022 -0.81644505 
0.42245913 0.81202257 -0.4026759 
0.25200418 -0.12583074 -0.9595106 
-0.38168958 0.0326316 -0.92371446 
0.16840233 0.13190295 -0.9768533 
0.4349009 -0.51881325 -0.7359987 
0.48954067 -0.3000315 -0.81873757 
0.4259865 -0.33133113 -0.8418761 
0.73681295 0.19798847 -0.64645743 
0.15419532 -0.42910308 -0.8899968 
0.8716672 -0.16589846 -0.46116605 
0.9939392 -0.069284566 -0.08534929 
0.30162778 0.29997456 0.90500605 
0.47901368 0.59735996 0.6432007 
0.14195897 -0.17985508 0.9733961 
-0.15957087 0.059475623 0.9853933 
-0.24375407 0.034714762 0.96921563 
-0.15657301 0.22066024 0.9627014 
-0.76440686 0.06116497 0.64182645 
-0.78748345 -0.5009319 0.35907796 
-0.9840309 -0.17466313 -0.03429278 
-0.9560866 0.24256362 -0.16450316 
-0.69740134 0.0772696 0.7125032 
-0.86554676 -0.30888367 0.3942331 
-0.8469887 0.05902306 -0.5283241 
0.25024855 0.08449541 -0.96448755 
-0.25818112 -0.3278516 -0.90876615 
0.48696592 -0.47183183 -0.7350095 
0.6737771 -0.14111443 -0.7253353 
0.59063035 -0.19466624 -0.7831098 
0.9266557 -0.24061824 -0.28881156 
0.3520931 -0.49415928 -0.7948818 
0.47430995 0.68340945 -0.55496097 
0.80575866 -0.20047408 -0.55728203 
0.98566246 0.056482963 -0.15899411 
0.86675185 0.3835679 0.31877425 
0.67517465 0.46267238 0.5745202 
0.6037604 0.5032688 0.6182183 
-0.30156144 0.862316 0.40678242 
-0.18413606 0.72682357 0.6616808 
0.107094556 0.59489894 0.7966342 
0.59172463 0.48965144 0.64039326 
0.704234 0.42455527 0.56904066 
-0.33718953 -0.28845438 0.89615697 
-0.64345574 -0.45508704 0.61551654 
-0.5454934 -0.3693907 0.7523214 
-0.64479166 -0.4865944 0.5894656 
-0.6588568 -0.71172136 0.24364002 
-0.66631556 -0.5725321 0.4777348 
-0.4563882 -0.87086654 0.18248631 
-0.6638744 -0.40265554 0.63019 
-0.85811967 -0.28096807 -0.42975318 
-0.078773476 -0.60025835 -0.7959175 
-0.090745956 -0.74984854 -0.65535665 
0.57309043 -0.7674549 -0.2873681 
0.41584995 -0.8691008 -0.2678297 
-0.265183 -0.8192495 0.50843716 
0.16989824 -0.6788016 0.714397 
-0.35198736 -0.90643907 -0.23339495 
-0.25049192 -0.8124533 -0.5264726 
-0.2892082 -0.88901705 -0.35497504 
0.37185273 -0.88126767 -0.29170707 
0.47088945 -0.87124956 0.13851881 
-0.6249006 -0.61194235 0.48479465 
-0.59161776 -0.5865269 0.5531499 
-0.40651733 -0.7903199 0.45840833 
-0.5049062 -0.86061054 -0.06647775 
-0.8118147 -0.5525387 -0.1888327 
-0.9161815 0.081083976 -0.3924755 
-0.24828595 -0.38589847 -0.8885024 
-0.2338669 0.08990042 -0.96810347 
0.26458874 -0.033518083 -0.9637787 
0.38472688 -0.3522066 -0.8531915 
0.69565535 0.031300675 -0.71769345 
0.8971631 0.10784476 0.42833143 
0.8513634 -0.48748425 0.19375141 
0.8066018 -0.39392787 -0.44069782 
0.43642828 -0.63419676 -0.6382202 
0.058092967 -0.9299339 0.36310905 
-0.46434394 -0.49852848 -0.7320206 
0.064878464 -0.4296391 -0.900667 
-0.5028071 -0.464501 -0.72898835 
-0.31370527 0.02872419 -0.94908583 
0.043695502 0.83163095 -0.55360705 
-0.19321088 0.15043907 -0.9695554 
0.24483255 -0.21578173 -0.9452488 
-0.30992597 -0.5339598 -0.78665924 
0.482496 -0.02867196 -0.87542874 
0.79788244 0.092120916 -0.5957328 
-0.13262671 -0.94712514 0.2921716 
0.011909712 -0.9468233 -0.32153344 
-0.04586968 -0.9988088 0.016643936 
-0.0582915 -0.97192806 -0.22794317 
0.21732017 0.034972608 -0.97547376 
0.5508827 -0.016994271 -0.8344097 
0.8889159 -0.13556632 -0.43755034 
0.87783366 -0.21163186 -0.4296746 
0.6611893 -0.74999577 0.018305467 
0.38411155 -0.8235311 0.41743842 
0.4270582 -0.5008251 0.7528582 
-0.32597765 0.04482481 0.94431424 
-0.6172228 0.49105665 0.61473536 
-0.58533543 0.7290949 -0.3546872 
0.028945358 0.9985812 0.044696443 
-0.81672525 0.47438672 0.32850763 
-0.42927843 0.012562785 -0.9030848 
-0.27973932 -0.643129 -0.7128331 
0.71803224 -0.6943384 0.048207663 
-0.0058161276 -0.9113112 -0.41167727 
-0.05735421 -0.9461968 -0.31846854 
-0.01851925 -0.941158 0.33745936 
0.40150452 -0.4861062 -0.77620554 
0.11334161 -0.34774733 -0.9307124 
0.4001293 -0.10595814 -0.9103128 
0.7773649 0.20321676 -0.5953209 
0.8670924 -0.07497543 -0.49247277 
0.43829513 -0.10167607 -0.8930618 
0.9621229 -0.022746282 -0.27166554 
0.8287681 0.441135 0.3443013 
0.50590354 -0.61428404 0.60557145 
0.72968715 -0.6749278 0.10967842 
0.9781547 0.04777953 0.20231284 
0.5242756 -0.058966257 0.8495047 
-0.48736045 0.23310825 0.8415107 
-0.8195873 -0.23642434 0.52190065 
-0.5647212 -0.06148771 0.8229881 
0.59157354 -0.29138148 0.75175637 
-0.43249932 0.4241522 0.79563767 
-0.8825516 0.40504658 0.23883052 
-0.7307178 -0.521314 0.44077572 
-0.48466167 -0.44929814 0.7504894 
-0.87798584 -0.13023171 0.46063066 
-0.7139233 -0.70001286 -0.017191093 
-0.54223627 -0.72529835 0.4241724 
-0.87904096 -0.46343434 -0.1118738 
-0.2873984 -0.9189899 -0.26992568 
-0.3748321 -0.4406273 -0.815689 
0.3679058 -0.642853 -0.67185223 
-0.04531279 -0.41423458 -0.9090415 
0.111845486 -0.6807302 -0.72394544 
0.52664125 0.035854556 -0.84933126 
-0.8892059 0.39050633 -0.23836502 
-0.06740602 0.61307114 -0.787147 
0.48958513 0.7442197 -0.45436046 
0.5226356 0.5306645 -0.6672686 
0.04003625 0.89224875 -0.44976577 
0.44465965 0.8866465 0.12702686 
-0.43348736 0.89996016 0.046479832 
-0.85120636 0.38183054 -0.36007404 
-0.72844785 -0.52635217 -0.43853977 
-0.7327915 -0.12327588 -0.6691933 
-0.5643346 -0.31848195 -0.7616402 
-0.39261115 0.087210946 -0.9155603 
-0.5153074 0.00010623606 -0.8570055 
-0.16720688 0.29260492 -0.9415011 
-0.62414503 0.5673247 -0.5372018 
-0.35936597 0.8443589 -0.3973841 
-0.42840394 0.5013065 -0.7517725 
-0.5601496 -0.370163 -0.7410883 
0.33304176 -0.22923854 -0.9146218 
0.23606089 -0.4302955 -0.8712755 
0.22828402 -0.48860335 -0.8421124 
0.6501577 -0.43126327 -0.6255453 
0.84436464 -0.05354671 -0.53308654 
0.95886177 0.097878635 -0.2664657 
0.92278 -0.06425936 -0.3799317 
0.77203053 -0.18505952 -0.60804754 
0.99736047 -0.07260688 0.00067792204 
0.81581223 -0.43130514 -0.38526133 
0.68399733 -0.5688033 0.456739 
0.084370576 -0.9662805 0.2432769 
0.4758465 -0.79546714 0.3752363 
0.27127847 -0.42652726 0.86283404 
0.5196163 -0.14660046 0.8417287 
-0.3241 -0.48471257 0.8124118 
-0.04117966 0.0070076305 0.99912727 
-0.3251123 0.52481383 0.7866845 
-0.8568768 0.26389536 0.44285592 
-0.657616 -0.1224588 0.74333376 
-0.8663913 -0.09871925 -0.48951072 
-0.9343069 -0.34097517 -0.1039548 
-0.8990342 -0.3890706 -0.20090246 
-0.643509 -0.3717539 -0.6691004 
-0.55624706 0.029845042 -0.83048093 
-0.5020991 -0.36264053 -0.78510404 
-0.09940568 0.26290393 -0.9596875 
-0.11149752 0.11568792 -0.987008 
0.03169382 -0.52877367 -0.84817094 
-0.44586185 0.04578459 -0.89393014 
-0.4096271 -0.6590314 -0.6307799 
-0.6883831 -0.27771613 -0.67007655 
-0.67188483 0.6258778 -0.39604014 
-0.3939168 0.63843834 -0.66123074 
-0.070096694 0.9962485 0.05074822 
0.01340389 0.99725676 0.07279681 
0.13722901 0.96101636 0.24003287 
0.59557426 0.53054565 0.6031689 
0.27643192 0.09157206 0.9566609 
0.23803201 -0.6155166 0.75131893 
0.3177493 -0.40793237 0.8559361 
-0.4776181 0.09783642 0.87310314 
-0.6573503 -0.7485028 -0.087373786 
-0.61016786 -0.19303747 -0.76839566 
-0.87404805 -0.18978733 -0.44723693 
-0.37183112 -0.15968747 -0.91446245 
-0.14615616 -0.3762066 -0.9149355 
0.55974704 -0.58189553 -0.58998376 
-0.1203517 -0.2843396 -0.95113957 
0.43359652 -0.39810166 -0.8083992 
0.6260229 -0.35335335 -0.69515234 
0.96927816 -0.115058005 0.21739762 
0.48085612 -0.23104201 0.8458114 
0.5328557 -0.57871723 0.61737454 
0.35118023 -0.75453067 0.55439705 
-0.19302383 -0.95585936 0.22152798 
0.44402906 -0.47732 0.7582901 
0.52507097 -0.62413585 0.57858014 
0.11581878 -0.48116377 0.8689462 
-0.2459454 -0.5108229 0.8237542 
-0.12831709 -0.7502305 0.6486054 
0.17601988 -0.5746121 0.79927343 
-0.47850215 -0.6349518 0.6065246 
0.23558588 -0.10569682 0.96608883 
-0.9482824 -0.27682078 -0.1553407 
-0.96060765 -0.24196543 -0.1366959 
-0.8295812 -0.0880755 0.5513961 
-0.8097603 -0.5837593 0.059273448 
0.2838737 -0.9516526 -0.117359474 
-0.46719545 -0.33408383 -0.81860644 
0.011152123 0.79768187 -0.6029754 
0.5607639 0.76947784 -0.30569243 
0.6403458 0.5781804 -0.5056331 
0.59039193 0.76831454 0.24724498 
0.74339116 0.23895445 0.6247163 
0.9305865 0.3579112 0.076865435 
0.53683525 -0.045010585 0.8424856 
0.6520514 -0.06789499 0.7551286 
0.77127236 -0.10627929 0.6275696 
0.6205537 0.2453707 0.7447862 
-0.2124446 -0.73452973 0.6444637 
-0.62397486 -0.5814363 0.522099 
-0.91293365 -0.28702247 0.2901214 
-0.65160286 -0.6786001 0.33899215 
-0.9165102 -0.07745484 0.39244077 
-0.8619489 -0.062270645 -0.5031566 
-0.24831288 0.25112033 -0.93556374 
0.19527785 0.052605968 -0.97933614 
-0.06533459 -0.450449 -0.8904084 
0.09706608 -0.11365576 -0.98876727 
-0.34138575 0.5330561 -0.7741493 
-0.044698462 0.6914602 -0.7210304 
0.43112108 0.8988319 -0.078967 
0.83609164 0.34740672 -0.42456985 
0.65990883 0.60580754 -0.44442958 
0.17997016 0.06227491 -0.9816988 
0.4437823 0.3683229 -0.81694293 
0.08386946 0.68453574 -0.7241387 
0.15365547 0.2757903 -0.9488571 
0.09468819 0.11895351 -0.98837453 
0.098422095 0.48365524 -0.8697073 
0.28694206 0.23692462 -0.928187 
0.29052147 -0.05531795 -0.9552682 
0.6814605 0.4554504 -0.572867 
-0.6711006 0.579049 -0.46295387 
-0.002464392 0.25456953 -0.9670514 