# OOMMF: rectangular mesh v1.0
# Segment count: 1
# Begin: Segment
# Begin: Header
# Desc: Time (s) :  4.510000000000005e-07
# Title: m
# meshtype: rectangular
# meshunit: m
# xbase: 2e-09
# ybase: 2e-09
# zbase: 5e-10
# xstepsize: 4e-09
# ystepsize: 4e-09
# zstepsize: 1e-09
# xmin: 0
# ymin: 0
# zmin: 0
# xmax: 1.024e-06
# ymax: 1.024e-06
# zmax: 1e-09
# xnodes: 256
# ynodes: 256
# znodes: 1
# ValueRangeMinMag: 1e-08
# ValueRangeMaxMag: 1
# valueunit: 
# valuemultiplier: 1
# End: Header
# Begin: Data Text
0.89547086 0.42260966 0.1397609 
-0.022635177 0.5095151 0.860164 
0.11297315 0.57466483 0.8105538 
-0.5010255 0.56342477 0.6569064 
-0.9779773 0.13742709 0.15708092 
-0.8649265 -0.4085422 -0.2915398 
-0.6989145 -0.7147497 -0.025524363 
-0.82381135 -0.36414576 -0.43443385 
-0.7094515 0.49800918 -0.49866384 
-0.83378613 -0.5049298 -0.22326389 
-0.16496204 -0.8505576 -0.49933887 
-0.51548487 -0.43969512 -0.7354887 
-0.8467962 -0.051981572 -0.52937144 
-0.17976941 -0.23425898 -0.95540863 
-0.6124851 -0.34975088 -0.70889807 
-0.51744586 -0.09715029 -0.85018337 
-0.25497803 -0.695344 -0.6719249 
0.8012109 -0.51658916 -0.30198807 
0.9546478 -0.1415278 -0.26194945 
0.8065206 0.56389743 0.17760698 
-0.33175126 0.6292613 -0.7028309 
0.7711824 0.15947722 -0.6163154 
0.9543401 0.2977647 0.023899857 
0.8072135 0.55432653 -0.20280139 
-0.017486325 0.8964061 0.44288853 
-0.033197474 0.9497072 -0.3113746 
-0.5818315 0.45479777 -0.6742635 
-0.96781904 0.20885225 -0.14038183 
-0.7775065 0.6282413 -0.028224668 
0.13355194 0.92132187 0.3651439 
-0.7399632 0.66872746 0.07251368 
-0.48395598 0.45431197 0.747922 
-0.99455804 -0.040427845 0.09602102 
-0.1318112 -0.5493103 -0.8251569 
-0.18851288 -0.44879687 -0.8735241 
0.22870964 -0.023444017 -0.97321236 
-0.5900843 -0.08012984 -0.8033553 
-0.2972115 -0.24926868 -0.9216999 
0.14043538 -0.55228734 -0.82174003 
0.79873776 -0.5511588 -0.24133393 
0.58605325 -0.7873608 0.19132349 
-0.09563771 -0.7166383 0.69085675 
-0.784418 -0.34992492 0.5120949 
-0.87169313 -0.46548223 0.15322345 
-0.7783784 -0.25424695 -0.5740083 
-0.744135 0.19724835 -0.6382447 
-0.20346583 0.047205556 -0.9779435 
-0.00064739626 0.762519 -0.6469656 
-0.4771117 0.19842526 -0.85614944 
-0.07913739 -0.73102385 -0.6777473 
-0.32593215 -0.89258534 -0.31154418 
-0.19857182 -0.7862225 -0.58516943 
-0.45614752 -0.07089066 -0.8870762 
-0.3038772 -0.35850856 -0.8826836 
-0.1469327 -0.8238798 -0.54738724 
0.5385152 -0.7012596 -0.46715766 
-0.01291282 0.044792376 -0.9989129 
-0.025384823 -0.64686215 -0.7621844 
0.046083655 -0.8739474 0.4838309 
0.5263538 -0.792297 -0.30857307 
0.4497123 -0.88044435 0.15025538 
0.8015498 -0.2640676 -0.5364573 
0.7265698 -0.68584585 0.041374538 
0.8721381 -0.22886238 0.43243167 
0.3248021 -0.24838983 0.9125822 
-0.26196557 -0.53726816 0.80169636 
-0.72308767 -0.5179636 0.4570098 
-0.010173271 -0.97937655 -0.20178741 
0.4979115 0.29828593 -0.8143155 
0.68587065 0.6114318 0.39462978 
0.8976645 0.35441867 0.26188904 
0.61636966 0.4864869 0.61920834 
0.60130066 0.5132041 0.61242074 
0.12714766 0.8409669 0.52593553 
-0.79860824 -0.16470736 0.5788751 
-0.7600648 -0.27864397 -0.5870767 
-0.5685104 0.50660473 -0.64818794 
0.16038507 -0.81578076 -0.5556783 
0.60221505 -0.7845166 -0.1478884 
0.3145734 -0.94922954 -0.0026071467 
0.5199935 -0.8489852 -0.09397416 
0.13851388 -0.57416457 0.8069381 
-0.38456506 -0.78511506 0.48549354 
-0.5610242 -0.82639945 0.048121933 
-0.7853343 -0.58217514 -0.21052861 
-0.20216992 -0.9352423 -0.29060167 
0.69426686 -0.55632657 -0.45661184 
0.4572254 -0.27306533 0.84639245 
0.93358165 -0.23293363 0.2723369 
0.9820528 -0.14130343 0.12492224 
0.67942613 -0.68572384 0.26108056 
0.13806795 -0.13732329 0.98085654 
-0.46360043 0.26103762 0.84671956 
-0.19118638 -0.6611559 0.72547966 
-0.8866848 -0.4541869 0.08662898 
-0.81950146 -0.5489068 -0.16467768 
-0.33900568 -0.80212075 -0.491607 
-0.08558902 -0.50124127 -0.8610643 
0.46025705 -0.88546336 -0.064172246 
0.5325838 -0.41847602 -0.73568505 
-0.2663234 -0.57107043 -0.7764988 
0.77857727 -0.37796533 -0.5009588 
0.53111285 0.15296046 -0.8333801 
0.67747676 0.5021605 -0.53745705 
0.86146885 0.505515 0.048229806 
0.88535684 0.46353456 -0.035762835 
0.9301094 0.21726215 0.2961313 
0.51976717 0.69373816 -0.49856746 
0.7890497 -0.56453615 -0.24227963 
0.33609658 -0.11780681 0.9344307 
0.45741674 0.6143582 0.64291054 
-0.0024102763 0.27936712 0.9601814 
-0.20031701 0.15245895 0.9677962 
-0.66818273 0.69441897 0.26704738 
-0.55733114 0.6914774 -0.45960966 
0.31461 0.77073574 -0.5540642 
-0.14994998 0.26109266 -0.9535962 
0.8683158 0.49528354 0.026869124 
0.84381074 -0.3852548 -0.37358028 
0.97645205 -0.0794505 -0.20057157 
0.9886531 -0.14792529 0.026140602 
0.86610955 0.110052004 0.487589 
0.9849334 -0.13020904 0.11380602 
0.6632488 -0.10697236 0.74071455 
-0.1747966 0.5450942 0.8199504 
0.49695307 0.2929929 0.8168187 
0.041067224 0.6486982 0.759937 
0.40327093 0.60795015 0.6839366 
-0.7891601 0.58 0.20205592 
-0.89211744 -0.4456222 0.07448079 
-0.76023924 -0.6097389 0.22417566 
-0.13004124 -0.9259732 -0.35448977 
-0.09028913 -0.8892154 -0.4484906 
0.18926166 -0.5339715 -0.82404774 
0.23280624 -0.93620217 -0.2632996 
0.2678435 -0.60136694 0.75274026 
0.07945452 -0.3583189 0.9302122 
0.18775451 -0.18336649 0.96494824 
0.2914622 -0.24066822 0.9258124 
0.52037454 -0.5445488 0.6577819 
0.87253386 0.29454595 0.38977882 
-0.007809752 0.34010044 0.9403567 
-0.16821256 0.21774794 0.9614002 
0.28677836 0.44818497 0.8466926 
-0.14657588 0.23785676 0.9601769 
-0.9710379 -0.13390997 0.19787231 
-0.89118624 -0.12027956 -0.43740138 
-0.694281 0.0025717032 -0.7196995 
-0.43224666 -0.18092526 -0.8834189 
-0.08429702 -0.23545921 -0.96822155 
0.08653151 -0.8555579 -0.5104244 
-0.5779879 -0.8121878 -0.07925226 
-0.05420313 -0.991866 0.115168996 
0.06506 -0.81780124 -0.5718114 
-0.52285707 -0.8226787 0.22320494 
-0.63722396 -0.5107519 -0.5771292 
-0.30375764 -0.6319349 -0.71301454 
-0.6522957 0.1708617 -0.7384556 
-0.1539456 -0.22362559 -0.96244085 
-0.43107304 -0.5199887 -0.73741966 
-0.61521596 -0.5076998 -0.60311717 
-0.14756481 -0.3441389 0.92725027 
0.22819614 -0.2995674 0.9263832 
-0.032781594 -0.4335548 0.9005307 
-0.8095029 -0.5724803 -0.13027413 
0.51828504 -0.84338355 -0.14172125 
0.85067534 -0.4554468 -0.2625256 
-0.3557198 0.09850137 0.92938745 
-0.82548857 -0.5544774 0.105468586 
-0.71031713 -0.052170202 0.7019458 
-0.771665 0.47944856 -0.41792616 
-0.955994 0.086454816 -0.28035897 
-0.25535896 0.31278127 -0.91485506 
0.91032994 0.33930007 -0.23701255 
0.79082954 0.60468656 -0.094567165 
0.82877374 -0.14029783 0.541711 
0.90174043 -0.20921144 0.3782789 
0.639534 0.13129349 0.75746846 
0.8574386 0.24136123 0.45447096 
0.73401016 0.36449096 0.5730406 
0.9894737 0.09646724 0.107869886 
0.89026874 -0.37282532 -0.26157758 
0.8833624 -0.12878118 -0.45065105 
0.75441337 -0.5529493 0.3537056 
0.8645612 -0.16274704 0.4754445 
-0.0036089572 0.21219617 0.9772204 
0.97067744 0.10710579 0.21520616 
0.4173307 -0.7939801 0.44207525 
0.6407067 -0.6253587 -0.4454453 
0.9580479 -0.2826015 0.047757547 
0.7979765 0.27854034 -0.53446114 
0.40005556 0.74127245 0.5389535 
-0.8165804 0.34335953 0.4640052 
-0.67984194 0.6959001 -0.23138313 
-0.6023804 0.6415598 -0.47490942 
-0.50663507 -0.43565834 -0.74399114 
-0.023871552 -0.04565358 -0.99867207 
-0.4574514 -0.28320688 -0.8429308 
-0.61299187 -0.20285252 -0.76360446 
-0.24144197 -0.232906 -0.94205123 
0.9352763 0.14277111 -0.32384363 
0.73307323 0.049388863 0.67835414 
0.15452173 0.2284636 0.9612115 
0.26049682 -0.20630568 0.9431752 
-0.11507809 -0.2525338 0.9607204 
0.2762028 -0.47438118 0.8358676 
-0.38966477 0.5897898 0.7073255 
-0.4432136 0.7058211 0.5526106 
-0.4431635 0.81136876 0.38116512 
-0.7824027 0.0682627 0.61902046 
-0.7160751 0.6343294 0.29131213 
-0.9670394 0.05741078 0.2480703 
-0.877572 -0.38063714 -0.29151812 
-0.91981286 -0.35533828 0.16637044 
-0.74187046 -0.6688233 -0.04799676 
0.53898066 -0.46753567 -0.70065 
-0.07764796 -0.87448263 -0.4788015 
0.36487427 -0.8965704 -0.25105464 
0.3193615 -0.27854565 -0.9057708 
0.6506481 -0.308621 -0.6938372 
0.98639774 -0.16437595 -0.000117752534 
0.999626 -0.027281307 -0.0019100021 
0.88783264 -0.31552488 0.33495864 
0.8539007 -0.5095441 0.105917946 
0.17862616 -0.6062077 0.77498704 
0.59961885 -0.80015576 0.014425295 
0.9590273 -0.18771647 -0.21220118 
0.98646784 0.13039818 0.09938548 
0.9217052 0.02908587 -0.38679942 
0.03590054 -0.005648613 0.9993394 
-0.7604766 0.38762474 0.5209821 
-0.9147231 0.40302035 0.02926426 
-0.9137069 0.20595954 -0.35031492 
-0.21303594 0.7758651 -0.5938426 
0.29160875 0.7548645 -0.5874895 
0.8390019 0.49808878 -0.2190509 
0.4270265 0.87795824 -0.2164205 
-0.6750124 0.53852737 -0.50432795 
-0.8369253 0.5468044 -0.023683764 
0.07948071 0.9703925 0.22808184 
-0.69583917 0.6907941 0.19649783 
-0.5167351 -0.21423177 0.8289087 
-0.8459122 -0.43070146 0.3145297 
-0.32697865 0.12083521 -0.93727475 
0.73332053 -0.16928546 -0.65847063 
0.5436672 -0.4878702 -0.6829412 
0.5969428 -0.7718944 0.21871984 
0.2981312 -0.9523524 0.06436412 
-0.14747822 -0.9608162 0.23469643 
-0.29153895 -0.65834975 -0.69396013 
-0.3481054 -0.9232602 -0.16252178 
-0.17540297 -0.6529696 -0.73679346 
0.39138618 -0.8581388 -0.33228692 
0.12660678 -0.7424048 0.6578798 
0.36046353 -0.2788982 0.8901022 
-0.51845413 -0.6070208 0.6022716 
-0.17299959 0.38617218 0.9060587 
0.121424004 0.5291975 0.83976555 
-0.38470927 0.1315562 0.91361475 
-0.7861972 0.24353035 0.5679674 
-0.9250657 0.1405823 0.35283163 
-0.81535685 0.20670821 0.5408004 
-0.8702286 0.49072126 0.04353236 
-0.8266982 0.38949645 -0.40603286 
-0.8336325 -0.20414755 -0.5132064 
-0.5059245 -0.23364918 -0.83033043 
-0.84728277 -0.1616977 -0.5059306 
-0.7756836 -0.22291514 -0.59044373 
-0.6904976 0.048927225 -0.72167814 
-0.20479642 0.0023839304 -0.9788017 
-0.34976974 0.37883478 -0.8568229 
-0.10229838 0.7461471 -0.6578751 
0.68780476 -0.2287691 -0.6889044 
0.50606203 -0.2809786 -0.81544614 
0.41713935 -0.8698557 -0.26333612 
0.63029295 -0.65006036 -0.42444357 
0.77022874 0.26221412 -0.5813704 
0.24342106 0.80652326 -0.5387639 
0.90529406 0.16636287 -0.39085317 
0.65602756 0.7383869 0.15624577 
0.51759195 0.6302936 0.5786438 
-0.17113034 0.9577974 0.23095159 
-0.18790151 0.9526884 0.23890978 
0.19640963 0.9630985 0.18402314 
-0.33256432 0.8587589 0.3897873 
-0.33814403 0.8933401 0.29597643 
-0.8822947 0.47032034 -0.018840807 
-0.9865057 0.16357973 -0.006941148 
-0.89684236 -0.4416077 0.025621124 
-0.5224894 -0.5539976 -0.64814466 
-0.37504348 -0.39272577 -0.8397076 
-0.30513436 0.35394284 -0.8840914 
-0.3868065 0.5352471 -0.7509269 
-0.47088367 0.2447731 -0.8475582 
-0.42067692 0.033642024 -0.9065865 
-0.07956173 -0.5106054 -0.8561262 
-0.43450993 -0.805807 0.40233862 
-0.70429724 -0.69364214 0.1510831 
-0.9144563 -0.40292227 -0.03772837 
-0.84912837 -0.40880853 -0.33444968 
-0.57743263 0.073194705 -0.8131508 
-0.15926866 0.48927882 -0.85746115 
0.057529397 0.03825751 -0.9976105 
-0.08860211 0.27279037 -0.957985 
-0.7478775 0.24122362 -0.61845815 
-0.35156924 0.06483632 -0.93391407 
0.0022704862 -0.7027936 -0.7113902 
-0.42976993 -0.31213033 -0.8472736 
-0.74678475 0.1851704 -0.6387681 
0.18156868 -0.4024457 -0.89725703 
0.36961067 -0.5555624 -0.7448077 
-0.27132848 -0.15100007 -0.95056826 
0.05237872 -0.13548896 -0.9893934 
-0.304969 -0.944141 -0.12486669 
0.016459212 -0.78799814 -0.6154576 
-0.3353612 -0.41526216 -0.84563017 
0.7561885 -0.5978829 -0.26592305 
0.54055923 -0.84129924 -0.0033620112 
0.19283447 -0.94949645 0.24753042 
0.20110321 -0.6952755 0.69003594 
-0.22006868 -0.72327465 0.6545561 
-0.04063701 -0.95143795 0.3051466 
0.09598178 -0.9788336 0.18075514 
0.3309451 -0.9066854 0.2615281 
0.9253468 -0.37697473 -0.040289916 
0.88157994 0.34441203 -0.32279608 
0.55864704 0.74765044 0.3590716 
0.9182126 0.3493012 0.18674651 
0.8618628 -0.33721852 0.37878263 
-0.055498213 0.069924556 0.9960073 
-0.8045595 -0.032037716 0.5930072 
-0.84318525 0.32427856 0.428815 
-0.9064283 0.3766263 -0.19115579 
-0.20344163 -0.095466405 -0.97442174 
-0.33091187 -0.49638578 -0.8025575 
0.63836145 -0.4882654 -0.595056 
0.6528068 -0.7564922 -0.039532524 
0.23285265 -0.9446446 0.23114169 
-0.6223895 -0.7825063 -0.017758766 
-0.9905307 0.047137935 -0.12894568 
-0.6276164 -0.7782778 0.01952699 
-0.73634744 -0.6381717 -0.2247876 
0.256875 -0.96129096 0.09967471 
0.47271404 -0.8310968 0.29294965 
0.7119359 0.21923424 0.667146 
0.7593053 -0.39070895 0.52038646 
0.22356784 -0.75539964 0.6159454 
-0.009023936 -0.9851854 0.17125566 
0.06468829 -0.1266136 0.9898406 
-0.38557303 -0.5170478 0.7641957 
-0.41952425 -0.5534158 0.7195349 
-0.3924693 -0.91839266 0.050228816 
-0.5228035 -0.84998465 0.064828604 
-0.32539243 -0.29463312 -0.898505 
0.088769265 -0.6200933 -0.77948976 
0.42410988 -0.857547 -0.29110843 
0.4828282 -0.4394906 -0.75744635 
0.70254576 0.11661619 -0.7020187 
0.8779047 -0.2912894 -0.3800448 
0.9326993 0.31497455 0.17567863 
0.5735285 -0.8124842 -0.10456872 
0.71944284 -0.32524443 0.6136922 
0.92512965 0.3792773 0.01684974 
0.6148922 0.59376985 0.5189846 
0.708299 0.5818608 0.39968824 
0.43351614 0.47059909 0.7685052 
0.21827994 0.2244658 0.94972056 
-0.29380494 0.2993894 0.907769 
-0.19649383 0.59932107 0.77601844 
-0.26684663 -0.4482956 -0.853126 
0.04487521 0.6279683 -0.77694404 
0.8808992 0.29461956 -0.37042695 
0.7687078 0.1480252 -0.62223536 
0.9603969 0.2576786 -0.10601675 
0.2718879 -0.8594663 0.4328909 
0.6343166 -0.761288 -0.13447295 
0.23256901 -0.86562485 0.4434022 
0.18173598 -0.41143113 0.8931385 
0.13043779 0.00095607585 0.9914561 
0.8254033 -0.3275483 0.4598062 
0.5920078 0.22826111 0.7729318 
0.6639036 -0.27895328 0.6938423 
0.3128877 0.17472059 0.93358135 
-0.70717233 0.32097125 0.62998796 
-0.5136308 -0.3792796 0.76963 
-0.9025593 -0.028592525 0.42961526 
-0.8928225 -0.3286101 -0.3080316 
-0.5401998 -0.58561707 -0.60434836 
-0.18613197 -0.50264674 -0.84421635 
0.2051338 -0.7608823 -0.61561215 
-0.03092906 -0.8607287 0.50812364 
0.20813027 -0.96867305 -0.13547854 
0.037354726 -0.99664676 0.07280013 
0.32117835 0.16201603 0.93305695 
0.4809691 -0.18494295 0.85700935 
0.1042007 -0.6939284 0.71246445 
0.496336 -0.04223722 0.8671025 
0.35023597 -0.29636312 0.8885402 
-0.21329346 -0.17440449 0.9612955 
-0.23525366 -0.4715767 0.8498654 
-0.50292516 0.16674548 0.8480934 
-0.5454215 -0.810473 0.21365625 
-0.808887 -0.5140916 0.28532705 
-0.78307414 -0.12453587 -0.6093324 
-0.4615023 -0.36138746 -0.8101943 
0.42094547 -0.47470182 -0.77295744 
0.09055507 -0.8865929 -0.45359984 
0.36621532 -0.6285138 -0.6861901 
-0.04864232 -0.7982054 0.6004184 
-0.3074559 -0.83964163 -0.44774187 
-0.9691811 0.009433639 0.24616882 
-0.88641095 0.26253068 0.38125223 
-0.94750607 -0.19460274 -0.25369698 
-0.74656 -0.6222169 -0.23557241 
-0.79466635 -0.38707298 -0.46763217 
-0.62513864 -0.60340047 -0.49508542 
-0.8178303 -0.52540153 -0.23474866 
-0.08608779 -0.6474911 -0.75719494 
0.4877771 -0.863719 0.1267404 
0.28464413 -0.61982095 0.7313001 
-0.38362283 -0.9191873 0.089040674 
0.22424196 -0.9716279 -0.07519898 
0.44949213 -0.89186263 0.050377816 
-0.2210322 -0.78158647 0.5833245 
-0.8139664 0.17189503 0.55489725 
-0.6135423 -0.7284475 -0.30484456 
-0.93644625 -0.35079178 -0.0036824846 
-0.68820417 0.2517162 -0.6804514 
-0.84441894 0.06846406 -0.5312903 
0.22403312 0.1769753 -0.9583783 
0.5957976 -0.292416 -0.74800944 
0.6964315 -0.71737784 0.01876948 
0.90794915 -0.4088436 0.092061006 
0.882846 0.114618175 0.45546204 
0.85849637 0.48504186 0.16648827 
0.9286157 0.18058342 0.3241337 
0.9933217 -0.085204914 -0.077794746 
0.8862121 0.050494127 -0.46051976 
0.71260995 -0.70130926 0.018772071 
0.35075098 -0.78022 0.5179098 
0.28379655 -0.52727675 0.80089885 
0.38663495 -0.92052954 -0.05602585 
0.785067 0.3145848 0.53357875 
0.9283348 -0.21995322 -0.29969206 
0.9379639 -0.32652208 -0.116649464 
0.7464142 -0.6444006 -0.16617389 
0.35884556 0.9043988 -0.23085226 
0.7800503 0.075862154 0.621101 
-0.096628554 0.4917749 0.86534405 
-0.9638722 0.26591226 0.015526967 
-0.5212397 0.6672642 -0.53204113 
0.34807417 -0.016111854 -0.9373286 
-0.042568266 0.13957286 -0.9892965 
-0.35252687 -0.19132674 -0.91603434 
-0.026975263 -0.23921794 -0.9705912 
-0.3918989 -0.096160986 -0.9149691 
0.27672687 -0.5179263 -0.8094285 
0.6182012 -0.55297565 0.55861014 
-0.032006465 -0.04647666 0.9984065 
0.50942224 -0.31233183 0.80183405 
0.26376602 -0.51862365 0.8133001 
0.33876932 -0.078915216 0.9375541 
0.41361785 0.25293335 0.8746113 
-0.12146523 0.5756778 0.8086045 
-0.27671558 0.4824545 0.83106333 
-0.7867389 0.09568674 0.6098247 
-0.7870262 0.081967264 0.61145 
-0.97063136 0.23640823 0.04456406 
-0.80374134 -0.19117133 -0.56343013 
-0.61374575 0.43210012 -0.66076154 
-0.9011187 -0.04546086 -0.4311827 
-0.21975274 -0.36901122 -0.90307224 
-0.19696602 -0.97271055 -0.122632526 
-0.39941502 -0.6598967 -0.6363994 
0.39209887 -0.67637235 -0.6235215 
0.17746833 -0.96917003 -0.17092235 
0.680179 -0.5489128 -0.48585114 
0.54262555 -0.8366954 0.07415222 
0.33462387 -0.94217616 0.018194359 
0.2811821 -0.69790214 -0.6586876 
0.61370486 -0.74065584 -0.2734874 
0.68009144 -0.5633997 -0.46910188 
0.82477987 -0.25769326 -0.50332123 
0.9954357 -0.048819326 -0.08200364 
0.78592575 0.13245472 -0.6039672 
0.38582808 0.55270827 0.7386815 
-0.06379304 0.21465579 0.97460425 
-0.57917017 0.63626975 0.50963014 
-0.14559934 0.973075 -0.17867841 
0.09613403 0.94781995 -0.30396646 
0.18161507 0.95513314 0.23395906 
-0.0030583374 0.85117793 -0.5248684 
0.60017496 0.7997494 0.01381638 
-0.60445684 0.322612 -0.72839105 
-0.6826625 0.70653415 -0.18649766 
-0.5082978 0.8307465 0.22692226 
-0.95592403 -0.24982813 0.15425682 
-0.8001898 -0.021833261 -0.5993493 
-0.8904908 0.118387446 -0.43932983 
0.30392924 0.18568595 -0.9344238 
0.44843498 -0.5601305 -0.6965342 
0.8450549 -0.35052156 -0.40375337 
0.72721 -0.64019644 0.24761698 
0.74759626 -0.49779803 0.43965566 
0.67155546 -0.7406895 0.019807186 
0.58238596 -0.66465855 -0.46803394 
0.16238107 -0.9649894 0.20598002 
0.7140726 -0.67832524 -0.17313352 
-0.43682316 -0.8764273 -0.20263457 
-0.16378775 -0.9864941 0.001707656 
-0.31693283 -0.91782427 0.23906562 
-0.5903338 -0.65852726 0.4667419 
-0.56678104 0.010872751 0.82379675 
0.25726902 -0.22566648 0.9396209 
0.3229572 0.39102072 0.86185926 
-0.9086254 0.042308282 0.41546336 
-0.80459964 0.535408 -0.25682238 
-0.9878152 -0.07746254 -0.13498421 
-0.8763167 -0.46690592 0.11860792 
-0.8130609 -0.24152382 -0.5297155 
0.120727964 -0.6550189 -0.7459056 
-0.5119445 -0.08296621 -0.8550027 
-0.6803921 -0.17189197 -0.71240425 
-0.25898737 -0.95464313 -0.1469087 
-0.6074455 0.20648047 -0.76705664 
0.45250812 -0.077823095 -0.8883581 
0.83020186 0.52741396 -0.18055344 
0.119782954 0.25996962 -0.95815855 
0.70010394 0.07123644 -0.71047866 
0.08769107 -0.026321674 -0.99579996 
0.5603905 0.10784927 -0.8211767 
0.46419296 0.13995881 -0.8746065 
0.779083 0.12164863 -0.61500514 
0.35117516 0.88586634 -0.3031782 
0.3806504 0.051786497 -0.92326784 
0.68399525 0.5957469 -0.4209944 
0.747615 0.61844873 0.24205993 
0.7513474 0.6490474 0.11922561 
0.5106712 0.70997375 0.48492506 
-0.1261218 0.48269612 0.8666589 
-0.23200703 0.67219305 0.70308554 
-0.22337861 0.88780975 0.40236267 
-0.6075627 0.7921541 0.057961043 
-0.89678895 -0.43481016 -0.081913516 
-0.7155732 -0.64186054 0.2756267 
-0.8057551 0.12865835 0.5781053 
-0.95239675 0.13494198 -0.27336997 
-0.81202495 -0.099060304 -0.5751544 
-0.43970144 0.43158272 -0.7876541 
-0.581659 -0.09163942 -0.80825436 
-0.61540717 -0.54040927 -0.5737874 
-0.08933276 -0.19153714 -0.97741145 
-0.6536872 -0.381069 -0.65381926 
-0.1464181 -0.4965646 -0.85556144 
-0.07129673 -0.44379172 -0.8932894 
-0.49778235 0.117120326 -0.8593577 
-0.41772252 -0.019287774 -0.9083699 
-0.521719 0.4429439 -0.72911596 
-0.30186057 0.08729599 -0.94934696 
-0.04535869 0.69997627 -0.7127242 
-0.4480193 0.68823487 -0.5706238 
-0.504499 -0.08632762 -0.8590857 
0.5480869 0.38373566 -0.743201 
-0.3509165 0.45314297 -0.8194627 
-0.3254887 -0.11918863 -0.9380039 
0.17697836 0.35668895 -0.9173068 
0.16350007 0.12939206 -0.97802126 
-0.09432118 -0.2931119 -0.9514143 
-0.52682686 -0.07005516 -0.84708077 
-0.7096009 0.052609578 -0.7026371 
-0.5321565 -0.61256236 -0.5844457 
-0.088537194 -0.6601791 -0.74587184 
0.30009326 -0.6702597 -0.6787459 
0.15852942 -0.82279325 -0.54578364 
0.65524477 -0.7540207 0.04590511 
0.46568117 -0.87094724 0.15681815 
0.61981153 -0.7006017 0.35354072 
-0.116140224 -0.9581389 -0.26168948 
-0.17020184 -0.9205806 -0.35151482 
0.22262898 -0.85167354 -0.47443515 
0.8763488 -0.41908908 -0.23743896 
0.9735137 -0.033811063 0.22611503 
0.55871314 0.18147464 0.809263 
0.737987 0.32143864 0.59334004 
0.1833852 0.35787445 0.915585 
-0.1429592 0.25293612 0.95686257 
-0.7738585 -0.33316553 0.5386501 
-0.9689333 -0.15913385 0.18932731 
-0.95179135 0.30240858 -0.051404834 
-0.5787974 -0.122087196 -0.8062806 
-0.39377156 -0.35614172 -0.847412 
0.45234472 -0.2803246 -0.8466418 
0.20293574 -0.76014626 -0.6172478 
-0.09211956 -0.9557961 -0.2792271 
-0.6916157 -0.6805956 0.24177966 
-0.92795116 -0.33190143 -0.16955273 
-0.43984348 -0.6360744 -0.633993 
-0.12542076 -0.861845 -0.49141932 
0.5840473 -0.7762066 0.23747008 
0.8200608 -0.5139456 0.25171497 
0.49444196 -0.6984458 0.517398 
0.5213922 -0.67009264 0.5283239 
0.2175633 -0.928257 0.3016706 
-0.43801102 -0.79616076 0.41746187 
-0.16502224 -0.41609648 0.89422107 
0.20789747 -0.967683 0.1427176 
0.0089926105 -0.9539339 0.299882 
-0.18268394 -0.9168958 -0.35486424 
-0.25435245 -0.30770227 -0.9168557 
-0.35737064 0.64619136 -0.6743316 
0.028846545 -0.50141215 -0.8647276 
0.6339839 -0.6766845 -0.37438282 
0.14700906 -0.30674756 -0.9403693 
0.8869285 0.4192277 -0.19392288 
0.9006206 0.33614746 -0.2754768 
0.88027966 -0.4740763 0.018956818 
0.63526595 -0.5995834 -0.48676175 
0.6096224 -0.7780431 -0.15168919 
0.9462335 0.11223689 0.30338916 
0.76857215 0.6162512 -0.17184687 
0.7336044 0.6762829 0.066829555 
0.21142793 0.51025 0.8336326 
-0.60550904 0.3917685 0.692731 
-0.33493882 0.6888267 0.6429105 
-0.030219728 0.86460996 0.5015342 
0.428828 0.40165612 -0.80918413 
0.25498444 0.683909 -0.683558 
0.20269114 0.8227093 -0.5310986 
0.36996424 0.43333527 -0.82179505 
0.9372619 -0.19886169 0.28634644 
0.6511512 -0.752756 0.09675078 
0.57949454 -0.1489483 -0.8012493 
0.6414484 -0.69202083 -0.33113623 
0.5844007 -0.49046215 0.6464695 
0.6838499 -0.6303281 0.36747226 
0.9683218 -0.2146152 0.12764563 
0.67176896 0.3588399 0.6480436 
0.0109697655 -0.4716221 0.8817325 
-0.032224976 -0.2756211 0.9607261 
-0.6129067 -0.34764075 0.70957124 
-0.59284735 -0.52098536 0.6140899 
-0.77773315 0.4664073 0.42142078 
-0.3404026 0.461609 -0.8191723 
-0.29854032 -0.819432 -0.48929024 
0.19218345 -0.80649585 -0.55913323 
0.09784777 -0.48190868 -0.870741 
-0.1564107 -0.8400275 -0.5195091 
-0.3638969 -0.9061901 -0.21540332 
0.5877001 -0.70511436 0.3967648 
0.7936772 -0.42884216 0.4314753 
0.40612888 -0.49573207 0.7676647 
-0.16882323 -0.87416774 0.45533457 
0.23898919 -0.4879827 0.83949816 
-0.09721947 -0.3907737 0.9153384 
-0.5738364 -0.4541415 0.6815184 
-0.880116 -0.4534307 -0.14069977 
-0.61399484 -0.60955775 0.5014477 
-0.55559343 -0.7888161 -0.26284048 
-0.8596979 -0.19553608 -0.4718953 
-0.13748755 0.06599071 -0.9883028 
0.4372904 -0.8645517 -0.24764371 
0.40484616 -0.8053781 -0.43297338 
-0.06471887 -0.8849089 -0.4612457 
-0.470405 -0.8208357 -0.32395673 
-0.33555657 -0.90441626 -0.2635015 
-0.7481611 -0.54003215 -0.3855131 
-0.5475246 -0.8245677 0.14249572 
-0.9644011 -0.2282183 -0.13359265 
-0.39738718 -0.8438528 0.36054954 
-0.4666654 -0.87977844 -0.090627655 
-0.53289324 -0.59333974 -0.60330164 
0.08229088 -0.68630344 -0.72264504 
-0.53474355 -0.67910534 -0.50285727 
0.37589863 -0.6696217 -0.6405521 
0.66005105 -0.7396934 -0.1310968 
0.27639255 -0.81999475 -0.5012144 
0.3183662 -0.9301289 0.18303926 
0.32431433 -0.92135704 -0.21429293 
-0.2806948 -0.8954004 -0.34564236 
-0.257147 -0.7760388 0.5758811 
-0.49685282 0.09601709 0.8625068 
-0.95726556 0.16341452 -0.23861752 
-0.5732166 -0.28279483 -0.76905787 
-0.95954466 0.2306902 -0.16141932 
-0.55738163 -0.40267858 -0.72606874 
-0.04157862 -0.269816 -0.9620138 
0.7027306 -0.24422513 -0.6682244 
0.8324426 -0.41660306 -0.36535117 
0.61216944 -0.66041327 0.43485972 
0.7987806 -0.36437044 0.4787315 
0.90472794 -0.18275638 0.38479534 
0.84158015 -0.2740624 0.46543816 
0.87579006 -0.13251986 0.4641447 
0.41090557 -0.77366436 -0.48228633 
0.0042753373 -0.9326063 -0.36087006 
0.763455 -0.63223135 0.13198574 
0.6761771 -0.40915373 0.6126809 
0.30835158 -0.18258749 0.93358517 
0.4723286 0.18108436 0.8626205 
0.7269742 -0.1990581 0.65717924 
0.91127795 -0.37610304 -0.16768739 
0.3353988 -0.11357165 0.93520546 
0.041393533 0.568727 0.8214841 
-0.037896965 0.29532737 0.9546442 
-0.9310512 -0.2923645 0.21832722 
-0.8860089 0.38931334 0.25183994 
-0.5273147 0.5687481 -0.63124067 
-0.11146796 0.9819982 -0.15249419 
-0.27738258 0.8725082 0.40222946 
-0.9243851 -0.24112506 -0.29558596 
-0.300845 -0.34024855 -0.89091146 
0.6612592 -0.5850308 -0.46954808 
0.83090127 -0.022810593 -0.55595225 
0.7208726 -0.57100224 0.3928094 
0.648238 -0.62487215 0.43511176 
0.65415794 -0.5954665 0.46636578 
0.7098276 -0.5378253 0.4548504 
0.7300996 -0.4063899 0.54936504 
0.50750625 0.21820715 0.83356047 
0.09526301 0.67695594 0.7298326 
-0.77262425 0.51774067 0.36741868 
-0.82532823 0.43491432 0.3601152 
-0.95860565 0.26299718 0.10912245 
-0.83219934 0.51097375 0.21529081 
-0.65256506 0.3659168 -0.66352373 
-0.99604046 -0.059358645 -0.06618202 
-0.1443245 0.23565222 -0.9610611 
-0.0405605 -0.4005336 -0.915384 
0.12423882 -0.8226068 -0.5548719 
0.143746 0.44255596 -0.8851449 
0.051222324 -0.42021435 -0.90597814 
-0.07213725 -0.9345875 -0.34834266 
0.8490789 -0.287738 -0.44302583 
0.7994179 -0.5735966 -0.17865646 
0.4794094 -0.6633069 -0.57462215 
0.97195834 0.0411365 -0.23152749 
0.68015325 -0.7231764 -0.12003127 
0.8139305 0.1426199 -0.56318456 
0.76435244 0.6271362 -0.14988522 
0.882054 -0.40239993 -0.24506156 
0.909022 0.41037858 0.0725853 
0.5623366 0.43167806 0.70528835 
0.5778857 0.6198766 0.5308494 
-0.08748671 0.5338134 0.8410645 
0.040769108 0.9904801 0.13148049 
0.4535048 0.8885569 -0.06928386 
-0.06666645 0.8132207 0.5781244 
0.3504976 0.0826778 0.93290716 
-0.057246376 0.46734878 0.8822177 
-0.6630411 0.61209035 0.43095464 
-0.7346597 0.26831266 0.62312406 
-0.72346723 0.58303225 0.3696872 
-0.98935986 0.051634926 0.13601862 
-0.7267839 -0.48201647 -0.48933157 
-0.8986858 -0.07331057 -0.43242258 
0.6709381 -0.054296177 -0.7395228 
0.8987923 -0.40375867 0.17073722 
0.25493428 -0.3688686 -0.89383703 
0.86043924 -0.50914997 -0.020267718 
0.6055914 -0.7654277 -0.21766873 
0.801891 -0.4021034 0.44190916 
0.39084896 -0.5860919 0.70974183 
0.08878855 -0.81157017 0.57746917 
0.10306097 -0.9942256 -0.029898876 
-0.44501445 -0.8954724 0.009561405 
-0.6151685 -0.7314409 0.29421437 
-0.16223502 -0.98508877 -0.057271462 
0.5504889 -0.7699702 -0.32265785 
-0.60797375 -0.44050732 0.66054624 
-0.22145273 0.07981351 0.9718995 
-0.14684239 -0.13073823 0.98048204 
-0.56093526 -0.73866075 0.3738074 
-0.780798 -0.04034646 0.6234794 
-0.7594623 -0.059838425 0.6477936 
-0.77012265 -0.5846825 0.25506398 
-0.60992026 -0.2607954 -0.7483202 
-0.2087457 -0.21774112 -0.9534223 
-0.7420037 -0.44816196 -0.49857947 
-0.16506867 -0.57503563 -0.8013029 
0.2872203 -0.3994076 -0.8706194 
-0.09682807 0.106184445 -0.9896208 
-0.5255239 -0.22063726 -0.8216714 
0.2795882 0.03571188 -0.95945567 
0.4130049 0.056330964 -0.9089851 
-0.12862013 0.10197342 -0.9864372 
0.71287274 0.2691062 -0.6476067 
0.74319273 -0.16296332 -0.64892805 
0.49196514 -0.6977745 -0.52065444 
0.9443973 0.126472 0.30351037 
0.40305448 0.8826185 0.2419335 
0.483686 0.77860457 0.39977828 
0.65244424 0.6051785 0.45615295 
0.9163142 0.39999542 -0.01929066 
0.41906992 0.6417592 0.6422815 
0.23889118 0.48740852 0.83985955 
-0.8247643 0.40271205 0.39697212 
-0.27155772 0.14098404 0.9520399 
-0.33684468 0.699329 0.63045585 
-0.89473844 0.33010912 0.30078402 
-0.9172616 0.39672592 -0.03521217 
-0.8344358 -0.043218296 -0.549408 
-0.5371696 -0.6565788 -0.52948385 
-0.26573545 -0.28402838 -0.92125595 
-0.70648915 -0.018639948 -0.70747846 
0.005775979 0.30377522 -0.9527262 
-0.4721102 -0.2948098 -0.83078223 
0.02231277 0.11431496 -0.9931939 
0.29375017 -0.5927637 -0.74989474 
-0.85135657 -0.16859993 -0.49675545 
-0.088634565 0.72032744 -0.687948 
0.82812935 -0.19278352 -0.52634245 
-0.10036018 0.32293883 -0.9410836 
-0.34942782 0.9245983 -0.15171745 
-0.42119727 0.9014216 0.100160606 
-0.8577275 0.5123385 -0.042578213 
-0.56716734 0.44326413 -0.6941456 
0.13057688 0.494053 -0.8595705 
0.09130417 -0.1556908 -0.98357713 
0.6420858 0.3689835 -0.67199486 
0.05063464 0.99871266 -0.0030106218 
-0.10200269 0.7639126 -0.63720715 
0.077782206 0.6797403 -0.72931683 
-0.25724822 -0.095001966 -0.9616642 
-0.12301349 -0.5555912 -0.82230544 
0.12058672 -0.7473731 -0.65336996 
-0.4770109 -0.09703569 -0.87352437 
-0.22236952 -0.5874036 -0.77814454 
-0.22527742 -0.2011018 -0.9533143 
0.5472195 -0.83368766 0.07426753 
0.38092297 -0.7649885 -0.51931715 
0.53612524 -0.5191914 -0.6655901 
0.1796432 -0.77941626 -0.6001988 
0.23041564 -0.22665572 -0.94632757 
0.30976236 -0.69949955 -0.6440092 
0.2752005 -0.8630747 -0.4235172 
0.46287203 -0.62138754 -0.6321606 
0.58558476 0.32190254 -0.7439552 
0.85456735 -0.39594507 -0.33606857 
0.65318424 0.08961579 0.75187725 
0.8990718 0.30175856 0.3171935 
0.3094339 0.95063585 0.023286473 
0.34327725 0.27289572 0.8987151 
-0.7827044 0.11013384 0.61257195 
-0.9405995 -0.24661884 -0.23334919 
-0.7034757 -0.1980112 -0.6825786 
-0.30220678 -0.12698138 -0.9447469 
0.009209501 0.03889941 -0.9992007 
0.6027592 0.52020514 -0.60503566 
0.06612664 -0.23011559 -0.97091407 
0.13678706 -0.51299566 -0.8474225 
0.5047857 -0.7473841 -0.43198204 
0.720783 -0.51740825 0.4612598 
-0.7330226 -0.5919214 -0.33512253 
-0.34826684 -0.8465017 -0.4026724 