# OOMMF: rectangular mesh v1.0
# Segment count: 1
# Begin: Segment
# Begin: Header
# Desc: Time (s) :  4.540000000000005e-07
# Title: m
# meshtype: rectangular
# meshunit: m
# xbase: 2e-09
# ybase: 2e-09
# zbase: 5e-10
# xstepsize: 4e-09
# ystepsize: 4e-09
# zstepsize: 1e-09
# xmin: 0
# ymin: 0
# zmin: 0
# xmax: 1.024e-06
# ymax: 1.024e-06
# zmax: 1e-09
# xnodes: 256
# ynodes: 256
# znodes: 1
# ValueRangeMinMag: 1e-08
# ValueRangeMaxMag: 1
# valueunit: 
# valuemultiplier: 1
# End: Header
# Begin: Data Text
0.027413817 -0.2893192 -0.95684016 
-0.7960655 -0.56081086 0.22753246 
-0.9235209 -0.04017885 -0.3814378 
-0.7887589 0.59171915 -0.16651702 
-0.77722317 -0.08877718 -0.6229308 
-0.32667223 0.46928865 -0.82039845 
0.44553417 0.33070284 -0.83194655 
0.38146415 0.33306038 -0.86229694 
0.2230431 -0.6108195 -0.7597049 
0.098209955 -0.9230574 -0.3719137 
0.08217623 -0.87132245 -0.48378137 
-0.81786746 -0.36784616 -0.4424728 
-0.6118961 -0.73822 -0.28392702 
-0.68412703 -0.6557441 -0.31932732 
-0.080184974 -0.99356014 -0.08005386 
-0.7008441 -0.31698743 -0.6390123 
-0.20977432 -0.8391717 -0.50178254 
0.25077248 -0.9339384 0.25470048 
-0.5478223 -0.7494484 0.37177655 
-0.7456184 -0.5342235 -0.39831966 
-0.5276215 -0.25243276 -0.8111063 
-0.5624935 -0.47419837 -0.67730135 
-0.08821885 0.553059 -0.8284583 
0.27081528 0.27571636 -0.9223013 
0.6184846 0.28025222 -0.7341223 
0.87802935 -0.12841518 -0.4610574 
0.9263684 -0.36110538 -0.10697868 
0.95478106 -0.27077034 0.12278697 
0.77093387 -0.4438273 -0.4568134 
0.29209784 -0.9304486 0.2212334 
0.4747342 -0.8792223 0.039945193 
0.32234028 -0.89333093 0.31313974 
0.16869484 -0.41256607 0.8951712 
-0.6317813 -0.747945 0.20354562 
-0.68051696 -0.13206843 -0.72073203 
-0.6872345 -0.6656519 -0.2908888 
-0.49780518 -0.44205084 -0.7461777 
-0.13147137 -0.95552033 -0.26400036 
0.07711327 -0.7486306 0.6584876 
-0.68609613 -0.3448361 0.6405937 
-0.75860506 -0.5294704 0.3797098 
-0.6001355 -0.48047805 -0.6395141 
0.25007108 -0.800703 -0.5443704 
0.22041945 -0.8322353 0.5087237 
-0.03552706 -0.9358578 0.35058248 
0.06232803 -0.9980342 -0.0065697823 
0.7205843 0.29341257 -0.62822556 
0.9091314 0.2929277 0.2960973 
0.6647902 -0.059546255 0.7446531 
-0.65428394 -0.34990343 0.6704328 
-0.13448864 0.43454626 0.89055175 
-0.27468446 0.7345382 0.62048537 
-0.84782475 0.5210583 -0.098445065 
-0.6816709 0.5391899 -0.4945696 
-0.8850027 0.13227655 0.44640043 
-0.9694004 0.081132114 0.23169045 
-0.8358347 0.09054154 -0.5414635 
-0.7222578 -0.3515324 0.5956246 
-0.95683706 -0.2901907 0.015885204 
-0.34607127 -0.7130752 -0.60972005 
-0.68128484 -0.55712986 -0.47482353 
0.09193198 -0.7750692 -0.62515306 
-0.10610895 -0.78089625 -0.61558276 
0.08317034 -0.9907803 -0.106944695 
-0.36576745 -0.49917462 -0.78551835 
0.42035505 -0.8401295 -0.34275967 
0.7123387 -0.31177115 -0.6287865 
0.8815955 -0.110787995 -0.45881954 
0.74877435 0.6273648 -0.21389344 
-0.17118074 0.32013902 0.93177694 
0.15794975 0.47658068 0.8648253 
-0.013041297 0.5083533 0.86104983 
-0.32530653 0.8744602 0.35985437 
-0.7361449 0.6739268 -0.06255855 
-0.7184445 0.6925599 -0.06479433 
-0.6978249 0.6984531 0.1587567 
-0.766075 0.5900389 0.25491795 
-0.19309542 0.30986348 0.93096656 
-0.9195206 0.3885442 0.05929058 
-0.9195503 0.046417806 0.3902216 
-0.93713206 -0.029096082 0.34775987 
-0.9330091 0.3454816 0.1006802 
-0.82721436 -0.31726494 -0.46374494 
0.03885537 -0.3429428 -0.9385523 
-0.41598287 0.15849756 -0.8954534 
-0.73221564 -0.23802619 -0.6381253 
0.010674717 -0.46994415 -0.8826316 
0.33912998 -0.050331336 -0.93939215 
0.5072192 -0.38280597 -0.7721323 
0.19696948 0.9325283 -0.302645 
-0.027825385 0.9965596 -0.07806856 
0.69421124 0.71424687 0.08900704 
0.6596143 -0.005994198 0.7515804 
0.014677466 0.7876512 0.6159467 
0.7397407 0.2765678 0.6134281 
-0.24638394 0.9623385 0.114889145 
-0.5790368 0.783229 -0.22642596 
-0.18611002 0.41103926 -0.892418 
-0.16177142 0.91306484 -0.3743564 
-0.40345633 0.509647 -0.759923 
-0.63520956 0.06535337 -0.76956993 
-0.25906911 0.052040163 -0.9644559 
-0.39148173 0.009879572 -0.9201329 
-0.30455294 0.5144775 -0.8015986 
0.31693888 -0.4070318 -0.85666496 
-0.178128 -0.41250917 -0.8933682 
0.521879 -0.12264956 -0.84415615 
0.62497026 -0.17021975 -0.76186454 
0.6505981 -0.3964923 -0.6477006 
0.36618903 -0.8640988 0.34530997 
0.51663595 -0.8545857 0.052636843 
0.7915512 -0.5180588 0.32413262 
0.90824914 0.026817756 0.41756958 
0.57458335 -0.7450893 0.33866808 
-0.0067226193 -0.5727962 0.8196703 
0.3006698 0.11560394 0.94669604 
0.8694204 -0.4687342 -0.15619397 
-0.50683177 -0.8183931 -0.27083975 
-0.024564428 -0.8769113 -0.48002413 
-0.6606114 -0.7339676 -0.15774754 
-0.72718656 -0.5217958 -0.44601452 
-0.3960111 -0.7776424 -0.48831084 
0.7579854 -0.6148363 0.21779473 
0.7616571 -0.4339294 0.48123166 
0.995314 -0.010028295 0.09617497 
0.7804656 -0.24417058 -0.5755469 
0.89295214 -0.41165513 -0.1821445 
0.85684156 -0.12172383 0.5010048 
0.78171366 -0.27179146 0.56129605 
0.72490644 0.5863375 0.36155093 
0.3788704 0.88107836 0.28312224 
0.04825605 0.668 0.74259514 
-0.70287913 0.070556864 0.70780134 
-0.54905474 0.26722318 0.79191583 
-0.932794 0.021449933 0.35977137 
-0.8392755 0.5420904 -0.041888352 
-0.8548318 0.49849743 0.14409357 
-0.755119 0.34381145 -0.55820155 
-0.8859245 -0.13334797 0.44424796 
0.25242478 -0.96761537 0.001520562 
-0.22024715 -0.82508284 0.52031684 
0.16545849 -0.8511844 0.49810517 
0.18385376 -0.6355991 0.7498077 
0.0640255 -0.16567443 0.98410004 
-0.55730975 -0.41573653 0.71872735 
-0.280472 -0.32347006 0.90371597 
-0.5789279 -0.3676062 0.72781056 
-0.5060311 0.25932434 0.8226077 
-0.520202 -0.09537962 0.84870064 
-0.1102395 -0.4971163 0.86065245 
-0.49602205 -0.51467305 0.69933814 
0.08990295 -0.8788213 0.46860486 
-0.15039994 -0.882698 0.44522357 
-0.6594383 -0.74731857 0.08158491 
-0.5556191 -0.77623713 -0.29789838 
-0.14253649 -0.9884221 -0.0520118 
-0.26206696 0.28739566 -0.9212626 
0.2609612 0.033521507 -0.9647671 
0.44968203 0.17620242 -0.8756363 
-0.09268349 0.9416953 -0.32345012 
0.1006627 0.65227723 -0.7512666 
0.39333317 0.89000875 0.23059408 
0.25428188 0.8983521 -0.35819608 
0.35862574 0.9180082 0.16925919 
-0.3539674 0.9082414 0.22316958 
0.18312977 0.97977364 0.08066704 
-0.6844216 0.5459607 -0.48321223 
-0.41839096 0.6110582 -0.67197984 
-0.64424264 0.1345533 -0.7528924 
-0.93234164 -0.3277789 0.15264381 
-0.056821875 -0.75402653 -0.6543817 
0.49567172 -0.78498346 0.3716325 
0.279764 -0.878282 0.38775387 
0.33743438 -0.84629446 0.41221797 
-0.095874585 -0.58428687 0.8058641 
-0.27705753 -0.5232072 0.80591166 
-0.60271174 0.21481726 0.7684999 
-0.15593311 0.4987142 0.8526248 
0.29650733 -0.94357586 -0.14747255 
-0.19191042 -0.9756847 -0.1058771 
-0.36676228 -0.49037293 -0.79058194 
0.34809047 -0.806561 -0.47779956 
-0.43744698 -0.8959769 -0.07658662 
0.14996941 -0.97047955 -0.18888825 
0.7442061 -0.6618512 0.09005794 
0.4863449 -0.78091353 0.3919729 
0.40185153 0.4610757 0.7911541 
-0.026879996 -0.20743911 0.97787863 
-0.60447687 0.39097443 0.69407976 
-0.6437942 0.15370207 0.7496031 
-0.5028856 0.43271843 0.7482385 
-0.82520247 0.09319105 0.5570965 
-0.8409779 0.36406937 0.40026197 
-0.55900365 0.59662557 -0.5758064 
0.063130215 0.12559447 -0.990071 
-0.15507068 -0.16526192 -0.97398233 
-0.17535977 -0.46359167 -0.86852276 
-0.060965255 -0.114511766 -0.99154943 
-0.3589886 -0.01247522 -0.93325865 
0.41975108 0.004880615 -0.90762615 
0.29465568 -0.30719185 -0.90488183 
0.45195338 0.07754259 -0.88866496 
0.44381306 0.21166816 -0.87076217 
0.69323033 0.00654312 -0.72068644 
0.2695919 -0.58051836 -0.768322 
0.38745874 -0.38630667 -0.8370441 
0.56213903 -0.58028233 -0.589298 
0.23274097 -0.7462034 0.6237085 
0.4947176 -0.7646772 0.41294473 
0.0006426318 0.19967721 0.9798616 
-0.12980877 0.14903508 0.98027456 
-0.19274317 0.39357 0.89886194 
-0.9556826 -0.14177981 -0.2580104 
0.23708206 0.19621563 -0.95146805 
0.16114141 -0.09419816 -0.9824257 
0.5603426 0.39389426 -0.72860384 
0.66975284 0.45785215 -0.58463883 
0.16913995 -0.21705021 -0.96139526 
-0.40053692 -0.7168757 -0.57066584 
-0.552265 0.83059394 -0.07153488 
-0.46492487 0.8101746 0.35701835 
-0.7968048 0.22540437 0.56062025 
-0.590648 -0.7450708 0.30984592 
-0.14544661 -0.95468104 0.2596718 
0.0874114 -0.98984814 0.112071194 
0.006583952 -0.9817209 -0.19021258 
-0.16340569 -0.9202205 -0.35565826 
-0.8331145 -0.47581655 0.281991 
-0.5242535 -0.8461843 -0.09555292 
-0.4803094 -0.78401303 -0.39322594 
-0.44249496 -0.78125745 -0.44026706 
-0.51239675 -0.54509467 -0.6635672 
0.10261488 -0.7136918 -0.69290274 
0.66077065 -0.18015185 0.7286477 
0.3726323 -0.7593625 0.5333983 
0.46192336 -0.86464155 0.1975399 
0.42026877 -0.8898162 -0.17776719 
0.7478367 -0.63115233 -0.20588087 
0.19848558 -0.8984707 0.39160421 
0.40058324 -0.25442153 0.8802288 
-0.0034876976 -0.5531166 0.83309656 
-0.24560727 -0.42830175 0.8696176 
0.64085835 -0.5612169 0.5237712 
0.142681 -0.4325171 0.89026463 
-0.383293 -0.6107345 0.69288516 
0.87545466 -0.36908576 0.3120173 
0.8245273 0.08909494 0.55876374 
0.6015087 0.532334 0.59565747 
0.58468807 0.23707373 0.77584535 
0.83337665 0.04189601 0.5511153 
0.52794015 0.3562904 0.77093214 
0.37043574 0.8379082 0.40085807 
-0.1786158 0.9825925 0.0510723 
0.3394529 0.7510312 0.56632483 
0.7607538 0.04050975 0.6477752 
0.8494582 -0.2946067 0.4377529 
-0.28729042 0.43763557 -0.85202074 
-0.8275114 -0.33141568 -0.4531981 
-0.91149104 -0.3971452 -0.10705042 
-0.27410385 0.8948416 -0.3523147 
0.2510253 0.7559534 -0.60458314 
0.013162135 0.22488125 -0.9742973 
-0.4533561 -0.25662515 -0.8535877 
-0.79298306 0.46829292 -0.38971758 
-0.6567966 -0.662311 -0.36050302 
0.17468044 -0.8914312 -0.4181355 
-0.34994218 -0.48002598 -0.804435 
-0.37692544 -0.24270166 -0.8938809 
-0.44354048 -0.5986723 -0.66698086 
-0.2503729 0.14641257 -0.9570146 
-0.41440764 -0.39142916 -0.821614 
-0.29328302 -0.6156783 -0.7313859 
0.29700786 -0.7075664 -0.641199 
-0.5185816 -0.5694506 -0.637808 
-0.26583508 -0.62359965 -0.7351566 
-0.17803206 -0.7025071 -0.68904895 
0.5289986 0.14462392 -0.83620846 
0.26713264 -0.11889805 -0.9562967 
0.7533691 0.35952088 -0.5506177 
0.45793074 0.44060045 -0.772121 
0.56626636 0.30982664 -0.76377344 
0.9102474 -0.21494778 -0.35390294 
0.87411493 0.38358364 -0.29797092 
0.9652508 -0.1977314 0.17086028 
0.9432985 0.17316464 -0.2831995 
0.18238828 -0.8562247 -0.4833363 
-0.43217883 -0.90121037 -0.032272883 
0.23105522 -0.9727537 0.019075023 
-0.04982615 -0.5806256 0.81264466 
-0.80386746 -0.5948045 -0.002179601 
-0.69213426 -0.57958037 -0.43015903 
-0.78362125 -0.5246378 -0.33270562 
-0.78678536 -0.27893984 -0.5506008 
0.02960351 -0.901961 -0.43080163 
-0.20923288 -0.95955527 0.18834876 
0.009821777 -0.94401646 -0.32975218 
-0.15258393 -0.8197216 -0.552064 
0.65494126 -0.38143685 -0.65234804 
0.2637292 -0.8982546 -0.3515478 
0.6214387 -0.5369606 -0.57051504 
0.7561049 -0.65348756 0.035489347 
0.5677618 -0.30352315 0.765193 
0.9919649 0.0007361353 0.1265121 
0.88640773 0.33315533 0.321386 
-0.06539405 -0.56870276 0.8199395 
-0.6650739 -0.19596492 0.72060704 
-0.8142541 0.18910654 0.54884344 
-0.38597468 0.29319233 0.87467813 
-0.85754937 0.5144009 -0.00089198875 
-0.6786468 0.7341228 -0.022414085 
-0.8743422 0.39388496 0.28351444 
-0.94455683 0.08433456 0.31733295 
-0.9061728 0.2983958 0.29968446 
-0.7125734 0.43927416 0.5470626 
-0.8204465 -0.2050986 -0.5336686 
-0.4562886 -0.44873506 -0.76839936 
0.15189184 -0.72431713 -0.67252785 
-0.21813352 -0.9299611 -0.29595655 
-0.39473906 -0.9052217 0.15733667 
-0.45908004 -0.783796 -0.41822177 
-0.1401552 0.004760101 -0.9901182 
0.1006619 -0.6408977 -0.7609976 
0.6479738 -0.11592031 -0.75278986 
0.75642073 -0.1973722 -0.62359595 
0.3882518 0.88544726 -0.2554285 
0.4656077 0.105501965 0.87868017 
0.015652254 -0.056646053 0.9982717 
0.021031119 0.3369644 0.9412826 
-0.26848102 0.30157715 0.9148603 
-0.71619284 0.40152124 0.5708315 
-0.7012966 0.5405365 0.46476156 
-0.9102126 0.14578438 0.3876339 
-0.92442715 0.08380101 -0.37203756 
-0.3928219 -0.7748452 -0.49528375 
-0.8468092 -0.31079334 0.4316501 
-0.57381815 -0.5012789 0.6476513 
-0.90665346 -0.000830333 0.42187533 
-0.91518193 0.22484836 0.3344927 
-0.75687116 -0.39265725 -0.5224619 
0.12487939 -0.16608194 -0.97817284 
0.58589524 8.196805e-05 -0.8103868 
-0.08934648 -0.7266598 -0.6811629 
0.6844882 -0.31454465 -0.657676 
0.83625776 -0.24722604 -0.4894408 
0.8366442 0.16563757 -0.5221024 
0.91145635 0.30436853 -0.27678004 
0.87771666 -0.31056243 0.36491707 
0.110427074 0.20753014 0.9719759 
0.36090702 0.45642465 0.81327903 
-0.45560122 0.51380646 0.7269322 
-0.55947477 0.75068116 0.3513771 
-0.010848019 0.87774223 0.4790105 
-0.77935255 0.6144597 0.12267417 
-0.93195516 0.36138493 0.02933602 
-0.5029135 0.769764 -0.39311755 
-0.3850346 0.5564919 -0.7362508 
0.005398831 0.4193995 -0.9077858 
0.0077525303 0.5354631 -0.84452313 
0.27181044 0.8916833 -0.361967 
0.92806214 0.012445664 -0.3722175 
0.38863948 0.506508 -0.76968116 
0.3362545 0.12370488 -0.93361133 
0.3147144 -0.026260734 -0.9488231 
0.21197711 0.04287354 -0.9763338 
0.17562287 -0.53056175 -0.8292532 
0.4995777 -0.8614593 -0.09116015 
0.8075765 -0.49792928 0.31604862 
0.9619174 -0.120369524 0.24541013 
0.69246846 -0.5107015 0.5095798 
0.41706124 -0.8397296 0.34772742 
0.6801975 -0.5586882 0.47455135 
0.7817177 -0.3707164 0.5014845 
0.26895556 -0.84248275 -0.4667824 
0.22909822 -0.9516257 -0.2047503 
-0.5844204 -0.80593234 -0.094476976 
-0.24516404 -0.9672405 -0.06588182 
-0.37923247 -0.8778236 0.29258955 
0.07576722 -0.99625045 0.04176707 
0.4487896 -0.6609262 -0.60146856 
0.5869301 -0.67984694 -0.43968308 
0.965264 -0.19756977 -0.17097245 
0.621933 -0.77292174 -0.12566383 
0.5055207 -0.39789128 0.76559216 
0.19825448 0.11864874 0.9729428 
0.60893834 0.71283996 0.34792724 
0.35762325 0.44026878 0.8235709 
0.17335583 0.49211487 0.85309476 
0.0049383296 0.6358055 0.77183366 
-0.59602696 0.32731375 0.7332241 
-0.6854631 -0.1907263 0.7026834 
-0.71670145 -0.58187014 0.3844037 
-0.9862888 0.16408922 -0.01758581 
-0.631513 0.7645009 0.12934367 
-0.88160574 -0.3900869 -0.26571345 
-0.4538895 -0.8705662 -0.18999723 
-0.29597285 -0.93957853 -0.17202446 
-0.2482426 -0.9392448 0.23705497 
-0.008311084 -0.63940686 0.7688237 
0.32511014 0.041215017 0.9447776 
0.16806133 -0.982854 -0.0758518 
-0.17636335 -0.88281655 0.43535164 
-0.13901368 -0.9581508 0.25024438 
-0.88514435 -0.46075404 0.06500201 
0.1887339 0.31830293 0.92901176 
-0.5273262 0.03260363 0.8490372 
0.09202154 -0.7682146 0.6335443 
0.06347201 -0.40825316 0.91065955 
0.24944648 -0.61781687 0.745707 
0.26061708 -0.753035 0.60416657 
-0.3955143 -0.7668485 0.5054818 
-0.60154957 -0.65220904 -0.4612608 
-0.45465922 -0.82225335 -0.34232226 
0.09345661 0.21221152 -0.97274464 
0.033347975 -0.049402278 -0.9982221 
0.3484895 0.53389686 -0.77039564 
0.6623863 0.5942909 -0.4561389 
0.9143174 0.0987253 -0.39278114 
0.6168844 0.48123387 0.6227903 
0.22561851 -0.1268135 0.9659269 
0.69456303 0.27764288 0.66369927 
-0.14166412 0.95509243 0.26024944 
-0.8156835 0.5769889 0.041764766 
-0.64312434 0.7429411 0.18555242 
-0.35206676 0.6787721 -0.6444514 
-0.28132656 0.42663464 -0.859557 
-0.13423763 0.049360305 -0.9897191 
0.10959152 -0.8628249 -0.49348053 
-0.13020094 -0.9703312 -0.20372833 
0.3738736 -0.9185033 0.12872623 
0.23060472 -0.9460754 0.22751462 
-0.5991019 -0.6078061 -0.5211994 
-0.49560145 -0.83031136 0.2548769 
-0.46845695 -0.6977142 -0.5419806 
-0.7724268 -0.25042996 -0.5836451 
0.06804067 -0.57619804 -0.814473 
-0.16108361 0.04061644 -0.9861047 
0.42838597 -0.27657354 -0.86022824 
0.6750294 -0.7370044 -0.034057878 
-0.31947678 -0.5406906 -0.7781956 
-0.2620545 -0.8314589 -0.4899015 
0.8631789 -0.49553806 -0.096769854 
0.71556145 -0.28591937 0.6373555 
0.676466 0.06483292 0.73361474 
-0.23731315 0.36886337 0.89867806 
-0.14299762 0.30353677 0.9420282 
0.55295396 0.31018877 0.7733207 
0.21300891 0.028598258 0.97663164 
-0.59597766 0.64230424 0.48192927 
-0.17168443 0.9519311 0.25367612 
-0.1501785 0.9881812 0.030730836 
-0.30677596 0.88991404 -0.33755222 
-0.48178932 0.62312216 -0.61611515 
0.27951097 0.062006153 -0.9581382 
0.64009833 0.17370373 -0.7483991 
0.18044737 0.40398383 -0.896792 
0.45673773 0.55984104 -0.6913529 
0.63969827 0.16146718 -0.7514749 
0.36120698 0.0853528 -0.92857116 
0.83625615 0.21063113 -0.50627095 
0.78974146 -0.20477767 -0.5782513 
0.6394124 0.20597336 -0.740761 
0.95957106 0.21293563 -0.18406999 
0.8685689 0.21337143 -0.44728145 
0.8722162 -0.47160655 0.12971552 
0.46515092 0.7844755 0.4101622 
-0.004480952 0.8578562 0.5138704 
-0.15039837 0.65515333 0.7403746 
-0.5373453 -0.78821594 0.2999596 
-0.952911 -0.1856359 -0.23979138 
-0.046292834 0.12776569 -0.9907235 
0.41668573 0.04156906 -0.9080997 
0.2770139 0.20537205 -0.93866163 
-0.20212562 -0.08127544 -0.9759814 
0.6342186 0.6530851 -0.4138196 
-0.9207416 0.2157624 -0.3250868 
-0.63817394 0.7666812 -0.07024256 
-0.46673256 0.23230511 0.85334355 
-0.7384113 -0.456376 0.49645716 
-0.8085774 -0.58564276 -0.056791782 
-0.9204068 0.078926414 -0.38291243 
-0.46591327 -0.15014872 -0.8719979 
-0.05803471 -0.76442796 -0.6420919 
-0.23822972 -0.83332884 -0.49880823 
-0.5347685 -0.84495777 0.00830929 
-0.51034755 -0.7964167 0.32444707 
-0.33347973 -0.70943207 -0.6208845 
-0.06531568 -0.6414448 -0.7643837 
-0.31795076 -0.9057967 -0.28007096 
-0.3347553 -0.94112366 0.04717328 
0.21154511 -0.6334249 0.7443263 
0.02890284 -0.9989357 0.035945162 
-0.4306112 -0.69959927 -0.57020605 
0.7631257 -0.38121292 -0.521839 
0.9210873 0.08474099 -0.38002273 
0.9174743 -0.3925628 0.06430689 
0.65740144 -0.32395086 0.68035233 
-0.06767354 -0.77107 0.63314414 
0.042194135 -0.8730541 0.48579454 
-0.018888664 -0.9992075 -0.03503682 
0.44526535 -0.810739 -0.380054 
0.56190765 -0.7917215 -0.23966004 
0.08170974 -0.7867232 0.6118743 
0.950392 0.08173608 0.3001236 
0.40585375 0.41387978 0.81485367 
0.5168558 0.13768727 0.84492743 
-0.009146975 -0.40500098 0.9142705 
-0.057649773 0.1674177 0.98419905 
-0.04829448 -0.051173605 0.9975214 
0.06074613 0.045291927 0.9971252 
-0.028150342 -0.4811601 0.87618077 
0.34075764 -0.2483574 0.906754 
0.64903045 -0.5566391 0.5185676 
-0.4683051 0.82697016 -0.3111443 
-0.7945666 0.5282574 -0.29934627 
-0.65335804 0.75330865 -0.075162455 
-0.79029834 0.46077904 0.40387052 
-0.6963221 0.53314596 -0.48051128 
-0.1796901 0.25156513 -0.95101345 
-0.19637828 -0.28457928 -0.9383232 
-0.7611791 0.4440834 -0.47264838 
0.21565492 -0.2942021 -0.9310951 
0.3274999 -0.36826065 -0.870131 
-0.033969298 -0.06806218 -0.9971026 
-0.11939282 0.25337103 -0.9599732 
-0.46545845 -0.29877886 -0.8331145 
-0.34363657 0.6601259 -0.66794294 
-0.5314549 -0.3035887 -0.7908157 
-0.5448839 -0.34176785 -0.7657 
-0.20330288 -0.30340064 -0.9309222 
0.42016277 -0.44183284 -0.7926204 
-0.07115495 -0.5169863 -0.85303116 
0.3302354 -0.39419553 -0.85764474 
-0.12526114 -0.48268443 -0.86679024 
0.15059702 -0.23474805 -0.9603197 
0.4382001 0.06557787 -0.8964822 
0.47586036 0.5396677 -0.69448954 
0.8436809 0.25015038 -0.47500238 
0.76477754 -0.3816445 -0.51909804 
0.94411993 0.082629815 -0.31907648 
0.94258386 -0.28395003 -0.17580725 
0.28088298 -0.95168626 0.12408919 
0.70477617 -0.6849079 -0.18491013 
0.2671448 -0.9330729 -0.24084955 
0.4830091 -0.7442408 0.461311 
-0.19997364 -0.88758993 0.41496363 
-0.800357 -0.48961467 0.3459859 
-0.39489016 -0.85651577 -0.33232883 
-0.38683742 -0.41751632 -0.8222147 
-0.22801225 0.10444051 -0.9680406 
-0.41112462 -0.064288765 -0.90930945 
-0.32212383 -0.94263315 -0.08762962 
-0.32805368 -0.5964061 -0.7325849 
-0.029205719 -0.9063362 -0.42154709 
0.46986276 -0.7014707 -0.53588057 
0.575791 -0.5499505 -0.6049952 
0.47794533 -0.64015776 -0.60147023 
0.90064454 -0.33885202 -0.2720637 
0.73658645 -0.47067338 0.48570254 
0.66634667 -0.6512287 0.36315748 
0.71604794 -0.4347241 0.54615974 
0.633958 0.035385687 0.77255756 
-0.07990329 0.20203428 0.97611356 
-0.41842878 0.43815663 0.79557294 
-0.93493533 0.2120409 0.28449023 
-0.9604366 -0.03600882 0.27616107 
-0.6496586 0.6116996 -0.451406 
-0.9864456 -0.059750814 0.1528234 
-0.8220462 0.51482505 -0.24330083 
-0.93839717 -0.26373672 -0.22327967 
-0.9759867 0.17997113 0.122721 
-0.6934642 0.00426745 -0.7204785 
-0.063823745 -0.41584632 -0.90719265 
0.26752234 -0.60539335 -0.7496204 
-0.020457972 -0.95681304 0.28998336 
-0.07062347 -0.78772366 -0.6119672 
-0.63313913 -0.28992468 -0.7176898 
0.16217454 -0.49059257 -0.8561649 
0.3909312 -0.45488834 -0.80015594 
0.5817482 -0.21841043 -0.783496 
0.94804305 -0.28763902 0.1359349 
0.77155125 -0.11685533 0.6253427 
-0.16597447 -0.39606914 0.90309566 
0.56610453 -0.48000735 0.67016315 
0.4723539 -0.09317607 0.8764702 
-0.14388116 -0.41862628 0.8966885 
-0.83368003 0.16420008 0.5272723 
-0.7832047 -0.28769827 0.55119896 
-0.827452 -0.46572557 0.3137242 
-0.97131073 0.19072089 0.14206019 
-0.7177138 -0.2644657 0.6441622 
-0.6639244 -0.51068574 0.54626423 
-0.8671325 -0.46782964 0.17092936 
-0.5515924 -0.79858506 -0.24084786 
-0.08198031 0.6801462 -0.72847813 
-0.6293948 0.18140866 -0.7556144 
-0.43518567 0.3157179 -0.8431701 
-0.32883316 0.13129821 -0.93521637 
-0.24570628 -0.28858355 -0.9253907 
0.53005743 0.27851355 -0.8009179 
0.6012927 -0.3917263 -0.6964177 
0.77203506 -0.068835 -0.63184154 
0.8142237 0.15240045 -0.56019104 
0.90418714 0.23820248 0.35454944 
0.673216 0.45617875 0.58196324 
0.5438836 0.37374213 0.75133705 
-0.27163783 0.5898068 0.7604872 
-0.14662597 0.84271026 0.51801586 
-0.5713131 0.81706583 0.07749077 
-0.63529074 0.6081043 0.47604087 
-0.7822244 0.3923963 -0.48389065 
-0.8177358 0.38428 -0.42852896 
-0.5175947 0.66333276 -0.5404493 
-0.3274972 0.35118246 -0.8771639 
-0.5395057 -0.30185467 -0.7860136 
-0.25568885 0.56816876 -0.7821814 
-0.11367656 -0.27937096 -0.95343035 
0.14025664 0.7214355 -0.678129 
0.8383453 -0.078164704 -0.53950673 
0.58460754 0.32295448 -0.7442678 
0.45805004 0.41330078 -0.7870024 
0.7372701 0.25497115 -0.6256377 
0.6706888 -0.15489204 -0.7253861 
0.62875575 -0.303276 -0.71602374 
0.9508217 0.030941844 -0.3081894 
0.9918985 -0.075726785 0.101994336 
0.9624466 0.120368466 -0.24332736 
0.93566114 -0.3474141 -0.0619815 
0.5868004 -0.7806834 0.21493892 
0.8686692 -0.41164926 -0.27560598 
0.04452495 -0.9450509 -0.32387722 
-0.009439562 -0.9463322 -0.32305762 
0.021910237 -0.9890602 -0.14587593 
-0.7389891 -0.49770722 -0.4540734 
-0.1729433 -0.8689733 -0.46365514 
0.09333861 -0.7619728 -0.6408475 
0.37230638 -0.571452 -0.7313211 
0.7456808 -0.50542486 0.43417266 
0.91055363 -0.1715742 0.3761044 
0.574585 -0.75355023 0.31939638 
0.5346715 -0.4427241 0.7198068 
0.058855757 0.6568274 0.75174063 
0.21171115 0.17191838 0.9620928 
-0.20608658 0.32179984 0.9241068 
0.16227068 -0.11171803 0.98040164 
-0.6414813 0.32775143 0.69359994 
-0.31105125 -0.3147477 0.89676136 
-0.5057979 -0.85350645 0.12528034 
-0.63907105 -0.6440966 0.42039013 
-0.9695818 0.22513057 -0.09605998 
-0.4771074 -0.8784746 0.025514906 
-0.011889646 -0.995769 -0.09111901 
-0.14732414 -0.89500844 0.42101708 
0.0650454 -0.99349725 0.09344739 
-0.35732117 -0.7108984 0.60576004 
-0.9460668 0.073959075 0.3154166 
0.14305735 -0.86737806 -0.4766443 
0.4371388 -0.8945347 0.09336636 
0.23707311 -0.18621868 0.9534773 
0.0007077778 -0.85841453 0.51295614 
0.614885 -0.71267974 0.3376449 
0.16925856 -0.25979096 0.9507157 
-0.45299003 -0.39181975 0.8007979 
0.26152122 -0.68700206 0.67796385 
0.22378577 -0.9674798 -0.11790963 
0.6978499 -0.54794884 0.46125644 
-0.36874807 -0.76082873 0.534008 
-0.041123528 -0.41935018 -0.9068928 
-0.7755058 -0.08018812 -0.6262274 
-0.22336489 -0.11503812 -0.9679228 
0.17613089 0.60616726 -0.7755897 
0.6421906 0.76648855 -0.009309787 
0.81396186 0.57007736 0.11170554 
0.41095042 0.8729941 0.26268086 
0.7226889 0.49522915 0.48215032 
0.19596872 -0.018984158 0.98042643 
0.073239796 0.0798252 0.99411464 
0.37818876 0.052026495 0.92426544 
-0.39612624 0.169275 0.90245783 
-0.7600972 -0.34730494 0.54921 
-0.93401164 0.20996714 0.2890261 
-0.85139096 0.23737437 -0.46774668 
-0.7262057 0.6874749 0.0018952674 
-0.33360806 -0.37552133 -0.86469036 
-0.5866509 -0.46842143 -0.6606225 
-0.15239824 -0.6703611 -0.7262168 
-0.41511652 -0.8898657 -0.18925507 
-0.6396294 -0.40080455 -0.65591913 
-0.43495268 -0.69467026 -0.57293063 
-0.7478084 -0.361933 -0.55658525 
-0.46142834 -0.51700336 -0.7209657 
-0.2321265 -0.63488954 -0.7369075 
0.22273287 -0.20151092 -0.9538257 
0.43389007 -0.17790644 -0.8832264 
0.39977613 -0.5441453 -0.7376212 
0.4207205 -0.76975775 -0.48007032 
0.3961564 -0.91651934 0.055250105 
0.96883994 -0.16731116 -0.1826365 
0.2912033 -0.7380675 0.6086518 
0.46342742 -0.5205776 0.7171011 
0.40558022 -0.2864804 0.86800563 
-0.09827394 0.12207536 0.98764366 
0.08201016 0.29441887 0.95215124 
-0.32555345 0.26622272 0.90727097 
-0.117212765 0.9817532 0.14973931 
-0.7055702 0.66848576 -0.23515436 
-0.8495381 0.49335438 -0.18677928 
-0.06347803 0.9954623 -0.070891336 
0.39174262 0.65002704 -0.6511549 
0.6405054 0.3045605 -0.70497936 
0.94205076 0.33207846 -0.047586452 
-0.010095731 0.73801064 -0.67471355 
-0.17849654 -0.30011368 -0.93705434 
0.4842025 0.6622308 -0.57183766 
0.30002493 0.67912495 -0.6699063 
0.6898136 0.72305876 0.036649503 
0.8105564 0.45863602 0.3642134 
0.46731713 0.8081791 -0.35841516 
0.55782 0.65727997 -0.5067741 
0.45114446 0.8742529 0.17930593 
0.7871572 -0.532818 0.31062603 
0.7579477 0.05008271 0.65038985 
-0.37315276 0.1779884 0.9105368 
-0.96679276 -0.23758468 -0.094156235 
-0.6773897 0.1122436 -0.7270107 
-0.21460667 -0.18789797 -0.9584562 
-0.8298489 0.049974367 -0.5557458 
-0.45068645 -0.25706562 -0.8548679 
-0.050655127 0.25541392 -0.9655039 
-0.37979278 -0.019681314 -0.92486227 
-0.15086544 0.96413773 -0.21835338 
-0.27077436 0.96262974 0.005019618 
-0.2536015 0.77434254 0.579724 
-0.49888715 0.8662614 0.02650868 
-0.9960142 0.08733735 -0.018108426 
-0.84807515 -0.37256783 -0.37677822 
-0.41138494 -0.46501973 -0.7839126 
-0.66414297 0.095370315 -0.7414976 
-0.41622677 -0.5385954 -0.7325779 
-0.3761035 -0.06477482 -0.92431074 
-0.3659356 -0.67365336 -0.6420922 
-0.11514033 -0.9596313 -0.2566137 
-0.16880894 -0.90650564 -0.38697705 
0.26997778 -0.9595921 0.07934163 
0.5694267 -0.47694167 0.6695371 
-0.2675451 -0.7962203 0.54263514 
0.18619414 -0.96995854 0.15656362 
-0.33209476 -0.8654857 -0.3750302 
-0.51400685 -0.4372936 -0.7379508 
0.1559939 -0.98674643 -0.044693314 
0.16349027 -0.92842335 -0.33361837 
0.81969357 -0.54440707 -0.1781111 
0.8920725 -0.410518 0.1888957 
0.74604636 -0.6361436 0.1968149 
0.014594328 -0.9978459 -0.06395793 
0.13144603 -0.9748135 -0.18016838 
0.27647242 -0.9604748 -0.03242475 
0.36116096 -0.93076915 0.056846563 
0.15045342 -0.8906327 0.4291121 
0.71665204 -0.58823025 0.37469324 
0.7454212 -0.28093642 0.6045015 
0.5343048 -0.39185494 0.748978 
0.04740923 -0.6311818 0.77418476 
0.14167108 -0.1677546 0.9755961 
-0.050803587 -0.5298035 0.8465975 
0.19971094 -0.527906 0.8254883 
-0.09952766 -0.84045273 0.5326664 
0.11583918 -0.63168806 0.76651907 
-0.2822431 -0.81211424 0.51069486 
-0.44566062 0.8398882 0.30979723 
-0.5182103 0.8515552 0.07944716 
-0.9019688 0.38791373 -0.18967143 
-0.70606184 -0.58279073 0.40228322 
-0.8852054 0.46512702 0.008271239 
-0.08239314 0.3406715 -0.93656516 
-0.31006813 -0.4943804 -0.8120628 
-0.41001132 -0.2893633 -0.8649623 
-0.35594806 0.7877127 -0.50280184 
-0.7316657 0.18489191 -0.65611 
-0.76369596 -0.4524373 -0.46050966 
-0.68257135 0.16877073 -0.7110646 
-0.4417653 0.10128797 -0.89139456 
0.05393579 0.033376783 -0.9979865 
-0.09700217 0.65333354 -0.7508301 
-0.29013702 0.31891492 -0.90228254 
-0.1412945 0.35455737 -0.92429703 
0.70760685 -0.31327304 -0.63336617 
0.60638815 0.059210338 -0.7929613 
0.54939634 0.26327392 -0.793001 
0.09791849 0.37021053 -0.92377275 
-0.12703747 -0.25928888 -0.9574084 
0.28525126 0.4416928 -0.85061115 
0.1722784 0.6376519 -0.75081295 
0.7602201 0.5290556 0.37704858 
0.9852855 -0.17080578 -0.006165332 
0.56091386 -0.40079668 -0.7243878 
0.508208 -0.85499996 0.1034404 
0.38240117 -0.8919205 -0.24134472 
0.29247132 -0.94335246 -0.1566738 
0.33874285 -0.9331501 -0.12034993 
0.52302337 -0.8245183 0.21590753 
0.3593504 -0.8694774 0.33893424 
-0.14535417 -0.7717653 0.61907244 
-0.945535 -0.3236374 0.03496315 
-0.33325383 -0.5955087 -0.730966 
-0.29223898 -0.7936795 -0.53354406 
-0.24878372 -0.79175836 -0.55787593 
0.07011725 -0.6548985 -0.7524571 
-0.008755722 -0.15129396 -0.98845005 
-0.41830474 -0.4605266 -0.78290254 
-0.21145815 -0.5296131 -0.8214595 
0.60419613 -0.75044125 -0.26792756 
0.27739963 -0.94140023 -0.19187275 
0.1929401 -0.9812082 0.0021825782 
0.8626682 -0.5032038 -0.050888263 
0.88374305 -0.29835784 0.36052868 
0.95975435 -0.019212939 0.28018317 
0.36732155 0.034100305 0.9294687 
0.14073163 0.08842415 0.9860912 
-0.5303156 -0.6519353 0.54198337 
-0.9859362 0.13740802 -0.09512568 
-0.84452724 -0.34414247 0.41029236 
-0.77069163 0.53477514 0.34648237 
-0.92256975 0.18792185 -0.33697262 
-0.92109746 0.33057204 -0.20567368 
-0.46167868 -0.88683903 -0.019220768 
-0.64987814 -0.7584237 -0.049519185 
-0.46007273 -0.49213406 -0.73901105 
0.031334028 0.17005546 -0.9849362 
-0.566443 0.017345665 -0.8239183 
0.13644457 -0.24656378 -0.95947343 
0.04242568 -0.45988485 -0.88696456 
-0.07255521 -0.63743335 -0.76708186 
0.031148188 -0.018026348 -0.9993523 
0.62340736 0.03277914 -0.78120995 
0.7985235 0.1497231 0.5830465 
0.9859101 0.16710757 0.007501826 
0.8868136 -0.40987968 -0.21344894 
0.78368497 -0.44845834 0.42979416 
0.62953734 -0.7212074 0.2890375 
0.41507405 -0.61253965 0.6726878 
0.19618995 -0.009908708 0.9805159 
-0.22163396 -0.28745478 0.93179834 
-0.9575905 0.28810886 0.003704236 
-0.9351276 0.09054309 -0.3425467 
-0.96109575 0.03788685 -0.2736047 
-0.50077003 -0.82872915 -0.24987489 
-0.64564836 -0.7243953 0.24163955 
-0.9710131 -0.20089583 0.12951654 
-0.8513614 0.20382273 -0.4833634 
-0.22764118 0.36040124 -0.9045941 
-0.826641 -0.30099988 0.47546163 
-0.50808454 -0.040260665 -0.8603658 