# OOMMF: rectangular mesh v1.0
# Segment count: 1
# Begin: Segment
# Begin: Header
# Desc: Time (s) :  4.6300000000000053e-07
# Title: m
# meshtype: rectangular
# meshunit: m
# xbase: 2e-09
# ybase: 2e-09
# zbase: 5e-10
# xstepsize: 4e-09
# ystepsize: 4e-09
# zstepsize: 1e-09
# xmin: 0
# ymin: 0
# zmin: 0
# xmax: 1.024e-06
# ymax: 1.024e-06
# zmax: 1e-09
# xnodes: 256
# ynodes: 256
# znodes: 1
# ValueRangeMinMag: 1e-08
# ValueRangeMaxMag: 1
# valueunit: 
# valuemultiplier: 1
# End: Header
# Begin: Data Text
-0.78066474 -0.38869467 0.48936597 
-0.25310442 -0.7900957 0.55828935 
-0.27252215 -0.9606186 0.054255284 
0.22557306 -0.7757634 0.58932847 
0.073314846 -0.99704874 -0.022778666 
-0.022410883 -0.97752416 -0.20962936 
-0.5442871 -0.6988916 0.46400675 
-0.7563591 -0.59734887 0.2666369 
-0.95032334 0.11028646 -0.2910713 
-0.91026914 0.36517316 -0.19508612 
-0.22018181 0.16934088 -0.9606475 
-0.20274003 0.0066036214 -0.9792104 
-0.53974545 -0.7653022 -0.35069573 
-0.16273512 -0.9865716 0.013926846 
-0.30094504 -0.8963445 0.32557446 
-0.84337574 -0.48380524 0.23377316 
-0.3277181 -0.315352 -0.890592 
0.22017127 -0.3930933 -0.8927499 
0.13999188 -0.8409785 -0.5226447 
0.4456843 -0.78362876 -0.43277204 
0.433224 -0.46106225 -0.774428 
-0.10631703 -0.47037414 -0.8760394 
-0.45837733 0.1859568 -0.8690859 
0.052171823 0.051991668 -0.9972839 
0.17319977 0.22472796 -0.9589052 
0.009134202 0.57282037 -0.81963 
0.24886262 0.9162099 -0.31404904 
0.6227164 0.69267076 -0.36391142 
0.674497 0.7287781 -0.11805213 
-0.5083971 0.8192396 -0.26529026 
-0.36075023 0.268364 -0.89321893 
-0.61904186 0.15567762 -0.7697738 
-0.68080384 0.17243244 -0.71188015 
-0.5987017 0.21505152 -0.7715629 
-0.66290325 -0.6317268 -0.40184644 
0.09029825 -0.14292762 -0.98560536 
-0.10317843 -0.02067906 -0.9944479 
0.8281436 -0.17765605 -0.5316171 
0.44183257 -0.681256 -0.5836732 
-0.72318166 -0.54201335 -0.42805365 
-0.014247989 -0.20440938 -0.9787818 
0.25519383 -0.08656992 -0.96300673 
0.8355197 0.13963598 -0.5314214 
0.6350422 -0.022184797 -0.7721589 
-0.5157772 -0.6430577 -0.56608367 
0.21360181 0.18479289 -0.9592841 
0.5193187 0.58584964 -0.62216425 
0.6955096 0.71753484 0.037552625 
0.7802833 0.6231211 -0.053649623 
0.57493275 0.81097794 0.10847698 
0.1556269 0.9801948 0.12246819 
-0.34097317 0.44641036 0.82731795 
-0.78312373 -0.36908302 -0.50049484 
-0.69193184 0.69030285 -0.21145317 
-0.9332739 0.3323602 0.13614894 
-0.94597125 -0.18881501 -0.26360452 
-0.9993793 -0.011618004 -0.03325942 
-0.9860514 -0.16277151 0.034759626 
-0.8741956 -0.349845 -0.33673516 
-0.5276324 -0.84680885 0.06722371 
0.07785851 -0.9539068 -0.2898276 
0.3639145 -0.8348041 0.4131202 
0.16254978 -0.97041196 0.17854461 
0.29102692 -0.9042884 0.31235555 
0.48656967 -0.8732458 0.026304724 
0.8616658 -0.47731084 -0.17235552 
0.9118878 0.04758323 0.40767208 
0.93954617 0.16402356 0.30058178 
0.27226138 -0.46824232 0.8406087 
0.63386935 -0.5201855 0.5723781 
0.5021365 -0.17487481 0.8469225 
-0.2881094 0.20324104 0.93578106 
-0.42076328 0.5144266 0.74721056 
0.18205683 0.55429214 0.81216717 
-0.23087041 0.39169642 0.8906587 
0.32393038 -0.22629996 0.91861725 
0.035322726 0.02846499 0.99897057 
-0.5017174 -0.86462957 0.026371652 
-0.68640715 -0.48442444 0.542382 
-0.50284874 -0.5484778 0.66806835 
0.4654215 -0.8773023 0.11714822 
0.35283798 -0.91944593 -0.17356458 
-0.23338029 -0.9352657 0.26610473 
0.7155433 0.51276964 -0.4744103 
0.5767201 0.5369373 -0.6157048 
0.78890866 0.011645385 -0.6144001 
0.72887605 -0.052040692 -0.68266505 
0.49009567 -0.25305247 -0.8341287 
0.41145918 0.6674118 0.6206955 
-0.055692714 0.7382522 0.67222166 
-0.5008116 0.8533925 0.14460018 
-0.8185707 -0.56952953 -0.07468766 
-0.417431 0.23292993 -0.878348 
0.089754134 0.027506858 -0.99558413 
0.6281115 0.25215203 -0.7361354 
-0.41354713 0.8765809 0.2461398 
-0.20966665 -0.3884915 0.89728165 
-0.74107426 -0.14655527 0.6552332 
-0.36472058 -0.8220836 0.43721583 
0.68819374 -0.71766657 0.10650919 
0.62720627 -0.485895 0.6087023 
0.2590228 -0.8745094 0.41004932 
-0.43322185 -0.8221507 0.36930633 
-0.38698044 -0.7550445 0.52929574 
-0.46936566 -0.42306754 0.77505475 
-0.7577918 -0.36653015 0.53982157 
-0.10909564 -0.81788236 0.5649483 
0.1448524 -0.9628361 -0.22795735 
0.1254429 -0.7692585 0.6265027 
-0.20988344 -0.41328886 0.88608205 
-0.56078714 -0.79162085 0.24259883 
-0.8562904 -0.23724884 0.45878083 
-0.36735806 -0.8540353 0.36833638 
-0.25540292 -0.8963545 -0.3623782 
-0.30474812 -0.82062376 -0.4834309 
-0.77939767 -0.2978177 -0.5512204 
-0.583483 -0.23843722 -0.7763346 
-0.51098216 -0.32332608 -0.79646575 
-0.20810081 -0.681845 -0.7012713 
-0.050557192 -0.24007137 -0.96943784 
0.75901365 0.61270285 0.22021253 
0.33986157 0.5072482 0.7919554 
0.36843267 0.92144865 -0.12324682 
0.13746712 0.98647386 -0.08928777 
0.11210578 0.9917877 0.061560053 
-0.09075918 0.96391815 -0.25024945 
0.103187755 -0.019926671 -0.9944624 
-0.0731999 0.33958444 -0.93772286 
-0.21111938 0.3829328 -0.8993282 
-0.21475409 -0.11886898 -0.96940756 
0.3604166 -0.64311373 -0.6756513 
-0.42796797 -0.7470001 -0.5087576 
0.18879908 -0.9461371 -0.26302034 
0.28635493 -0.5266797 -0.80038077 
-0.51599294 -0.41320083 -0.75034434 
0.34138566 0.38704625 -0.85653436 
0.33206096 0.47229895 -0.8164982 
0.83038175 0.092471845 0.54946804 
-0.5233222 -0.5497605 0.651074 
0.3788485 -0.8134726 -0.4412894 
0.44765612 -0.2256411 0.8652689 
0.053359233 -0.2554371 0.9653522 
-0.09434845 -0.28500795 0.9538704 
0.28630525 0.2963992 0.91114044 
-0.42714903 0.45457068 0.7816068 
-0.85447776 0.2779949 0.43884683 
-0.7927821 0.602133 -0.094510965 
-0.34520152 0.44876483 0.82428527 
-0.44932494 0.5626312 0.69394046 
-0.7427077 0.3567552 0.56666666 
-0.41349792 0.23054992 0.8808327 
-0.89290535 -0.37213314 0.25345007 
-0.8124848 -0.12012386 0.57047236 
-0.8318877 -0.1086508 0.54420394 
-0.7961596 0.60422176 0.03234048 
-0.9889233 0.12587528 -0.0786521 
-0.91018176 0.05260653 -0.4108548 
-0.60211134 -0.01375458 -0.7982937 
0.49790418 -0.30310038 -0.81254023 
-0.41587886 -0.5389535 -0.7325121 
-0.08828361 -0.7608787 -0.64286053 
-0.17090814 -0.8082899 -0.563434 
0.21927862 -0.8006655 -0.5575409 
0.66988575 -0.5160056 -0.5338459 
0.94278085 -0.2419742 -0.22937495 
0.29538915 -0.4678832 -0.832965 
-0.31128088 -0.4448032 -0.8397943 
-0.008564316 -0.46819648 -0.88358295 
-0.36854735 -0.84983814 -0.37676004 
-0.6712941 -0.6526097 -0.35137567 
0.04211977 -0.47250518 -0.88032085 
-0.07769377 -0.7201698 -0.689434 
0.7333524 0.5125509 -0.44663835 
0.5998975 -0.79765046 0.062263608 
-0.028282056 -0.8828603 0.4687835 
-0.12143099 -0.74762106 0.6529297 
0.49490136 -0.85612476 -0.14873828 
0.7971178 -0.46225914 -0.388484 
0.83080006 -0.26461944 0.48964038 
0.7125111 -0.3316861 0.6183141 
0.10379939 0.15547489 0.9823713 
0.6652925 0.001973475 0.74658024 
0.24728552 0.122147955 0.96121264 
0.14169627 0.06971136 0.98745257 
0.10682534 0.12926568 0.98583907 
-0.19888885 -0.50130653 0.8421015 
-0.25492567 0.018097123 0.96679133 
-0.47163698 0.3520233 0.80847895 
-0.7245214 0.16015764 0.67038673 
-0.26769814 0.31457952 0.91070163 
0.15427247 -0.29385254 0.943319 
-0.04919534 -0.84621435 0.53056675 
-0.35282353 -0.7591781 -0.54695904 
-0.023211736 -0.99381167 -0.10862666 
-0.7634324 -0.5729238 0.29821035 
0.1326791 -0.884321 0.44763 
-0.06422503 -0.9409614 0.3323653 
0.008687374 -0.37582824 0.9266486 
-0.32067373 -0.8963938 0.3060176 
-0.3260623 -0.68751144 0.648854 
-0.4178772 -0.90746915 0.04334292 
-0.1458924 -0.6874323 -0.7114438 
0.61744845 -0.5929779 -0.5168507 
0.92127305 0.36466256 0.1351933 
0.9881995 0.09983821 0.116164684 
0.46254513 -0.28052858 0.8410444 
-0.1400651 -0.24106081 0.96034974 
-0.4929976 -0.52094585 0.6968277 
-0.7083955 -0.40764773 0.5761937 
-0.08916061 -0.60123163 0.794085 
-0.28302902 -0.59155124 0.75495815 
-0.23261373 -0.9592136 -0.16062404 
-0.4404262 -0.8262868 -0.35110542 
-0.8809744 -0.13573648 -0.45327675 
-0.13029522 -0.5000791 -0.85612154 
0.14716452 -0.9288604 -0.3399426 
0.8376932 -0.5449518 0.03602452 
0.28444222 -0.9196001 0.27097654 
0.79277986 -0.066989504 0.6058157 
0.8201122 0.57215834 0.007137892 
0.4677435 0.6566021 0.5916839 
0.32831293 0.07670017 0.9414498 
0.015010233 -0.2298649 0.97310686 
0.12638745 0.112675376 0.985561 
-0.83285284 0.3657527 0.41542885 
-0.7268351 0.5084775 -0.46169418 
-0.9601898 0.25251555 -0.119463935 
-0.5687392 0.6309054 -0.5277254 
-0.5663559 0.089172214 -0.8193226 
0.30768365 -0.29305092 -0.9052358 
-0.055134673 -0.51981896 -0.8524955 
-0.008280503 -0.16074863 -0.9869607 
-0.07057091 -0.69669634 -0.7138866 
0.056403726 -0.27913427 -0.95859414 
0.3754386 -0.0763931 -0.92369366 
0.2015825 -0.49864644 -0.8430399 
0.3201774 -0.8837165 -0.34136748 
0.1757237 -0.81495434 -0.5522416 
-0.08753791 -0.8477542 0.5231156 
-0.081008986 0.04628042 0.9956383 
-0.48880157 0.0742065 0.8692333 
-0.6117199 0.14590286 0.77750313 
-0.97113925 0.21153915 0.11018074 
-0.67234486 -0.09412566 0.73422945 
-0.76474047 -0.48462698 -0.4246278 
-0.46233577 -0.8866799 -0.0066828635 
-0.79941905 0.091093265 0.59382766 
-0.9238585 -0.23308995 0.30356959 
-0.8555216 -0.51773816 -0.005480958 
0.028394036 -0.11049939 -0.9934706 
0.3883331 -0.15713036 -0.90802395 
0.13968624 0.06771798 -0.9878776 
0.67938304 -0.31071305 -0.66475266 
0.78455436 -0.26206395 -0.56195813 
0.38595074 0.3882566 0.8368387 
0.53766906 0.48345152 0.6907871 
0.40528098 -0.86864096 -0.28497425 
-0.05104603 -0.775696 0.62903917 
-0.8051918 -0.480925 0.34695438 
-0.9804392 -0.1761219 -0.087863885 
-0.61527157 -0.74983096 -0.24329914 
-0.7209509 -0.6862124 -0.096656166 
-0.6061641 -0.7170735 0.34405035 
-0.8751562 -0.2726924 0.39967543 
-0.9673237 -0.10384244 0.23130432 
-0.8580635 0.17543477 0.48264864 
-0.95134383 0.28866664 0.10778036 
-0.8490675 -0.030868322 -0.5273818 
-0.04206384 -0.5137227 -0.8569245 
-0.3307641 -0.6455313 -0.68839264 
-0.80385464 -0.56066805 0.19866836 
-0.32131368 -0.779944 -0.53707063 
-0.6317406 -0.022636771 -0.7748493 
0.16068624 -0.29651436 -0.9414134 
-0.08833664 -0.67630553 -0.7313054 
0.22626054 -0.45778126 -0.8597921 
0.29099867 -0.24137272 -0.9257749 
-0.19539617 -0.9760595 -0.095542304 
-0.022636527 -0.19072673 -0.9813822 
-0.2517911 -0.0018031574 -0.96777993 
0.020575775 0.1046145 -0.9943 
0.50868535 0.7225186 -0.4681945 
0.39959884 0.7230747 -0.5634571 
0.92698276 0.306627 -0.21606241 
0.9819692 0.14335439 -0.123231925 
0.12811954 0.97149885 0.19943792 
-0.30026117 0.95041496 -0.08096059 
-0.40037158 0.7648764 -0.50464517 
-0.96280503 -0.2164447 -0.16173537 
-0.54317313 -0.120148845 -0.8309797 
0.21668361 0.4784929 -0.8509365 
0.21561179 0.6398741 -0.7376129 
-0.79576063 -0.25610557 -0.54879427 
-0.5643393 -0.32047427 -0.76080054 
-0.33980864 -0.37227136 -0.86368054 
-0.2886633 -0.14837 -0.9458647 
0.24110399 0.13705382 -0.9607732 
0.46092036 0.17557779 -0.86989945 
0.43674415 0.64709663 -0.62491643 
0.25852945 0.1532072 -0.95377684 
0.70126694 0.5920559 -0.39710784 
0.690136 0.72262764 -0.039008155 
0.35680175 0.22610272 -0.90640503 
0.81512195 0.17544296 -0.5520833 
0.9274307 0.35525015 0.116917916 
0.51689124 0.09451178 0.8508179 
-0.18493268 0.74228704 0.6440574 
-0.1798225 0.5753165 0.79791903 
-0.6020226 0.7934405 -0.089559644 
-0.7318576 0.5617668 -0.38574934 
-0.64645135 0.26775122 0.71442986 
-0.9991312 -0.040913627 -0.007931813 
-0.9426252 0.27421707 0.1904281 
-0.9888601 -0.14207 0.044407446 
-0.45639804 -0.67245054 -0.58267593 
0.14403558 -0.46780166 -0.87201804 
0.49112457 -0.6117958 -0.62008286 
0.786117 -0.61429644 0.068265304 
0.5866305 -0.72788 0.35504276 
0.30414677 -0.94749457 -0.09873654 
0.1644075 -0.9079558 0.38546905 
0.9769304 -0.13733935 -0.163539 
0.7275655 0.46884438 0.5008328 
0.8160297 0.5424172 0.19969766 
0.92945117 -0.032517925 0.36750954 
0.29401726 -0.79066443 0.5370323 
0.10220925 -0.14127569 0.9846799 
0.60960776 0.07578702 0.78907216 
-0.13851911 -0.2439819 0.9598362 
-0.035518374 0.11749644 0.992438 
0.05610886 -0.22066201 0.9737352 
0.16261075 -0.7036825 0.69165653 
-0.04061696 -0.79162014 0.6096621 
-0.63042164 -0.6883638 0.35878128 
-0.9085215 -0.40567362 0.10008867 
-0.78436583 -0.49341282 0.37591776 
-0.07811561 -0.94706404 0.3113963 
0.1860332 -0.633183 -0.75131285 
0.6924658 -0.49195212 0.52770674 
0.6817399 0.34046417 0.64754534 
0.78297365 0.58472836 -0.21223861 
0.97445726 -0.15311374 -0.16428456 
0.89058936 -0.3877923 -0.23762926 
0.8309126 0.42423776 0.36000925 
0.47011262 0.588861 0.65744734 
-0.29712233 0.8586885 0.41757926 
-0.44649988 0.8168238 0.36528996 
-0.737377 0.6149188 0.27955338 
-0.5841443 -0.3311326 -0.7410309 
0.034975514 -0.2821637 -0.9587286 
0.19444136 0.03367023 -0.9803362 
0.27055717 -0.0110795945 -0.96264017 
-0.20242737 -0.94837046 0.24416539 
0.00010643318 -0.89710236 -0.44182277 
-0.13498287 -0.9495124 -0.2832064 
-0.0011668387 -0.9773249 -0.21174225 
-0.2912827 -0.95196223 0.09445869 
-0.6259525 -0.7312185 -0.27111438 
-0.61732763 -0.7866869 0.0055161947 
-0.55023056 -0.77189 0.31848443 
-0.53668875 -0.83918554 -0.08793741 
-0.57892275 -0.75597537 0.30553198 
0.23697692 -0.95289576 0.18929256 
-0.010437582 -0.999414 0.032598384 
0.05999114 -0.99815285 0.009597741 
0.10400695 -0.5695335 0.81536144 
-0.3968526 -0.88511544 0.24306087 
-0.86100596 -0.3823804 -0.3353416 
-0.438119 -0.63800615 -0.63324565 
-0.42895412 -0.2793183 -0.8590574 
-0.11176632 -0.6505129 -0.7512266 
-0.33289728 0.0924689 -0.9384184 
-0.6177208 0.40379035 -0.6748144 
-0.3217829 -0.30013728 -0.897983 
0.3880284 -0.16098936 -0.90747815 
0.6687748 -0.03622727 -0.7425819 
0.67833734 0.71760637 0.15779634 
0.21129407 0.9162829 0.34026536 
0.29531097 0.9191441 0.2607021 
0.7576182 0.6317469 0.1640444 
0.0075440584 0.9741537 0.22576009 
-0.1412332 0.899773 -0.41287026 
-0.64346516 0.6513821 -0.40206236 
-0.021954333 0.68549263 -0.7277486 
-0.15763944 0.98739445 -0.014214324 
-0.33500138 0.8927442 -0.3013007 
-0.2243381 -0.103693 -0.968979 
-0.1631483 -0.4015787 -0.90117544 
-0.37286642 -0.16923873 -0.9123206 
0.39388233 0.123618186 -0.91081023 
0.17947309 0.21570794 -0.95982265 
0.50108206 0.4948473 -0.7099599 
0.052425362 0.18094349 -0.9820953 
0.35059234 -0.54683125 -0.7603031 
0.7613256 -0.59414643 -0.25956392 
0.17197485 -0.80587447 -0.5665608 
0.60871714 -0.761902 0.22128928 
0.7577088 -0.22067863 0.61414856 
0.55953705 -0.5723266 0.599467 
0.52348274 0.003022722 0.85203093 
-0.38539886 -0.006273479 0.92272884 
-0.1457446 0.57462513 0.8053351 
0.4138813 0.28988063 0.86294353 
-0.26636955 0.84235317 0.46849602 
-0.83604825 0.44937694 0.31477594 
-0.7409284 -0.07891883 0.66693103 
-0.19411889 -0.025691161 0.9806416 
-0.12308988 -0.45295665 0.8829945 
-0.539628 -0.25217184 0.80325025 
-0.55643713 -0.5120166 0.65438277 
-0.9258125 0.37798303 -0.00043873416 
-0.7115241 0.700398 -0.056356966 
-0.9160614 -0.017640112 0.40064985 
-0.60278744 0.47195747 -0.64335334 
-0.4946762 -0.7943964 -0.35246262 
-0.24560481 -0.85164964 -0.46300238 
-0.59577197 -0.791767 0.13476276 
-0.53889495 0.21567507 -0.8142951 
0.5263062 -0.3533797 -0.7733852 
0.2886995 0.06703035 -0.9550705 
0.53436506 0.010124245 -0.8451932 
-0.26441747 -0.09630942 -0.9595874 
0.26368377 -0.2164867 -0.94000244 
-0.023943683 -0.6075208 -0.7939428 
-0.53920454 -0.21584252 -0.8140458 
-0.7709941 -0.4555215 -0.44504872 
-0.16407688 -0.7088179 -0.6860438 
0.34892765 -0.6598878 -0.6654305 
0.98954403 -0.13163805 0.05894259 
0.43996876 -0.8927661 -0.09693447 
0.55000347 -0.7434033 -0.38058862 
0.7156491 -0.40240505 -0.57089096 
0.67588556 -0.7277968 0.11614893 
0.94204 -0.24545597 -0.22871853 
0.74308103 -0.46593815 -0.48034602 
0.76393354 -0.62854695 0.14606284 
0.2963744 -0.509153 0.80803806 
0.8062708 0.13410293 0.5761459 
0.5489714 -0.5393516 0.63853765 
0.58845925 -0.053627625 0.8067464 
0.47233766 -0.5121787 0.7173355 
-0.4351875 -0.30524802 0.8470157 
-0.16891883 -0.062322628 0.98365766 
-0.41229174 0.12998532 0.9017313 
-0.22181956 0.28785494 0.9316307 
-0.4453543 -0.1643365 0.8801438 
-0.28821084 -0.21584636 0.9329227 
-0.5764048 -0.23615879 -0.7822957 
0.001462656 -0.96552825 -0.26029453 
-0.29180688 -0.93214923 0.21435189 
-0.22526641 -0.88947695 0.39760014 
0.01755416 -0.9726879 -0.23145247 
-0.010062941 -0.93876874 0.344401 
-0.07566616 -0.64895 0.75705916 
-0.507042 -0.8529899 -0.12376048 
-0.05618657 -0.9297225 -0.3639496 
0.08056114 -0.9631242 -0.25671342 
0.009555178 -0.86470824 -0.5021837 
0.73125947 -0.4803663 -0.48426026 
0.6783976 -0.73445827 0.01865085 
0.65110105 -0.2908855 0.70103717 
0.7654389 -0.17695826 0.61869967 
-0.13989621 -0.88251966 0.44898576 
-0.14671674 -0.683571 0.71498597 
-0.46609607 -0.42507866 0.77592707 
-0.36507827 -0.081202574 0.9274287 
0.23611137 -0.6953166 0.67881244 
0.110803925 -0.7912665 -0.60134846 
-0.40710163 -0.9107399 0.06943399 
-0.8830586 -0.4128095 0.2231501 
-0.9289776 0.11476084 -0.35189584 
-0.07681645 -0.7997746 -0.5953654 
0.68909216 -0.6258434 -0.36533836 
0.506993 -0.86105824 -0.039203495 
0.5922843 -0.75446826 -0.28280208 
0.67107266 0.14714517 0.72664285 
0.88991636 0.17397222 0.42164287 
0.6013266 0.024593057 0.7986249 
0.40221915 -0.49603128 0.7695276 
-0.41504455 -0.83489335 0.36151257 
-0.979686 0.19967096 -0.018625675 
-0.9688654 0.18591428 0.16351096 
-0.99811536 -0.043476615 -0.04330834 
-0.87513906 0.4154718 -0.24802166 
-0.76952046 0.051814623 -0.63651675 
-0.48824978 0.015316836 -0.87256956 
-0.20733285 -0.34721622 -0.9145786 
-0.08943658 0.05803304 -0.99430037 
0.52175176 -0.32039064 -0.7906485 
0.7319396 -0.32835627 -0.5970316 
-0.1459754 -0.718957 -0.67955285 
0.21732685 -0.94269586 -0.25316697 
0.5149734 -0.80904377 -0.28328547 
0.016197108 -0.99965805 -0.020530747 
0.11452708 -0.8816473 0.45780095 
-0.22293656 -0.83245426 0.50726646 
-0.44271863 0.19797866 0.87453115 
-0.6046168 0.21585393 0.76671094 
-0.9051824 0.42493176 -0.008822589 
-0.9208138 -0.14595939 0.36165994 
-0.25642216 -0.8010973 0.5408243 
-0.6169248 -0.4613831 0.63759655 
-0.99286026 0.03995603 0.112392664 
-0.81808454 0.2619657 0.5119684 
-0.9506826 0.027200235 -0.3089708 
-0.41372395 -0.11360498 -0.9032865 
0.1303589 -0.5411851 -0.8307379 
0.7305497 0.20763692 -0.65052605 
0.7900171 -0.1756161 -0.58739436 
0.36487678 0.39237034 -0.84434026 
0.5469168 0.55453116 0.62719804 
0.72337526 0.37292057 0.58108395 
0.053639717 -0.87707543 0.4773484 
-0.34358314 -0.6498701 0.6779525 
-0.9709281 -0.18269183 -0.15466893 
-0.99450696 -0.030563002 -0.100109816 
-0.7490808 -0.4394513 -0.4957425 
-0.329955 -0.13966611 -0.9336075 
-0.9280562 -0.13119097 -0.34856972 
-0.7803726 0.5098752 -0.3620029 
-0.9575389 0.039409034 -0.28559798 
-0.71690625 0.6745846 -0.17601435 
-0.85271066 0.49030215 -0.18024567 
-0.6105935 -0.42719832 -0.66684127 
-0.042735714 -0.42539504 -0.9039982 
-0.8948192 -0.08778847 -0.43771207 
-0.4607765 -0.06680808 -0.8849981 
-0.71013653 -0.21018147 -0.6719598 
-0.29822776 -0.21319264 -0.93038124 
-0.7108643 -0.3881171 -0.5865467 
0.067347065 -0.8805147 -0.46921036 
0.049865257 -0.5197926 -0.85283595 
-0.20567733 -0.43997622 -0.8741383 
0.21543561 0.0005418527 -0.976518 
0.3651956 0.4073686 -0.8370682 
0.22574314 0.39709917 -0.88957995 
0.4312908 0.5152943 -0.74058086 
0.567323 0.7261147 0.3884612 
0.40724617 0.9110077 0.064927876 
0.46930212 0.8792111 -0.08211774 
0.45281267 0.8700448 -0.19489205 
0.741854 0.5831751 -0.3309977 
0.002216188 0.96953166 0.24495621 
-0.600304 0.7931279 -0.10287483 
-0.44905776 0.7835675 -0.4293825 
-0.86611515 -0.32364568 -0.3809176 
-0.16314498 0.12129622 -0.9791175 
-0.037398733 0.40265062 -0.9145894 
-0.28453943 0.35449588 -0.89071316 
-0.24368452 -0.23294136 -0.9414649 
-0.03616493 0.37840527 -0.92493325 
0.013744945 0.36182153 -0.9321461 
0.42174634 0.2464278 -0.8725844 
0.12885827 0.7224769 -0.679281 
0.8106654 0.5854726 0.006592466 
0.33090198 0.9436513 -0.0051032174 
0.50412303 0.8606265 -0.07198759 
0.449987 0.8881189 -0.09357624 
-0.079356946 0.77022123 -0.63282055 
0.5971614 0.23069522 -0.76823044 
0.700228 0.5966883 0.39197454 
0.9215107 0.24338919 0.3026218 
0.62901235 0.33861232 0.6997751 
0.22741315 0.8901413 0.394882 
-0.12240133 0.76233995 0.63549656 
0.5295504 0.84763724 -0.032978352 
0.036817633 0.13740121 0.98983103 
-0.9272878 -0.372192 0.040129486 
-0.6576552 0.5736589 -0.4882677 
-0.7033217 0.23000723 -0.6726332 
-0.7577654 -0.12954795 -0.63953817 
-0.38733637 -0.17748132 -0.90469384 
0.24106485 -0.526076 -0.81555617 
0.26289183 -0.8191058 0.50985646 
0.09825605 -0.88975877 0.44572997 
0.12978502 -0.9530121 0.2737223 
0.24669737 -0.96902287 -0.011622409 
0.2601667 -0.8056355 -0.5322262 
0.53139615 -0.23292401 0.81447196 
0.5124181 -0.2657107 0.8165938 
0.93870354 -0.1647859 0.30278927 
0.8098122 -0.50935715 0.29113528 
0.51156354 -0.7168886 0.47368097 
0.53827363 -0.43575153 0.72137517 
0.5871823 -0.6204968 0.5198083 
-0.04853351 -0.86106014 0.5061817 
0.011674627 -0.9474743 0.31961873 
0.06410849 -0.8332316 0.5491951 
0.012619969 -0.95824075 -0.28568426 
-0.32666725 -0.9137991 -0.24137072 
-0.39665592 -0.89020294 -0.22405975 
-0.6596898 -0.44743308 -0.60383207 
-0.08676778 -0.9140567 -0.39619657 
0.30996186 -0.90823436 -0.28113028 
0.9590198 -0.14447008 -0.24374095 
0.9646319 0.17017306 0.2013121 
0.86136717 0.32328254 -0.39183563 
0.913998 0.009623242 -0.4056047 
0.24432163 -0.93815607 0.24529612 
0.31169024 0.0057101445 0.95016664 
0.71537936 0.5905939 0.37340516 
-0.1347346 0.9473194 0.2905728 
-0.42989483 0.859352 -0.276956 
-0.76507163 0.5867902 -0.26522213 
-0.3156931 0.41029847 -0.8555659 
-0.5377361 0.21690291 -0.8147349 
-0.71543944 -0.68905735 -0.11552672 
0.38923243 -0.22774291 -0.8925421 
0.26690972 -0.7120635 -0.6494035 
0.32690382 -0.22289589 -0.9183961 
-0.05201854 -0.08223843 -0.9952542 
-0.19628324 -0.3092577 -0.9305012 
0.017530808 -0.999695 -0.017395575 
0.012500381 -0.90606093 -0.42296267 
0.10691201 -0.69902843 -0.70705664 
-0.12396247 -0.98904073 -0.080198094 
-0.49446318 -0.83684194 0.23495065 
-0.3330535 -0.9417152 0.047412265 
-0.39218658 -0.59816486 -0.698848 
-0.3007478 -0.9261663 -0.22752298 
-0.47894445 -0.76533586 -0.42996892 
0.34190428 -0.725822 -0.59689534 
0.1568281 -0.98645514 -0.048076898 
-0.41073492 -0.23149076 -0.881878 
-0.38344255 -0.67598844 -0.6292945 
-0.2522877 0.0030556654 -0.96764755 
0.31345356 -0.41882622 -0.8522509 
0.48357823 0.05367015 -0.8736541 
0.4106275 -0.15323274 -0.89883524 
0.6371258 -0.14806984 -0.7564035 
0.24418437 0.13534178 -0.9602378 
0.49952513 0.4392333 -0.74669194 
0.32868484 0.93801796 -0.10994885 
0.38562658 0.9163957 -0.107289076 
0.3108043 0.7064539 0.63586444 
-0.28768596 0.7763226 0.5608566 
0.08951624 0.8032682 0.58885235 
0.1375594 0.8212355 0.55375975 
-0.3268867 0.93505955 0.13714539 
-0.07189743 0.9231195 0.37773174 
-0.28863928 0.6494694 0.7034749 
-0.4369145 0.62257606 -0.6492341 
-0.0057741073 0.5586603 -0.82937646 
-0.19822878 0.34193853 -0.9185769 
-0.93156385 -0.08852671 -0.3526356 
-0.3385753 -0.4492833 -0.82674754 
0.22282583 0.6612475 -0.7163103 
-0.1285317 0.3277278 -0.9359883 
-0.24816306 -0.15286921 -0.95658046 
0.6665489 -0.13317041 -0.73346996 
0.38196585 -0.82822317 -0.4100592 
0.6767311 -0.58686864 -0.44454503 
0.8772556 -0.48001373 -0.0030929572 
0.91136813 0.016712436 0.41125283 
0.42598602 -0.5843221 0.6907269 
0.06823812 -0.8012187 0.594468 
-0.619589 -0.035899863 0.7841051 
0.49905893 0.5904823 0.6342483 
0.72764647 0.027831657 0.6853876 
-0.42542332 0.32050285 0.8463409 
-0.35813352 0.28046593 0.89054996 
-0.57498515 0.23011611 0.7851361 
-0.23575965 0.061423987 0.9698683 
-0.5301152 -0.23857665 0.81367016 
-0.24784058 0.18488221 0.95099616 
-0.52266353 -0.17797922 0.8337543 
-0.82629997 0.005515775 0.5632033 
-0.978903 0.07389747 -0.19049461 
-0.8650611 -0.41852838 -0.2765923 
-0.65530956 -0.12854202 -0.744343 
-0.769541 -0.6077943 0.19594076 
-0.8055174 -0.5655901 -0.17677604 
0.01554124 -0.9811589 -0.19257629 
0.06696803 -0.07161904 -0.99518144 
0.20477399 0.06218328 -0.9768321 
-0.29065552 0.6120071 -0.73550445 
-0.30509844 0.41903424 -0.8551756 
-0.31723502 0.3195776 -0.89287853 
0.3520236 -0.13616534 -0.92603374 
-0.08271424 0.10232453 -0.9913063 
-0.51783514 -0.2145482 -0.82814 
-0.25408545 -0.79527354 -0.5504368 
0.28047353 -0.8086847 -0.5170723 
0.3740173 -0.4355367 -0.81879115 
0.08972105 -0.9879138 0.12639882 
0.8458303 -0.5268945 0.08338568 
0.9726191 0.10600649 -0.2068206 
0.75098956 -0.3915995 -0.531662 
0.8272272 -0.48852664 -0.27755523 
0.833048 -0.15968707 -0.5296519 
0.765127 0.20831746 -0.60924923 
0.7161578 -0.5302894 -0.4537745 
0.63575417 -0.7275825 -0.2577605 
0.3071046 -0.6757359 0.6701252 
0.49149922 -0.6043006 0.627096 
0.8469426 -0.45868206 0.26888487 
0.41964513 -0.9007034 0.11238955 
0.034424275 -0.16768968 0.9852386 
-0.20425458 -0.29812473 0.9324172 
-0.21822892 0.12902007 0.96733135 
-0.34565142 -0.65129787 0.67552674 
-0.86800814 -0.3357476 0.36583534 
-0.7851104 -0.09989955 0.61124605 
-0.9020121 -0.42846164 0.05286635 
-0.25313285 -0.9612647 -0.10905904 
-0.65225637 -0.69738495 -0.2970116 
-0.22572316 -0.414414 -0.881652 
-0.054473497 -0.84785986 0.52741474 
-0.2744951 -0.6097227 0.7435663 
-0.25765443 -0.5029269 0.8250327 
-0.8652823 -0.4896775 0.10725 
-0.28756276 -0.8183271 -0.49764282 
-0.1465274 -0.9625575 -0.22806309 
-0.21064611 -0.8396365 -0.50063854 
0.22575338 -0.8597476 -0.4581151 
0.13343105 -0.9355483 0.32702535 
0.49474603 -0.8629777 0.10244942 
0.3403764 -0.9253385 0.16701086 
-0.647821 -0.76177037 0.005831031 
-0.1276526 -0.83710074 0.53194666 
-0.5524946 -0.7455825 0.3726346 
-0.28678316 -0.8784394 -0.3822298 
0.08610334 -0.49350882 -0.8654682 
0.38233653 -0.29335985 -0.87621844 
0.33952704 -0.9401686 0.028360097 
-0.60454017 -0.42565605 -0.6733113 
-0.7347274 -0.1078024 -0.66974205 
-0.46843627 -0.7481242 -0.46997625 
-0.109708704 -0.7474366 -0.65521187 
0.2970556 -0.54684746 -0.78276163 
0.6743333 -0.72250694 -0.15250744 
0.70025074 -0.67071486 0.24452096 
0.63832563 -0.63061625 0.44143364 
0.8397934 -0.31871617 0.43950796 
0.24777582 -0.26181063 0.9327714 
0.0004033586 -0.36256754 0.9319575 
-0.7471478 0.33846852 0.5720221 
-0.88300097 0.46802628 -0.035504825 
-0.949697 -0.027868714 0.3119278 
-0.7776218 0.2632476 -0.57096857 
-0.70568955 0.12891641 -0.69669425 
-0.4617772 0.21827681 -0.8597192 
-0.65400136 0.6547519 -0.37892246 
-0.16548045 0.51498467 -0.841075 
0.085904956 0.13748553 -0.9867716 
0.30197504 -0.7111043 -0.6349345 
0.4690073 -0.40906122 -0.7827522 
0.5781775 -0.34426233 -0.7397258 
0.60026866 -0.5823054 -0.5482683 
0.056662288 -0.99839324 0.0006870161 
0.021235889 -0.9294884 0.36823955 
0.43641856 -0.6110968 0.66037834 
-0.019750793 -0.90396154 0.42715737 
-0.22582088 -0.68376786 0.69387794 
-0.49509832 -0.0022774083 0.86883396 
-0.36243385 -0.9163207 0.17028832 
0.113985986 -0.99259984 -0.041865114 
-0.24401575 -0.5536021 0.79622924 
-0.50064474 -0.32918215 0.8006211 
-0.9018484 -0.0038310098 0.43203568 
-0.63326764 0.01860152 -0.7737094 
-0.2708924 -0.56327456 -0.7806018 
0.034345523 -0.43602338 -0.89927983 
0.41307497 0.18493143 -0.89172274 
0.5887537 0.22122373 -0.77745044 
0.7691175 0.04881555 -0.6372404 
0.8566667 0.50008315 0.12664549 
0.99421704 0.07620606 0.075665206 
-0.7631224 -0.63400173 -0.12524398 
-0.064338855 -0.7070514 -0.70422924 
-0.358603 -0.8894271 -0.28341368 
-0.7419122 -0.6225611 -0.24896608 
-0.4990201 -0.14244628 -0.85480297 
-0.7291008 -0.22039193 -0.64795023 
-0.99783677 -0.057885997 0.031163286 
-0.89069504 0.07874785 -0.44772878 
-0.280501 0.02545617 -0.95951617 
-0.9085509 0.3859729 -0.15987577 
-0.619658 0.7389311 -0.26458424 
-0.4723132 -0.25799707 -0.84282726 
-0.6683849 0.14614408 -0.72931725 
-0.46326974 -0.17023632 -0.86971307 
-0.5594305 0.24061519 -0.7931847 
-0.7101996 0.013814951 -0.7038649 
-0.6922596 -0.28305313 -0.66382045 
-0.51846737 -0.57613397 -0.63187134 
0.36711398 -0.5270217 -0.7664694 
-0.57302594 -0.63628745 -0.51650715 
-0.032226525 0.02496595 -0.9991688 
-0.598695 0.37929055 -0.7054808 
0.35178143 0.50862163 -0.78584605 
0.62084424 0.4138955 -0.665765 
0.46544972 0.65965897 -0.5900904 
0.6085751 0.6946267 -0.38357553 
-0.01735277 0.97842735 0.20586112 
0.2990373 0.8947816 -0.33157596 
0.67846835 0.69710386 0.2317907 
0.48104447 0.8573931 0.18295774 
0.066166736 0.99064726 -0.119331926 
-0.3045678 0.9355983 0.17858931 
-0.24054654 0.9324783 0.26948386 
-0.57686204 0.8149552 -0.055481706 
-0.18860608 0.49999765 -0.8452397 
-0.0009869664 0.9025327 -0.43062022 
-0.7729653 0.62463784 -0.11114114 
0.079428785 0.4798912 -0.87372506 
0.37121773 0.4475619 -0.81356364 
0.6190988 -0.026875839 -0.78485316 
0.21423744 0.23812447 -0.9473116 
0.74368364 -0.0944705 -0.6618233 
0.41064063 0.81589496 -0.4070503 
0.15132962 0.9008395 -0.40692464 
0.17778611 0.9576788 0.22637041 
0.42798504 0.89928764 0.0900584 
-0.24147342 0.9277162 -0.28466326 
0.47489277 0.7872236 -0.39339054 
0.9322249 0.14794843 0.33025438 
0.89053243 0.02648353 0.4541481 
-0.06623472 0.8109545 0.5813483 
-0.28467262 0.8496699 0.44387257 
-0.84071326 0.53733915 0.06684181 
0.5740033 0.79381734 0.20093372 
-0.46957204 0.83844125 0.27661967 
-0.8467844 0.46097776 -0.26543486 
-0.99357235 0.107369445 -0.035858616 
-0.7463362 -0.045721598 -0.66399693 
-0.16177535 0.39985356 -0.90218955 
-0.392543 0.15997095 -0.90571487 
-0.11507804 -0.34649402 -0.93096673 
0.6756779 -0.7229671 -0.14414553 
0.63918906 -0.7563439 -0.13921647 
0.13526261 -0.98986965 0.043152902 
0.505165 -0.8105196 -0.2964229 
-0.47227612 -0.80484986 -0.35940498 
0.12532806 -0.93932873 0.31930315 
0.7534405 -0.6084429 0.2492486 
0.96541107 -0.2602859 -0.015252558 
0.72298086 -0.53444344 0.43780014 
0.7255438 -0.6861779 0.052403696 
0.8745795 0.032932606 0.48376256 
0.6280995 -0.3933219 0.67140824 
-0.057441972 -0.7983077 0.5995043 
0.060884207 -0.9613295 -0.26858646 
0.42777783 -0.72415584 0.5409294 
-0.006095049 -0.8451525 -0.53449064 
-0.03768877 -0.86204344 -0.5054312 
-0.46295583 -0.88390505 0.066210926 
-0.972203 -0.12803692 -0.1960303 
-0.39793935 -0.7760726 -0.48923984 
0.5844855 -0.4760786 -0.65705866 