# OOMMF: rectangular mesh v1.0
# Segment count: 1
# Begin: Segment
# Begin: Header
# Desc: Time (s) :  4.840000000000006e-07
# Title: m
# meshtype: rectangular
# meshunit: m
# xbase: 2e-09
# ybase: 2e-09
# zbase: 5e-10
# xstepsize: 4e-09
# ystepsize: 4e-09
# zstepsize: 1e-09
# xmin: 0
# ymin: 0
# zmin: 0
# xmax: 1.024e-06
# ymax: 1.024e-06
# zmax: 1e-09
# xnodes: 256
# ynodes: 256
# znodes: 1
# ValueRangeMinMag: 1e-08
# ValueRangeMaxMag: 1
# valueunit: 
# valuemultiplier: 1
# End: Header
# Begin: Data Text
-0.2581283 -0.02083067 0.96588606 
-0.15382583 0.38201794 0.91126287 
-0.89408755 -0.41264743 -0.1741545 
-0.72954714 -0.67983305 0.07475305 
-0.562265 -0.5081724 -0.65239483 
-0.3780403 0.14092611 -0.9150002 
0.18157448 -0.872362 -0.45388913 
0.16461359 -0.9821072 0.091475725 
0.49628985 -0.6411596 -0.5853298 
0.060974047 -0.9347124 -0.35013574 
0.2857271 -0.6618507 -0.69304675 
0.41492096 -0.71214443 0.56629586 
0.66466004 0.24384974 0.7062326 
-0.09248372 -0.44712016 0.88967985 
-0.1921352 -0.32553256 0.9258038 
0.37789848 0.003639077 0.9258399 
0.1639998 -0.6636105 0.7298803 
-0.14674796 -0.73745537 0.6592607 
-0.25160456 -0.9075953 0.33610418 
0.7304461 -0.56911165 0.37757194 
0.63779294 -0.76585406 0.08177984 
0.89334506 -0.44873917 -0.02382887 
-0.0011208509 -0.72490853 0.68884426 
0.21954 -0.8740222 0.43345988 
-0.3687646 -0.7807392 0.50443935 
-0.80790174 -0.5076704 0.29927546 
-0.49768347 -0.82899165 -0.25511593 
0.30094403 -0.8630601 -0.40565977 
0.25508407 -0.6808569 0.6865611 
0.74247617 -0.22013158 0.6326699 
0.38541728 -0.62543803 0.67844 
-0.5778836 -0.038865935 0.81519324 
-0.009432097 -0.28979373 0.95704263 
-0.3796539 -0.6412116 0.6668663 
-0.8599396 -0.43600646 0.26533443 
-0.73727775 -0.6754198 -0.015154437 
-0.46515813 -0.7049604 -0.53540534 
-0.692459 -0.511073 -0.50921994 
-0.7039897 -0.47909358 -0.5242784 
-0.30748567 -0.7516366 -0.5835195 
-0.33476353 -0.53711003 -0.7742391 
-0.3935969 -0.89764196 0.19829424 
0.22043478 -0.8600058 -0.46021596 
-0.08527689 -0.28628436 -0.95434225 
-0.2284276 -0.7432138 -0.6288515 
-0.20402505 -0.90437746 -0.37480026 
0.08101285 -0.4277901 -0.90024036 
-0.021671394 -0.7698166 0.63789725 
-0.22284846 -0.9583453 0.17864183 
-0.05730814 -0.9925497 -0.10752216 
-0.21907717 -0.9085288 0.3557817 
-0.5354748 -0.54368275 0.64627856 
-0.4063451 -0.6053567 0.6844173 
-0.087515615 -0.7653877 0.6375914 
-0.46400437 -0.8048057 0.37011877 
0.046845976 -0.9952537 0.08529773 
-0.28837225 -0.9404939 -0.17975748 
0.24854885 -0.6754622 -0.6942438 
0.62601733 -0.67986524 -0.38194975 
0.36932388 -0.92896307 0.025050158 
0.7992673 0.59844 0.05514862 
0.7057622 0.16102695 0.6899058 
0.5781571 0.7662097 0.28045857 
0.82915795 0.06482229 0.55524325 
-0.05695807 -0.5559101 0.8292888 
0.39439067 -0.50583297 0.76719564 
-0.42614824 -0.6375376 0.6418283 
-0.05566664 -0.4080367 0.91126686 
-0.51343876 -0.5401281 0.66681516 
-0.14627384 -0.47179767 0.869489 
-0.658442 0.08850461 0.7474096 
-0.9833507 0.12202288 0.13465501 
-0.9189367 0.10782803 -0.37937918 
-0.9016379 -0.43081048 0.038097937 
0.016253753 -0.41602945 0.9092059 
-0.010910774 -0.8307091 0.55659986 
-0.44031295 -0.5117702 0.7377099 
0.24761325 -0.91152346 -0.32834852 
0.310107 -0.91103876 -0.27173892 
0.07136782 -0.9052897 -0.4187569 
-0.108157225 -0.75563145 -0.64600563 
-0.28949293 -0.59098595 0.7529473 
-0.4890314 -0.8589271 -0.15196246 
-0.7832781 -0.5457736 -0.2976687 
0.06111068 -0.81092864 -0.5819451 
0.021891851 -0.783093 -0.62151927 
0.20909509 0.022291865 -0.9776413 
0.26296028 -0.44061002 -0.85832083 
0.2542716 -0.44617352 -0.85806483 
-0.003008937 -0.9354906 -0.35333884 
0.28766266 -0.912327 -0.2913928 
0.9430525 -0.31318906 0.11209216 
0.7232855 -0.46995792 -0.5059622 
0.9307046 -0.31069332 -0.19302507 
0.64132833 -0.3642887 -0.6752716 
0.20506237 -0.64164895 -0.73907787 
0.75054836 -0.65039575 -0.1168873 
0.02262089 -0.99679047 0.07679205 
0.31429002 -0.94868994 0.03477322 
-0.39946398 -0.85734254 0.32464167 
-0.58991784 -0.7947531 0.14270501 
0.47847536 -0.8744359 0.080145136 
-0.16140434 -0.7512865 0.6399354 
-0.8651869 -0.48069024 -0.14278856 
-0.22211246 -0.7433633 -0.6309335 
0.57693744 -0.71820676 -0.38900182 
0.017182311 -0.971513 -0.23636281 
0.61508447 -0.43705562 0.65624195 
0.69929254 -0.67572606 0.2332046 
-0.2139768 -0.2664526 0.9397962 
0.7703702 -0.072974384 0.6334072 
0.28877446 0.45724753 0.8411504 
-0.58489555 0.31712765 0.7465435 
-0.63174796 -0.022822881 0.77483785 
-0.8949742 0.15714784 0.41752365 
-0.77800393 -0.5057172 0.37277347 
-0.85837543 -0.16505301 -0.485746 
-0.8824355 -0.46079493 0.09474005 
0.31224015 -0.76108164 -0.56856024 
0.4971289 -0.63883466 -0.58715683 
0.002256271 -0.7144976 -0.6996343 
-0.41789365 -0.3614319 -0.8335058 
-0.4936393 -0.08643797 -0.8653605 
-0.33773658 -0.23904015 -0.91038114 
0.14454052 -0.39839718 -0.90575266 
0.7354896 -0.24756283 -0.63068825 
-0.5190899 -0.18422832 -0.83462906 
-0.5422472 -0.53403085 -0.64867485 
0.21595807 -0.51300895 -0.83077323 
0.084594674 -0.81823397 -0.56862736 
-0.7927644 -0.48543525 -0.36861527 
-0.72209567 -0.58101135 0.37550458 
-0.90338737 -0.42528817 -0.054966792 
-0.89652205 -0.43645456 -0.07586638 
-0.8080172 -0.49947715 0.31245956 
0.094632015 -0.37067324 -0.9239298 
0.3802176 -0.10588439 -0.91881615 
0.5075274 -0.44877225 -0.7355403 
0.8204455 -0.5568933 -0.12938015 
0.9648802 0.13700143 0.22413579 
0.89435357 0.30509394 0.32718414 
0.9218255 0.26998812 0.2781083 
-0.011118061 0.90498716 0.42529365 
-0.98530555 0.15950558 0.061081976 
-0.5471821 -0.8323084 -0.0886254 
-0.9261881 -0.30280405 -0.22468928 
-0.3521993 -0.14343658 -0.92486846 
-0.59616214 -0.46079358 -0.65746486 
-0.1594362 -0.43891218 -0.88427156 
0.6030372 -0.7835004 -0.14991169 
0.4791498 0.87773013 0.002325513 
0.5720559 0.64832556 0.50242037 
0.33346945 0.40210217 0.85270864 
-0.11672664 -0.029928971 0.9927131 
-0.28470686 -0.5198187 0.80543816 
0.2527436 -0.94851863 0.19087513 
-0.11844717 -0.933754 0.33774793 
-0.40619338 -0.7453035 0.5287056 
-0.690529 -0.6563398 0.3039536 
-0.8688641 -0.49348852 0.039299186 
-0.80050564 -0.5870371 0.12074007 
-0.8113367 0.55636454 0.17941931 
-0.19146399 0.0055868435 -0.9814838 
-0.031100875 -0.68387645 -0.72893465 
-0.27612975 -0.778093 -0.56420195 
0.03281427 -0.95089215 0.3077782 
-0.23048553 -0.8139301 0.53328633 
-0.4649117 -0.17599502 0.8676883 
0.20520924 -0.8587944 0.46942687 
0.5485959 -0.57697046 0.60510147 
0.025830299 -0.52904373 0.8482014 
-0.65107375 -0.00028219091 0.7590144 
0.18997405 0.51806235 0.8339792 
-0.056252506 0.051225465 0.99710166 
-0.6970057 -0.45654112 0.55294967 
0.3487203 -0.8784244 0.3267488 
0.8662275 -0.4594809 0.19628341 
0.16490811 -0.877298 -0.4507258 
0.3231515 -0.6529487 0.6850046 
0.46785465 -0.88318133 -0.033207435 
0.031106116 -0.99924743 -0.023176868 
0.77419865 -0.62777185 0.08074101 
0.32344836 -0.23991121 0.91532725 
-0.6336699 -0.6832835 0.36274797 
-0.94905514 0.2919337 0.11861381 
-0.957416 -0.27253968 0.09527149 
-0.69592214 -0.48745665 -0.5273315 
-0.031316258 -0.94963145 0.3118004 
-0.55562526 -0.809212 0.19093555 
0.7348431 -0.5423418 -0.40727264 
0.5596182 -0.6851758 0.46622068 
0.45199573 -0.7137798 0.53499365 
0.5769474 -0.78204376 0.23566812 
-0.14548767 -0.7471009 0.64859354 
-0.8565935 -0.50605965 0.10075428 
-0.7181697 -0.42464158 -0.5512821 
-0.13099797 0.57818127 -0.80532354 
-0.24063492 -0.22777526 -0.9435112 
-0.33694145 -0.5502462 -0.7640025 
0.6613453 -0.6385019 -0.39362153 
0.65872836 -0.73692745 -0.15170695 
-0.6216177 -0.7564976 -0.20323136 
-0.48998386 -0.3885484 -0.7803499 
0.3168262 -0.539736 -0.77993983 
0.461046 -0.74039 -0.48914143 
0.46325237 -0.20158632 -0.8629949 
0.24419586 -0.8729696 -0.4222468 
-0.20746633 -0.9388415 -0.27483517 
0.61729443 -0.34375206 -0.7076596 
0.8499046 0.5258087 0.034459926 
0.8200313 -0.15623406 -0.5505813 
0.6058948 -0.7400274 -0.2919778 
0.65620285 0.74154574 0.13967022 
-0.0032880616 0.989749 0.14278041 
0.23346695 0.905962 0.35316575 
-0.4888274 0.86218834 -0.1329628 
-0.8894137 0.3573222 0.2850685 
-0.61535805 0.047793526 0.7867976 
-0.7359201 -0.3993228 0.5467751 
-0.8715183 -0.42933008 -0.23692118 
0.085775524 0.27148306 -0.9586134 
0.23870225 -0.64909345 -0.72228736 
0.64562625 0.018363316 -0.7634328 
0.4634957 -0.58057505 -0.669406 
0.31656846 -0.69303197 -0.64768136 
0.46260032 -0.6420181 -0.6114031 
0.79788536 -0.59693754 0.08393188 
0.68054324 -0.7228408 0.119842514 
-0.1119081 -0.8256384 0.55298996 
-0.46200502 -0.64556247 0.6081122 
-0.86375475 -0.4523378 0.2220773 
-0.023487823 -0.9846394 0.17301306 
-0.44596457 -0.85280114 0.27174598 
-0.14284897 -0.8614149 -0.4873999 
-0.04788853 -0.82826227 -0.5582905 
0.3840212 -0.92234087 0.04260605 
0.18248235 -0.97233045 -0.14585496 
0.56604683 -0.62048024 -0.54276633 
0.45085397 -0.28398296 -0.84621763 
-0.19212396 -0.83787227 -0.5109388 
0.8373133 0.021963816 -0.54628205 
0.23797525 0.9061478 -0.3496628 
0.11239072 0.99035406 -0.08103777 
-0.29098865 0.5388555 -0.7905444 
-0.31890467 -0.72005224 -0.6162991 
-0.35331 0.28132227 -0.8922051 
0.018232051 -0.088285185 -0.99592847 
0.19539036 -0.82501835 -0.53025216 
0.39814526 -0.84860474 -0.34835374 
-0.21341747 0.014057313 -0.97686005 
-0.09729836 -0.3669988 -0.9251189 
0.6854391 -0.70285535 -0.19017772 
0.30464205 -0.95090914 -0.054452457 
-0.037701737 -0.25024387 0.9674486 
-0.2684588 -0.80404544 0.53051007 
-0.10804097 -0.9938039 0.02609837 
-0.7619643 -0.58389646 0.28013438 
-0.58628607 -0.7275754 0.3562341 
-0.8820343 -0.4708033 0.018968638 
-0.7334326 -0.64772516 -0.20622505 
-0.5868829 -0.674443 -0.44799012 
-0.037747547 -0.6607602 -0.7496473 
-0.120294765 -0.5562395 -0.8222693 
0.47133556 -0.7451673 -0.4717716 
0.53124446 -0.48527792 -0.6944673 
0.09102337 -0.895837 -0.4349608 
0.5405828 -0.7910784 -0.286296 
-0.13707899 -0.8599404 -0.49164188 
-0.18565169 -0.6514863 0.73559445 
-0.37230474 -0.87427956 0.31148744 
0.081869416 -0.84457874 0.5291352 
-0.41420633 -0.6321892 0.6548053 
-0.08809997 -0.9961065 -0.0032285675 
-0.36711636 -0.9198128 0.13845593 
-0.08405351 -0.9423555 0.32388458 
-0.23606637 -0.92915124 0.28451833 
0.52563393 -0.8494016 -0.047179647 
0.66247624 -0.56124705 -0.496112 
0.8581947 -0.5129019 -0.02082322 
0.062246516 -0.6238584 0.7790546 
-0.85208863 -0.3565079 0.3832065 
-0.0964727 -0.7104279 0.69712645 
-0.1691109 -0.7622242 -0.6248327 
0.37482178 -0.7003605 -0.6074569 
0.6333557 -0.76851654 0.09079039 
-0.17585552 -0.6652833 0.7255846 
0.11152965 -0.25550488 0.9603533 
-0.6817002 -0.008987962 0.7315764 
-0.41845784 -0.21361502 0.8827581 
-0.39051315 -0.46558365 0.794186 
-0.4745433 -0.63178104 0.6129123 
-0.29244044 -0.67328405 0.679093 
-0.72811913 -0.681152 0.076645605 
-0.90280944 -0.39748976 0.16412477 
-0.5863624 -0.622615 -0.51819855 
-0.43111283 -0.7805762 -0.45259526 
-0.23801392 -0.7396435 -0.6295053 
0.0060391296 -0.99983954 -0.016865494 
-0.477539 0.06585067 -0.87613946 
-0.6275944 -0.5296332 -0.570626 
-0.7978965 -0.5328153 -0.28190282 
0.07128238 -0.7994491 -0.59648985 
0.39369422 -0.15524875 -0.90603685 
-0.124943316 -0.9879121 0.09175499 
0.0018534615 -0.86451083 -0.502611 
0.37705332 -0.6035355 -0.70254946 
0.6039206 -0.79062855 0.100928724 
0.044129856 -0.8469986 0.5297603 
0.0965093 -0.9913269 0.08920218 
-0.451564 -0.8127382 0.3681667 
-0.045207404 -0.96237856 -0.2679251 
-0.56439346 -0.7523563 -0.33973533 
-0.55971766 -0.65495116 0.50769603 
0.09269349 -0.9650303 -0.2452028 
0.5201657 -0.8503786 0.07927089 
0.6581523 -0.59614 -0.45983988 
0.51948065 -0.8532489 -0.045894433 
0.33744052 -0.7542594 0.56322867 
0.97549933 -0.015271956 -0.21947153 
0.80977356 0.091656245 0.5795395 
0.3301854 0.3847263 0.86195314 
0.9129857 0.4079801 -0.0030721393 
0.6615337 -0.200482 0.72262037 
0.116290994 0.11573879 0.98644865 
-0.8317651 0.13160677 0.5393018 
-0.794577 -0.330639 0.50923985 
-0.7955642 -0.60584486 -0.00545729 
-0.3813759 0.3157301 -0.86883086 
-0.50341266 0.8338101 -0.22657594 
-0.67134553 0.53468007 -0.51323736 
-0.81942713 -0.38126472 0.42799124 
0.6123743 -0.7710771 0.1744647 
0.16392928 -0.98643076 0.009030473 
-0.12955588 -0.84600806 -0.5171901 
0.18778972 -0.5812021 -0.79179496 
0.5150214 -0.82973886 -0.2151428 
-0.0058625415 -0.5778818 -0.81609946 
-0.29459786 -0.6988904 0.65173954 
-0.45507988 -0.82977015 0.32308516 
-0.7159275 -0.67086405 0.19336343 
-0.992624 -0.093810655 -0.07679411 
-0.4781569 0.07169799 -0.8753431 
0.036635242 0.5790576 -0.8144632 
0.60205615 0.5466193 -0.5820102 
0.428493 -0.89045066 0.1532691 
-0.47640023 -0.86728257 -0.14444265 
0.42444426 -0.72173107 -0.54676443 
0.6281984 -0.43088406 -0.64784706 
0.8249678 -0.5520762 -0.12099637 
0.66175205 -0.35807204 -0.6586872 
0.3984458 0.59091234 -0.70147246 
0.79133105 -0.14459091 -0.59404427 
0.7682862 -0.5088231 0.38837525 
0.409866 -0.9104808 -0.055086996 
0.046962988 -0.51166576 -0.8579002 
-0.19246756 -0.81196135 -0.55106735 
-0.16577499 -0.82504064 -0.54021 
0.4887476 -0.81529695 -0.3105105 
-0.17014588 -0.97553235 0.13923743 
-0.23571804 -0.96404713 -0.122679606 
0.25433362 -0.6246208 -0.7383518 
-0.01484243 -0.36168903 -0.93218064 
0.79655904 -0.33722544 -0.50176954 
0.8047968 -0.57148826 -0.16032265 
0.6455088 -0.59041 0.4844941 
0.544396 0.19706887 0.8153508 
0.6086708 -0.23911412 0.7565344 
0.0026878845 -0.31534195 0.9489744 
0.29482505 0.3334832 0.8954704 
-0.7505815 -0.046687208 0.65912664 
-0.67686504 -0.396321 0.6203092 
-0.87872887 -0.44505626 -0.17251208 
-0.5599735 -0.8283227 -0.017646668 
-0.37726486 -0.8177193 -0.43474883 
-0.19682889 -0.7370155 -0.6465807 
-0.38430992 -0.91248024 0.14030664 
-0.11577259 -0.90693396 -0.4050526 
-0.7758318 0.055785418 -0.6284689 
-0.29632598 -0.120227255 -0.94748956 
0.19596253 -0.11273308 -0.9741098 
-0.07689624 -0.27012056 -0.959751 
-0.052241087 0.012133238 -0.99856085 
-0.2608789 -0.16832875 -0.9505828 
-0.40185088 -0.7968506 -0.45115963 
-0.12789264 0.0911676 -0.987589 
-0.43813407 -0.37625563 -0.8163764 
-0.8687535 -0.14928822 -0.47220805 
-0.7875341 -0.5998754 -0.14120807 
-0.3321901 -0.8765305 -0.34834492 
-0.7460083 -0.46726704 -0.4744821 
-0.4354703 -0.8807791 -0.18599433 
-0.5585926 -0.40355456 -0.7246503 
-0.34951535 -0.19510825 -0.91639066 
0.41855052 -0.6927367 -0.5873085 
0.6714258 -0.3331767 -0.6619522 
0.91914415 0.32596964 -0.2211742 
0.6695857 0.6960739 0.2591066 
0.56107 0.82070065 0.10793999 
-0.5631395 0.58086634 0.58776546 
-0.92997724 0.2426978 -0.2761163 
-0.7555489 -0.037810285 -0.65400016 
-0.5390371 0.12480256 -0.83298457 
-0.5568578 0.3748785 -0.7411987 
-0.35936224 -0.47035238 -0.8059948 
-0.3201752 -0.019730229 -0.94715285 
0.31472355 -0.06437278 -0.946998 
0.61275786 0.7823527 -0.111589275 
0.7183838 0.692419 0.06693827 
0.66158676 -0.3667224 0.6540777 
0.39723128 -0.8957378 0.19965224 
0.66079026 -0.7246657 0.19548883 
0.008696424 -0.7036667 0.71047705 
-0.6735689 -0.5822184 0.4553314 
-0.5403561 -0.5899963 0.59993315 
-0.81135523 -0.5396419 -0.22469853 
-0.9796967 0.09487026 -0.1766187 
0.5390386 -0.5607791 -0.6284618 
-0.52661216 -0.8088063 -0.26174834 
0.2912773 -0.74759734 -0.5968717 
0.31647405 -0.8782739 -0.35843983 
0.36575845 -0.93011045 -0.033398338 
0.58841777 -0.64629763 0.48586416 
0.12203765 -0.808594 0.5755717 
0.20086235 -0.7775992 0.59581363 
0.19728212 0.094312035 0.9757997 
0.3230349 -0.36809725 0.87186754 
0.23980175 -0.22076765 0.9453872 
-0.21799526 0.44990882 0.8660602 
-0.26223773 -0.3934129 0.8811684 
-0.7103865 -0.70365113 0.015039796 
-0.45208824 -0.77909565 0.4343113 
-0.12024627 -0.82295257 -0.5552386 
0.050006755 -0.9832245 -0.17541084 
-0.0011044511 -0.9474906 -0.31978187 
0.31457332 -0.7400352 -0.5944675 
-0.04093532 -0.90864795 -0.41555172 
0.29839203 -0.8944028 -0.3331754 
0.6301825 -0.6453896 0.4316739 
0.24607134 -0.5205308 0.81761634 
0.19306575 -0.9565552 0.21846707 
-0.432549 -0.89873976 -0.071890116 
-0.13725115 -0.9158632 -0.37730205 
-0.38680294 -0.87590194 -0.2884083 
-0.11975887 -0.7439402 -0.6574275 
0.0348902 -0.99939084 0.0009153656 
0.041521497 -0.9574873 -0.28547156 
0.5909472 -0.7798213 -0.20654352 
0.9612673 -0.27547243 -0.00895267 
0.31595245 -0.5929766 0.74064356 
0.77884215 -0.62398523 -0.063618466 
-0.8217705 -0.3863044 0.41888234 
-0.41884598 -0.7999539 -0.42969984 
-0.7764516 -0.5571764 0.29441026 
-0.04931914 -0.91584754 -0.3984858 
-0.21196936 -0.53512645 -0.81774604 
0.035683528 -0.78216743 -0.62204564 
0.010169153 -0.8189003 -0.57384586 
0.06598651 -0.99436927 -0.08291901 
0.14901891 -0.60056514 -0.78556675 
0.73330915 -0.29223052 -0.6138885 
0.4113019 0.14732471 -0.8995145 
0.43502498 -0.23366207 -0.86957186 
0.7904952 -0.47186184 -0.39046627 
0.6841496 -0.25912964 -0.68175596 
0.39048037 -0.16794705 -0.9051624 
0.7172881 0.04483874 -0.6953325 
0.91412705 -0.20979096 0.34692883 
0.63944286 -0.58534527 0.49848142 
0.6379614 -0.14599325 0.7561026 
0.2145198 -0.07313028 0.97397804 
0.18470506 0.37264875 0.90940475 
0.046098173 0.8905275 0.45258778 
-0.21360256 -0.49549827 0.8419356 
-0.8421468 -0.13423777 0.52227294 
-0.5363927 -0.37791127 0.7546298 
-0.8771907 -0.40495586 0.2579675 
-0.823238 -0.56214744 0.079179786 
-0.10310834 -0.73721427 -0.66774535 
0.47706798 -0.77746755 -0.40981758 
0.0020755155 -0.9165571 -0.3998987 
-0.15661217 -0.35805857 -0.9204709 
0.41199613 -0.7157609 -0.5638667 
0.013018249 -0.9497291 0.31280234 
0.41252264 -0.8674389 0.27816346 
0.16029201 -0.9306882 0.3288252 
-0.10915811 -0.8076579 0.5794594 
-0.66297066 -0.6680546 0.33789504 
-0.26783916 -0.85681957 -0.44059324 
-0.49015877 -0.6421087 -0.5894412 
-0.7436532 -0.40471962 -0.5321485 
-0.7353042 -0.56752217 -0.37046787 
-0.1252539 -0.9284086 -0.3498128 
-0.12665476 -0.9592126 -0.25272468 
0.032511014 -0.4218135 -0.9060997 
0.5734939 -0.7123578 -0.40453824 
-0.15887082 -0.42047328 -0.8932874 
0.2717353 -0.15309899 -0.9501162 
-0.06497919 0.6837779 -0.72679126 
0.7198976 0.5961528 -0.3554566 
-0.011745757 0.8024309 -0.5966295 
-0.6988444 -0.38075963 -0.6055071 
-0.17834783 0.6501308 -0.7385947 
-0.06313517 -0.43364888 -0.8988675 
-0.33666873 -0.66331667 -0.6683302 
0.15118773 -0.82626325 -0.5426153 
-0.05127402 -0.70648634 -0.705867 
-0.11451916 -0.87970287 -0.46152824 
0.23890296 -0.9427169 0.23283139 
-0.18421544 -0.9387915 0.2910932 
-0.062962376 -0.3381968 0.9389669 
0.0649854 -0.73168963 0.67853314 
0.28587544 -0.95106494 0.11726416 
-0.31270114 -0.54573774 0.77742416 
-0.58073795 -0.48204368 0.65603155 
-0.60570323 -0.78974605 0.09708092 
-0.6296299 -0.75073856 0.19989459 
-0.4097009 -0.66804826 -0.6211737 
-0.53985614 -0.62091047 -0.5683535 
-0.47025424 -0.68748707 -0.5533738 
-0.15859744 -0.12337194 -0.97960514 
-0.37548184 -0.5358723 -0.75621057 
-0.021364007 -0.5790956 -0.8149797 
-0.13672377 -0.7944977 -0.5916756 
0.5282839 -0.65876466 -0.5356728 
0.020704463 -0.9692247 0.24530593 
-0.026388366 -0.99931246 0.026042137 
-0.2636719 -0.963906 0.036911212 
-0.35331434 -0.8489912 -0.39291584 
0.25787103 -0.9543905 0.15047027 
0.002808443 -0.947956 -0.318389 
-0.012886979 -0.9742053 -0.22529534 
0.845118 -0.44449982 -0.2969774 
-0.2613605 -0.6383561 -0.7240112 
0.3645834 0.13040383 -0.9219945 
0.9161468 -0.40070617 0.01046959 
-0.109466024 -0.9853645 0.13066754 
-0.5644777 -0.67759794 0.47140858 
-0.08365274 -0.9867966 0.1386892 
-0.1364805 -0.80611 -0.57581234 
0.4183622 -0.82058483 -0.38937604 
0.46846008 -0.8576607 -0.21204585 
-0.000781008 -0.96295613 -0.26965708 
-0.08421679 0.14614047 0.98567265 
-0.6949391 -0.2881969 0.65878844 
-0.42297474 -0.6695234 0.6105987 
-0.614213 -0.7274312 0.30591893 
-0.35068542 -0.93631566 -0.018247593 
-0.10288545 -0.8998439 0.42390525 
-0.7580382 -0.65055054 -0.046499502 
-0.18208666 -0.90209055 0.39125064 
-0.47585854 -0.87474304 0.09156083 
-0.5155276 -0.649983 -0.55834895 
0.018406285 -0.8989944 -0.4375732 
-0.49880546 -0.8427533 -0.20238599 
-0.4217514 -0.8850687 -0.19692397 
-0.21452075 -0.95362186 -0.21115458 
-0.72290313 -0.64224315 -0.2548233 
-0.6098454 -0.07650732 -0.78881896 
-0.3658283 -0.15538074 -0.91762006 
-0.7249393 -0.121974416 -0.6779272 
0.033411156 -0.63701165 -0.7701298 
-0.15767938 -0.6950608 -0.7014469 
0.33834037 -0.31349236 -0.8872703 
0.30450296 -0.86548126 -0.39776897 
-0.36770022 -0.92658716 -0.07894826 
-0.6276965 -0.7354789 0.25508413 
-0.5991052 -0.79946387 0.043938022 
-0.509508 -0.76633686 -0.39131764 
-0.45446444 -0.834162 0.3124676 
0.08411166 -0.8367693 -0.5410569 
0.33442515 -0.5639969 -0.75502807 
0.37438968 -0.090639144 -0.92283094 
0.89492106 -0.2884697 -0.34044307 
0.93132114 0.24131182 -0.2727813 
0.78649575 0.61485416 0.058129054 
0.90290594 0.036972284 0.42824537 
0.43750462 0.2861246 0.8524803 
0.6806018 0.700366 -0.21510173 
-0.011723741 0.86960185 0.4936146 
-0.4445599 0.10852309 0.88915086 
-0.58702224 0.1917881 0.7865255 
-0.99882823 0.014793701 -0.046080507 
-0.9627553 0.07497762 -0.25977054 
-0.33151385 -0.09757227 -0.9383914 
-0.3396712 0.05128809 -0.9391449 
-0.61922795 -0.115460835 -0.77667594 
-0.061314408 -0.9938283 0.092444025 
-0.5007186 -0.8528985 0.14780115 
-0.55740625 -0.7610136 -0.3318985 
0.3966457 -0.6225917 -0.67457527 
0.63724434 -0.7281527 -0.25241518 
0.7234825 -0.5881967 -0.36138338 
0.03433897 -0.067492805 -0.99712867 
-0.03794015 -0.8870153 -0.46017873 
-0.42740515 -0.84313405 -0.3262664 
-0.5377001 -0.81333417 0.22218505 
-0.6533932 -0.44169945 -0.6148 
-0.34867793 -0.5984215 -0.7213289 
-0.21330047 0.24893133 -0.9447413 
0.12322549 0.25911832 -0.9579527 
0.1717702 -0.6744683 -0.71804434 
0.1458005 -0.7542899 -0.6401475 
-0.09736517 -0.10272943 -0.9899327 
0.6937134 -0.004076305 -0.72023964 
0.31472877 -0.5732276 -0.7565421 
0.6285315 0.12343443 -0.76792717 
0.06485734 -0.17909728 -0.98169124 
0.4765654 0.034838006 -0.87844855 
0.9178658 -0.3901777 -0.07269014 
0.34922284 -0.8160367 0.460573 
-0.0708696 -0.1935006 -0.9785372 
0.2908123 -0.7112929 -0.63991463 
0.36348107 -0.846231 -0.3895829 
0.22898614 -0.9638255 -0.13640264 
-0.5858928 -0.76766545 -0.25965264 
-0.66266704 -0.6823743 -0.30860627 
-0.54428893 -0.7163986 -0.43648908 
0.084714524 -0.28011116 -0.95622236 
0.58458865 0.06887723 -0.808401 
0.30597392 -0.9381806 -0.16185552 
0.70336974 -0.7098395 0.037403386 
0.26737326 -0.86447585 0.4256677 
-0.028706744 -0.9287544 0.36958253 
-0.29566786 -0.29832137 0.9075159 
-0.35722175 -0.20811397 0.91053903 
-0.80637413 0.16184247 0.56883013 
-0.99992704 -0.011810299 0.002570055 
-0.91747427 -0.3942602 -0.052913032 
-0.65883213 -0.70798314 -0.2543622 
-0.38697365 -0.48739794 -0.78274816 
-0.42732236 -0.8670097 -0.2563004 
-0.21370883 -0.86423165 -0.4554474 
-0.11091405 -0.60615987 -0.78757125 
-0.822491 -0.27864867 -0.49584627 
-0.34980476 0.011107434 -0.9367568 
0.086910106 0.21003534 -0.9738233 
0.5561132 0.15597561 -0.8163393 
0.048184145 0.28529084 -0.9572291 
0.58305174 0.5315462 -0.614418 
0.16315053 0.23392291 -0.9584686 
-0.4192976 -0.09042045 -0.90333474 
0.20047732 0.20937514 -0.95706373 
-0.8140283 -0.30128032 -0.49657646 
-0.8116424 -0.5558934 -0.17949738 
0.045434263 -0.279363 -0.95911 
0.12228201 -0.02297785 -0.99222946 
0.058423653 -0.5597556 -0.8265956 
-0.2919934 0.28647542 -0.91250855 
0.059523962 0.4592078 -0.88633233 
0.73401105 0.5001009 -0.4594856 
0.8717856 -0.48931322 -0.023715867 
0.98763704 0.116651215 0.10471656 
0.7200964 0.1229669 0.68289113 
-0.07217067 0.47656217 0.87617344 
-0.48690096 0.77163905 0.40926862 
-0.3204674 0.6652078 0.6743881 
-0.9992384 -0.01731623 -0.03496961 
-0.1328233 0.3711887 -0.9190087 
-0.16516128 0.43528682 -0.8850125 
0.24190444 -0.21145746 -0.9469784 
-0.21024802 -0.027950587 -0.9772485 
0.06552937 0.077900745 -0.9948053 
0.8083977 0.44097847 -0.38991162 
0.70479405 0.67024916 -0.23244661 
0.62515503 -0.7262778 -0.28583536 
0.5740806 -0.77753216 -0.25666192 
0.57221967 -0.7500201 -0.3317147 
0.52708083 -0.81598824 0.23737943 
-0.3375264 -0.78143525 0.5248189 
-0.756087 -0.5704768 0.32076302 
-0.9739701 0.1466807 -0.17282102 
-0.8476664 -0.107386015 -0.5195479 
0.28378788 -0.88207895 -0.37603343 
-0.101012334 -0.63776666 -0.7635773 
-0.56940824 -0.7701671 -0.28743193 
0.42786884 -0.64485174 -0.63332033 
0.6774665 -0.44140786 -0.5883863 
0.2743996 -0.82532203 -0.4935064 
0.22118819 -0.9622844 0.15838134 
0.5943041 -0.79402894 0.12775287 
0.67475015 -0.28067482 0.6825936 
0.80289316 -0.10876216 0.58611715 
-0.014828762 -0.930776 0.36528912 
-0.15727721 -0.7268448 0.66855115 
-0.32537702 -0.9218135 0.21068867 
-0.109439865 -0.9832267 -0.1459049 
-0.46581623 -0.84861857 -0.2507225 
-0.06773758 -0.30066442 -0.95132154 
-0.27119556 -0.76189995 0.5881849 
-0.015067956 -0.98579156 -0.16729623 
0.5525989 -0.5751624 -0.60317713 
0.4551275 -0.51618433 -0.725543 
0.60410607 -0.5276616 -0.5971844 
0.39865693 -0.8363878 0.37620223 
0.042021777 -0.8506945 0.52397823 
0.17585334 -0.9592152 0.22131878 
-0.35760194 -0.93331826 -0.03221909 
0.0036916686 -0.98556125 -0.16927886 
-0.19730659 -0.27648294 -0.9405463 
0.17046313 -0.6685368 -0.72387904 
0.578637 -0.8148812 0.03388274 
0.37066266 -0.6938896 0.6173544 
0.6668845 -0.5703805 0.47951138 
0.44999135 -0.86169547 0.23449671 
-0.024956059 -0.7672818 0.6408243 
-0.46507078 -0.2616315 0.84572935 
-0.57123065 -0.611386 0.5476337 
-0.9469254 -0.3179776 -0.047145523 
-0.97835964 -0.20618121 0.017375724 
-0.43996146 -0.4376618 -0.7841467 
-0.41209203 -0.79551184 -0.44423085 
-0.09122339 -0.49953154 -0.86147934 
0.33466923 -0.45594683 -0.82468736 
0.31512302 -0.5003738 -0.8064264 
0.37459695 -0.6417758 -0.6691794 
0.30249587 -0.48562422 -0.82016194 
0.6473306 0.08772473 -0.7571443 
0.31050953 -0.48676708 -0.81648135 
0.4912975 -0.6451983 -0.58510333 
0.90660167 -0.33088914 -0.26188895 
0.8270332 -0.0048097484 -0.5621325 
0.969807 -0.10854046 -0.21838836 
0.77250165 -0.6320767 -0.060994063 
0.7375891 -0.32577688 0.5914658 
0.34713155 -0.60656047 0.71525115 
-0.17006618 0.036334407 0.98476267 
-0.40743205 0.5005827 0.76381695 
-0.2343648 -0.03143445 0.97164035 
0.20531885 -0.45666063 0.8656243 
0.035128403 -0.14061412 0.9894411 
0.00013127776 -0.494932 0.86893183 
-0.72839373 -0.52576834 0.43932936 
-0.927498 -0.23610255 0.2898328 
-0.35124525 -0.4554787 -0.8180257 
-0.1150541 0.122068875 -0.9858305 
0.20362422 -0.90349704 -0.3771345 
0.12677738 -0.6132218 -0.7796708 
0.2999239 -0.92866045 -0.21825524 
0.21512453 -0.92273444 -0.31981683 
0.44055852 -0.61202425 -0.6567607 
0.38289687 -0.8717332 -0.30573064 
0.22373551 -0.9419178 0.25046623 
-0.44711992 -0.8820332 -0.14866509 
-0.2011132 -0.93915975 -0.27844682 
-0.19926591 -0.44017127 -0.87552404 
-0.039457884 -0.72280955 -0.68991995 
-0.107319295 -0.43225792 -0.8953412 
-0.22510363 -0.9121413 -0.34252995 
-0.001993993 -0.19817878 -0.98016393 
0.24505031 -0.34086996 -0.90761113 
0.2655009 -0.118829206 -0.9567597 
-0.29306212 0.065712765 -0.9538325 
0.35913137 0.23334135 -0.90364623 
-0.6548852 0.5382389 -0.5304946 
0.11173612 0.86746395 -0.48479012 
0.07035706 0.93993485 0.33402452 
-0.5336913 0.8397852 -0.09967214 
-0.59559613 0.03201371 -0.8026459 
-0.1543382 -0.069069505 -0.9856009 
-0.5641221 -0.07556878 -0.8222261 
-0.19921373 0.114469096 -0.9732475 
0.30075097 -0.7045239 -0.64280236 
-0.21967444 -0.91918296 -0.32687306 
0.16218981 -0.9010998 -0.40213642 
-0.29645932 -0.92436725 0.24011905 
-0.3283843 -0.9168144 0.22718973 
-0.46524215 -0.87426907 -0.13857615 
0.12584262 -0.9344528 0.33310926 
-0.014150777 -0.9713854 0.23708688 
-0.32891184 -0.9123823 0.24367134 
-0.12502787 -0.82234675 0.55508024 
-0.60906345 -0.77215654 -0.18115202 
-0.4131245 -0.735619 -0.536836 
-0.61700296 -0.728934 -0.296585 
-0.76975447 -0.054090425 -0.6360444 
-0.11194947 -0.59697104 -0.7944136 
0.22195229 -0.015731765 -0.9749307 
0.5526772 -0.5355399 -0.63854915 
0.090789445 -0.8369369 -0.5397165 
0.25336337 -0.6443922 -0.7215024 
-0.41441348 -0.9063879 0.08199123 
-0.2134725 -0.8394633 -0.499731 
-0.092111595 -0.8697899 -0.4847484 
-0.18764459 -0.5726805 -0.7980142 
0.5924845 -0.80419755 -0.047206514 
0.19220936 -0.93211865 -0.30693725 
-0.16060805 -0.819633 -0.5499154 
-0.24454504 -0.796928 -0.55236185 
-0.69773245 -0.5431169 -0.46711192 
-0.42744106 0.064040996 -0.90177214 
-0.3963222 -0.79255503 -0.46344942 
-0.030732123 -0.93942183 -0.3413829 
-0.48883456 -0.6105181 -0.62314403 
0.09536558 -0.99337304 0.06415115 
0.689956 -0.7236835 0.015585136 
0.99446636 0.036813088 -0.09839443 
0.5105393 -0.3154539 0.7998991 
0.81370527 -0.5159279 0.26777276 
0.1871085 -0.49576363 0.84806186 
-0.5704987 -0.7768295 -0.2665843 
-0.6632171 -0.49763447 0.5590198 
-0.12833445 -0.81467843 -0.5655347 
-0.07006808 -0.9665884 -0.24657129 
-0.6232966 -0.51247454 0.5906532 
-0.9011563 -0.40533695 -0.15368576 
-0.40632492 -0.91360015 -0.015329288 
-0.65190303 -0.621822 -0.43400446 
-0.26935306 -0.5735725 -0.7736042 
0.009948784 -0.97769153 -0.20981055 
-0.11389172 -0.95969766 -0.25692242 
-0.5381515 -0.8409283 0.056856293 
-0.57925457 -0.79111475 -0.1964729 
-0.62365067 -0.50307417 -0.59831125 
0.033538774 -0.117793635 -0.9924716 
0.11948974 0.12614055 -0.9847897 
-0.78110415 -0.20006402 -0.5914818 
0.46645358 -0.8646332 -0.18662958 
0.70645356 0.12589154 -0.69647306 
0.94641083 -0.058087282 -0.3176985 
0.85118943 -0.03552411 -0.5236551 
0.21032856 -0.6173741 -0.7580311 
-0.62978256 -0.7732536 0.07384385 
-0.8026566 -0.5830795 0.12554137 
-0.5067894 -0.8620349 -0.007774619 
0.3460371 -0.78367937 -0.5158539 
0.10377158 -0.94317234 -0.3156859 
0.28280497 -0.57265604 -0.76947165 
0.367968 -0.11306934 -0.9229383 
0.88732016 -0.011302874 -0.46101534 
0.6679903 0.5077624 -0.5440278 
0.9984458 0.030986946 0.04632209 
0.64129704 0.44369316 0.6259988 
0.47123158 0.21549971 0.8552782 
0.367209 0.40979403 0.8350008 
-0.17342325 0.3276675 0.9287402 
-0.6844009 0.37126848 0.62749916 
-0.89972895 -0.09334975 0.42634943 
-0.8356246 -0.42593205 0.3468626 
-0.6188552 -0.57306945 0.5372242 
-0.8977461 -0.052181304 -0.43741205 
-0.8529783 -0.056925796 -0.51883286 
-0.67015487 0.29944116 -0.67913735 
-0.3501828 -0.8667706 -0.35507852 
-0.29911652 -0.78173405 -0.54719406 