# OOMMF: rectangular mesh v1.0
# Segment count: 1
# Begin: Segment
# Begin: Header
# Desc: Time (s) :  4.900000000000006e-07
# Title: m
# meshtype: rectangular
# meshunit: m
# xbase: 2e-09
# ybase: 2e-09
# zbase: 5e-10
# xstepsize: 4e-09
# ystepsize: 4e-09
# zstepsize: 1e-09
# xmin: 0
# ymin: 0
# zmin: 0
# xmax: 1.024e-06
# ymax: 1.024e-06
# zmax: 1e-09
# xnodes: 256
# ynodes: 256
# znodes: 1
# ValueRangeMinMag: 1e-08
# ValueRangeMaxMag: 1
# valueunit: 
# valuemultiplier: 1
# End: Header
# Begin: Data Text
-0.75741804 0.08018299 0.6479881 
-0.471902 -0.5546143 -0.685355 
-0.43596646 -0.61675483 -0.65539825 
-0.7731299 -0.5986569 0.2094762 
-0.55510443 0.020620316 -0.831525 
-0.90907454 -0.36672416 -0.19772923 
-0.43219817 -0.17130066 -0.88535917 
-0.58873385 0.39872387 -0.7031442 
0.15620764 -0.8853153 -0.4379681 
0.36826426 -0.48040083 -0.7959877 
0.40264595 -0.78521276 -0.4704436 
0.083519876 -0.84008694 -0.53598356 
0.3949193 -0.35945913 -0.845475 
0.84130806 -0.53258157 0.09250804 
0.7736981 -0.63354397 -0.0036575007 
0.32605904 -0.8876993 0.32507783 
0.08598971 -0.5729426 0.8150721 
0.27914008 -0.058143433 0.9584886 
0.27360815 -0.30286738 0.9129129 
0.2970318 -0.29099098 0.90944844 
-0.26041776 -0.8337004 0.48695627 
-0.34967563 -0.29598448 0.8888871 
-0.19428314 -0.56781965 0.7998969 
-0.787816 -0.23123685 0.5708552 
-0.5495572 -0.48612183 0.6794649 
-0.44079643 -0.69222564 0.57142127 
-0.5483406 -0.66033065 0.5131141 
-0.10442383 -0.8521613 -0.51275414 
0.042238634 -0.98643893 -0.15860088 
0.35800114 -0.3257621 -0.87505096 
0.018252295 -0.87783355 -0.47861794 
0.4666032 -0.73184055 -0.49667993 
-0.41981015 -0.5297459 -0.73697275 
0.38165385 0.048867833 -0.9230127 
0.25454757 -0.50829864 -0.82270175 
0.37373066 -0.32629615 -0.86824894 
0.7404162 -0.44291607 -0.50557816 
0.74968356 -0.66178185 0.0044119824 
0.5492028 -0.65275466 0.5218119 
-0.17027982 0.14095703 0.975262 
-0.5864364 -0.4964855 0.6399957 
-0.33517465 0.5271341 0.780889 
-0.22403742 -0.34220117 0.912527 
0.2743136 -0.28240067 0.9192399 
-0.2303976 0.5636055 0.7932627 
-0.6867408 0.6000845 0.41022635 
-0.55054176 0.34754822 0.7590217 
-0.8302342 0.077924564 -0.55194104 
-0.7524058 0.45953155 -0.4719283 
-0.617533 -0.7433462 -0.25707886 
-0.77922946 -0.44399393 -0.442347 
-0.90416324 -0.41641346 0.095334396 
-0.38176998 -0.77777207 -0.49932185 
-0.81245905 -0.28445104 -0.5089183 
-0.6630563 -0.7041322 -0.2540752 
-0.078445226 -0.64049125 -0.7639485 
0.12445652 -0.37491477 -0.9186673 
-0.37096986 -0.21026522 -0.9045275 
-0.24433772 -0.5550136 -0.79514724 
-0.02332607 -0.6139138 -0.7890284 
-0.30913186 -0.81078726 -0.49705276 
-0.4372739 -0.4221601 -0.79408604 
-0.081838064 0.16676238 -0.98259497 
0.6325392 -0.47749856 -0.60982734 
0.34991524 0.0764992 -0.9336527 
0.7612324 -0.46549958 -0.45148164 
0.721045 0.18475614 -0.6678018 
0.15104896 0.29547945 -0.94333243 
0.35962608 0.7149139 -0.59963936 
0.29726574 0.6771815 0.6730962 
0.9451436 0.037950747 0.3244433 
0.1720442 0.20752937 0.962981 
0.0870145 -0.38030693 0.9207579 
-0.38519526 -0.6670264 0.6377307 
-0.9988615 -0.040734053 0.024827784 
-0.9665081 -0.24360868 -0.0807279 
-0.89061725 0.3730355 -0.26008752 
-0.07160078 -0.43894792 -0.89565516 
0.55077666 -0.24367565 -0.79829025 
0.22601736 -0.8999216 0.37290397 
0.091194585 -0.8927163 -0.4412949 
-0.024528896 -0.7624773 -0.64655 
-0.23060505 -0.96482897 0.12619999 
-0.94596404 -0.3240518 -0.011941803 
-0.86270714 -0.4047833 -0.3031286 
-0.46520388 -0.73939294 -0.48670682 
0.15710038 0.060218234 -0.9857451 
0.34767616 0.25811476 -0.90138674 
0.2641739 0.20399024 -0.94265586 
0.47580916 -0.8214857 -0.31427184 
0.9834392 -0.18113756 0.0060527376 
0.9307292 -0.349627 0.10725737 
0.7593966 -0.3672156 0.5370936 
0.057133343 -0.40348053 0.91320276 
0.7683802 0.21412462 0.6031108 
-0.14327626 -0.39284426 0.90837514 
-0.20105147 -0.7421654 0.63935035 
-0.630644 -0.728485 0.26757768 
-0.5988992 0.11029273 -0.7931931 
0.32707638 -0.71093225 -0.6225724 
0.5620813 -0.8267996 -0.02161439 
-0.42172402 -0.4571607 0.7830409 
-0.39232796 -0.36603558 0.8438583 
-0.11166844 -0.41994154 0.900655 
-0.50149286 0.5361629 0.678995 
-0.8178186 -0.08758813 -0.5687717 
-0.36432305 -0.7284895 -0.58014804 
0.43034574 -0.8007933 -0.41657242 
0.342032 -0.90007555 0.26995978 
-0.77547795 -0.15033844 0.61321485 
-0.5125163 -0.23983717 0.824503 
-0.10512981 -0.9596 0.26098967 
-0.7376748 -0.6524082 -0.17377989 
-0.74089104 0.631547 -0.22853646 
-0.4420936 0.32701704 -0.83523244 
-0.8194552 -0.15067051 -0.55298424 
-0.020736428 -0.8702936 -0.49209654 
-0.6818052 -0.2054528 -0.7020903 
-0.24699573 -0.3760436 -0.8930758 
-0.01677801 -0.40949628 -0.91215754 
-0.19408672 0.33234736 -0.9229711 
0.7080584 0.112403475 -0.69715047 
0.88135064 0.46734992 -0.06931879 
0.73796004 -0.6640499 0.12021904 
0.4296061 -0.2802524 -0.85842717 
0.5361479 -0.27510223 -0.79803777 
0.8357427 -0.5154426 -0.18934886 
0.9419699 -0.32951397 0.064135954 
0.3751058 -0.60291517 0.7041229 
-0.24192913 -0.31124535 0.9190194 
0.5513204 0.34710917 0.75865746 
0.07087054 0.21016511 0.9750939 
0.1700726 0.30440706 0.9372362 
-0.17964728 0.5134539 0.83910197 
0.04621742 0.26490045 0.9631676 
-0.85419756 -0.510305 0.0996771 
-0.5732975 -0.7077681 -0.4127885 
-0.9094076 -0.41365954 0.043169465 
-0.70379853 -0.5138479 -0.4905386 
-0.6766492 -0.43711784 -0.592515 
-0.46034002 -0.62640333 -0.62905157 
-0.38793957 -0.55676407 -0.73451805 
-0.28994888 -0.43253776 -0.8537218 
0.35769227 -0.87152594 -0.33540863 
0.675374 -0.55538476 -0.48519877 
0.38544658 -0.684739 -0.6185171 
0.0815836 -0.5547413 -0.8280134 
0.60461324 -0.49301425 -0.6256036 
0.9337337 -0.26284903 0.24300602 
0.34735918 -0.80981237 0.47280616 
-0.11425768 -0.7339398 0.6695354 
-0.7333659 -0.6798065 -0.006133942 
-0.43194714 -0.78307915 0.44744682 
-0.46615174 -0.013968748 0.8845946 
-0.9703427 -0.2417315 -0.0010213298 
-0.85732657 -0.09723641 -0.5055059 
-0.64453465 -0.43974626 -0.6254586 
-0.7954853 -0.60585064 -0.012170803 
-0.36769596 -0.9275636 -0.06652474 
0.41938075 -0.27115756 -0.866368 
-0.24369298 -0.14067481 -0.959596 
-0.6680479 0.2174989 -0.71162236 
-0.32451862 0.53629637 -0.77914953 
0.531058 0.0055387868 -0.8473174 
0.41888815 0.28140146 -0.86333424 
0.297862 -0.37994927 -0.8757379 
0.728691 -0.6796002 -0.084575534 
0.78061324 -0.62366706 -0.041017633 
0.8744788 -0.41999125 0.2426815 
0.036227588 -0.29434398 0.95501274 
-0.09829128 -0.48615012 0.86832994 
-0.043420542 0.166199 0.9851358 
0.6190482 -0.5132079 0.5944721 
0.49293956 -0.76781726 0.4092276 
0.21401292 -0.96581274 -0.14630224 
0.03323089 -0.9611603 -0.27398312 
-0.038022652 -0.9766178 0.21159378 
0.5666788 -0.45197892 0.68890506 
0.31770948 -0.24560481 0.9158269 
0.46179378 -0.49157262 0.7383108 
0.5856622 -0.5855817 0.5604408 
0.34080696 -0.68908834 0.63953733 
-0.018738417 -0.9514741 0.3071579 
-0.5595166 -0.82755756 -0.04571207 
-0.9095624 -0.18761417 -0.3708061 
-0.46327442 -0.5183938 -0.7187801 
0.23190594 -0.32747534 -0.9159583 
0.5337869 -0.15727606 -0.83086455 
0.7367089 -0.1010768 -0.6686132 
0.5942788 -0.07150348 -0.8010744 
0.36881644 0.47977284 -0.7961108 
-0.3356152 0.68665266 -0.64488035 
0.38674945 0.04545557 -0.92106396 
-0.41349116 -0.5759444 -0.7052043 
0.46187058 -0.3839261 -0.7995477 
-0.31592277 -0.8177815 -0.48106793 
-0.03458107 0.029143345 -0.99897695 
-0.31101346 0.74636084 -0.58840144 
-0.6096095 0.296593 -0.7351251 
-0.38372767 -0.3270417 -0.8635953 
-0.5345222 0.12797458 -0.83540916 
0.52847314 -0.77473134 -0.34714198 
-0.6804206 0.07948612 -0.72849834 
-0.8818507 -0.028090382 -0.47069132 
-0.2195099 -0.56620914 -0.7944953 
-0.6847208 -0.46011436 -0.565201 
-0.41313344 -0.9053726 -0.098087154 
-0.520779 -0.8448782 -0.12235268 
0.45239025 -0.6999841 -0.55259883 
0.17855935 -0.79806113 -0.5755128 
-0.7403561 -0.14982691 -0.65530515 
-0.722942 -0.6785734 0.12997301 
0.3021264 -0.9490077 0.09002366 
0.15665972 -0.6433393 0.7493813 
-0.54469115 -0.28914464 0.78721476 
-0.7680721 -0.6345903 0.085793614 
-0.94690865 -0.30790377 -0.09251615 
-0.9926293 -0.019487685 -0.11961325 
-0.89947295 -0.33713216 -0.27801147 
0.029189821 -0.9724832 -0.23113722 
0.07552873 -0.8733699 -0.4811658 
0.44415402 -0.8870197 0.12618741 
0.29245558 -0.55702513 0.77729845 
-0.47399622 -0.6993718 0.53498286 
-0.5770858 -0.77566737 0.2555624 
-0.9439992 -0.099279724 0.31465745 
-0.04382206 -0.82214344 -0.5675912 
-0.12769027 -0.9833341 0.12941931 
0.003979156 -0.8891767 -0.4575466 
0.0689932 -0.9427523 -0.32627916 
-0.392151 -0.9145065 0.09947624 
-0.772601 -0.490991 0.40251145 
-0.7331323 0.08208712 -0.67511386 
0.30618027 -0.94043064 -0.14779672 
0.15649973 -0.53566265 -0.8298032 
0.17403738 -0.59540135 -0.7843521 
-0.29886436 -0.95088935 -0.08055749 
-0.21903907 -0.76225954 0.6090833 
-0.637905 -0.6841766 0.3535247 
0.61594814 -0.7599308 -0.20763715 
-0.08590189 -0.7732529 0.62825227 
0.23542579 -0.4269732 0.87307996 
0.30130652 -0.31696436 0.8993043 
-0.9664618 0.1225129 0.22570422 
-0.23988341 -0.7254743 0.6450915 
-0.6749031 -0.5573367 -0.48361322 
-0.2158331 -0.39778498 -0.89173055 
-0.23412699 -0.517094 -0.82328504 
0.3675657 -0.3967431 -0.8411246 
0.96328014 -0.2528609 -0.09029299 
0.110809796 0.85104364 -0.51326996 
0.34263527 0.22072339 -0.9131716 
0.5326534 -0.47791824 -0.6984802 
0.36405995 0.21173291 -0.90698934 
0.19209182 -0.03440518 -0.98077375 
0.68246716 0.5559304 -0.4745313 
-0.862582 0.031583305 0.50493044 
-0.5083172 -0.42851356 -0.7469872 
-0.62966716 -0.7443724 -0.22232653 
-0.915354 -0.39872664 -0.056073125 
-0.8384408 0.01713842 -0.5447234 
-0.7458962 -0.43561113 -0.5038668 
-0.71278244 -0.2436112 -0.65771943 
-0.67088336 0.108112484 -0.7336398 
-0.2921544 -0.82206607 -0.48872638 
0.088282175 0.042999163 -0.995167 
0.01541289 -0.46266538 -0.88639903 
0.22985107 -0.27425957 -0.93378276 
0.22278903 -0.97409046 -0.038894236 
0.649358 -0.7364351 -0.1897301 
0.7386728 -0.31070012 -0.5981873 
0.8609524 -0.5082201 -0.02175738 
-0.030299578 -0.39437518 0.9184499 
-0.34637928 -0.7739202 0.53015935 
-0.15256421 -0.72957003 0.6666721 
0.014931465 -0.6513711 0.75861233 
-0.0009870619 -0.86148614 0.5077801 
-0.036134474 -0.91369927 0.40478134 
-0.7837284 -0.5534894 0.28181416 
-0.90718687 -0.42071092 0.0037831767 
-0.82455146 -0.42169583 -0.37721026 
-0.8529898 -0.4407293 0.27958217 
-0.35713103 -0.9315924 0.067772806 
0.6023966 -0.4327762 -0.6706885 
-0.53068686 -0.5432179 -0.6506042 
0.06820144 -0.5981532 -0.7984745 
0.11087291 -0.6855794 -0.7195055 
0.15648408 -0.7584993 -0.63260704 
0.10208004 -0.62349385 -0.7751355 
-0.07521321 -0.7510927 -0.6558985 
0.24613926 0.57790655 -0.7780999 
0.27339062 -0.44523463 -0.85265684 
0.9434905 -0.0014273674 -0.33139673 
0.9406089 -0.31431141 0.12830909 
0.5667726 -0.3977622 0.72149444 
-0.28631788 -0.3106044 0.9063924 
0.2714383 -0.81480455 0.5122643 
-0.37614715 0.013778335 0.92645746 
-0.3625607 -0.5108792 0.7794564 
0.42682365 -0.10481609 0.89824003 
0.027684363 0.68190897 0.730913 
-0.42615598 0.6771738 0.59985566 
-0.4385937 0.48550197 0.7562563 
-0.88297856 -0.0868503 -0.46130902 
-0.57460356 -0.023578672 -0.8180922 
-0.8690968 -0.39122218 -0.30268142 
-0.1846383 0.3418631 -0.92143285 
-0.8917337 0.28953055 -0.3478265 
-0.8282869 -0.35313475 -0.43501344 
-0.6529026 0.30148196 -0.6948574 
-0.7482485 -0.44210875 -0.49463522 
0.023419566 -0.24828288 -0.9684045 
-0.28694835 -0.11360807 -0.9511855 
-0.07582855 -0.5203454 -0.8505826 
-0.00802511 -0.15562592 -0.9877835 
0.15995593 -0.110109076 -0.9809639 
-0.3658142 -0.5781866 -0.7293013 
0.07897239 -0.053008143 -0.99546653 
0.45075834 0.37540457 -0.80986935 
0.7159286 0.2416449 -0.65502214 
0.8261297 -0.03729596 -0.5622444 
0.6306974 -0.12842338 -0.7653288 
0.6730797 -0.15734212 -0.7226391 
0.90775573 0.32726216 -0.2624482 
0.5967122 0.64525026 -0.47706062 
0.9602667 0.2605766 0.09993878 
0.43693715 0.37702757 0.81666166 
-0.86966693 -0.12053093 0.47869787 
-0.41620126 -0.6106562 0.6737029 
-0.527286 -0.5855582 0.61570376 
-0.8359664 -0.5207781 0.17306171 
-0.6323309 -0.7719563 0.065122925 
-0.85626733 -0.43677 -0.27575037 
-0.24470972 -0.4559613 -0.8556966 
0.28573194 -0.3152273 -0.9049802 
0.23145422 -0.5942566 -0.7702519 
-0.09230405 -0.73844016 -0.66797173 
-0.16491878 -0.6081651 -0.77649015 
-0.6457634 -0.62295985 -0.4414869 
-0.68222827 -0.37830275 -0.625661 
-0.43918508 -0.14444028 -0.88670933 
-0.047456913 -0.35429114 -0.9339302 
0.4782069 0.28864604 -0.82945865 
0.3616692 0.57013804 -0.7376572 
0.6708945 0.6541747 -0.34922206 
0.6995761 -0.09587545 -0.7080969 
0.8687927 -0.38737917 -0.30844226 
0.88858086 -0.32553056 0.3231933 
0.74858975 -0.35784328 0.55817705 
0.84520113 -0.5254044 0.09790512 
0.9117226 0.24802436 0.327484 
0.19103898 0.018094063 0.98141575 
0.3504893 -0.34617102 0.8702431 
-0.16184276 -0.9770119 0.1387612 
-0.5931213 -0.68306977 -0.42617244 
0.22011791 -0.71524346 -0.6633061 
0.48626143 -0.7947642 0.3631799 
-0.21501333 -0.29352143 0.93145823 
0.175567 -0.80753917 0.563078 
-0.731421 -0.49622115 0.4677478 
-0.98408586 -0.12954485 0.12162768 
-0.79260105 -0.26447862 -0.54939485 
-0.3229905 -0.7340757 -0.59733576 
0.036756627 -0.6330558 -0.773233 
0.4934122 -0.865691 -0.08440155 
-0.10093518 -0.9706925 -0.21810131 
-0.20146656 -0.8836542 -0.4225714 
-0.5551963 -0.68871385 -0.46629423 
-0.8995424 -0.43653345 -0.016187383 
-0.6831031 -0.23649515 0.6909706 
-0.7751768 -0.5999053 -0.19802666 
-0.65356666 -0.268584 -0.707611 
-0.66473216 -0.2144718 -0.7156347 
-0.3312314 0.14466788 -0.93239325 
-0.2737606 0.057802938 -0.9600594 
0.43257192 -0.2745053 -0.8587948 
0.32668206 -0.07458547 -0.9421868 
0.59355825 -0.3479784 -0.72567195 
0.77957433 -0.4917328 -0.3878953 
0.48794532 -0.8638828 0.12496411 
0.90016085 -0.3448635 -0.26604438 
0.826245 0.040013004 -0.5618882 
0.9227192 -0.2872469 0.2570577 
0.64936304 -0.19470161 0.735132 
0.777541 -0.16987625 0.60545206 
0.14339694 -0.4787822 0.86614376 
-0.35533658 -0.74309576 0.567049 
-0.68345916 -0.43767485 0.58422977 
-0.5955072 0.5891225 0.54617393 
-0.74967873 0.56916296 0.33769122 
-0.9580138 0.23614366 0.1626217 
-0.6268079 -0.7777358 0.04731768 
-0.65341246 -0.63596076 -0.41061687 
-0.3840018 -0.7576945 -0.5276759 
-0.72162294 -0.5081084 -0.47019818 
-0.6779296 -0.64458025 -0.35345146 
0.060179725 -0.5624879 -0.82461256 
-0.20822373 -0.6665988 -0.7157437 
0.24006908 -0.4665624 -0.85128516 
0.35479575 -0.19624732 -0.9141155 
-0.042580362 -0.64659214 -0.7616466 
0.08149979 -0.5898208 -0.8034111 
0.30160248 -0.34771922 -0.8877654 
0.58224726 -0.2152304 -0.7840052 
0.36567947 -0.7823203 -0.5042357 
0.23460476 -0.9303897 -0.28166568 
0.07086007 -0.72047293 -0.6898533 
-0.41248655 -0.8804407 -0.23383555 
-0.5051898 -0.7892458 0.34910503 
-0.19951594 -0.8174279 0.54037505 
-0.8627088 -0.11529353 0.49238306 
-0.4220093 -0.3432858 -0.8390847 
-0.21107985 -0.69088477 -0.69146484 
-0.076879375 -0.7895815 -0.60881096 
-0.38316607 -0.7807784 -0.49352685 
-0.36163372 -0.004868659 -0.9323076 
-0.23668 0.15847278 -0.95857656 
0.062014226 0.66857904 -0.74105084 
0.59880924 0.7280758 -0.33366632 
0.46315268 0.7277614 -0.5058192 
0.45397875 0.75061196 -0.4800885 
0.9494678 0.2824279 -0.13691448 
0.9039239 -0.3814691 -0.19339861 
0.55367327 -0.8230654 -0.12652765 
0.36073786 -0.48129663 0.79888785 
0.0031105434 -0.2831747 0.95906335 
0.26573882 -0.4994301 0.82459235 
0.5888484 -0.29270968 0.7533782 
-0.21079564 -0.7052324 0.676914 
-0.49042374 -0.8135018 0.31256917 
-0.56859463 -0.54863113 -0.61294705 
-0.05999808 -0.5116559 -0.85709304 
0.56075597 -0.34714898 -0.75169164 
0.8834867 -0.43281972 0.17921594 
0.8134051 -0.2533903 0.52360815 
0.6750483 -0.6060389 0.4207454 
0.27356598 -0.8226201 0.49845552 
0.737248 -0.6735377 -0.05303285 
0.0017757721 -0.9578832 -0.2871529 
0.89549375 -0.33015257 -0.29847997 
-0.43711102 -0.8377468 0.32728344 
-0.32392648 -0.7415335 -0.587537 
0.15874773 -0.38005933 -0.9112378 
0.8618501 -0.19475201 -0.4682801 
0.6999254 0.059223317 -0.71175635 
0.9271354 0.13694414 -0.34880686 
0.8568942 0.15573198 -0.49140626 
0.70403254 0.5055315 -0.49877474 
0.21237202 0.24622098 -0.94566035 
0.1762932 -0.07066578 -0.9817979 
0.44954512 -0.17071559 -0.8767927 
0.32753965 0.10899406 -0.9385298 
0.34191337 0.0011505979 -0.9397308 
0.08667289 -0.022372652 -0.9959856 
-0.01772342 0.43179038 -0.9017998 
-0.11022321 0.8840158 -0.45427626 
-0.14957638 0.6760239 -0.7215391 
0.109786056 0.45591006 -0.8832287 
-0.63547325 0.5719484 -0.5186992 
-0.90575856 0.1168888 -0.40735558 
-0.32804236 0.312918 -0.89133084 
-0.31275398 -0.43412158 -0.8448216 
0.1921417 -0.6300755 -0.7523873 
-0.13422658 -0.90828055 -0.39624453 
-0.024641203 -0.84732234 -0.5305072 
-0.4595468 -0.54852855 -0.6985222 
-0.5131997 -0.7106123 -0.481307 
-0.49931118 -0.80377734 -0.32346642 
-0.1127283 -0.5867301 -0.8018979 
-0.7570733 -0.5230703 -0.39145586 
-0.9556682 0.009387347 -0.29429612 
-0.6402513 -0.7345721 -0.22468229 
-0.48648155 -0.27747163 -0.8284596 
-0.7103574 -0.21108517 -0.67144287 
0.08188444 -0.29429013 -0.9522019 
-0.06997059 -0.8636358 -0.49923685 
0.4153819 -0.77444685 -0.4771689 
0.21570402 -0.8367245 0.5033526 
-0.35850883 -0.91675794 0.17614295 
-0.545654 -0.8266116 -0.13774951 
-0.42317295 -0.7118237 -0.5605637 
-0.7713041 -0.32071254 -0.5497577 
-0.31654626 -0.21566032 -0.9237366 
0.26687625 -0.62545246 -0.7332029 
0.8935616 -0.3270643 -0.30753314 
0.68145686 -0.67404526 -0.28509584 
-0.18044361 -0.83164686 -0.5251701 
-0.80179614 -0.3224012 -0.5031703 
-0.6489669 -0.41108832 -0.640194 
0.31626216 -0.33513805 -0.8875026 
0.405329 -0.22927964 -0.88495153 
-0.400596 -0.25800908 -0.87917817 
-0.13237251 -0.80296445 -0.5811417 
-0.3275643 -0.72817385 -0.60205024 
0.58091474 -0.7788493 0.23649909 
-0.41469774 -0.59017277 -0.6926197 
0.20285098 -0.92737573 -0.31436595 
0.02112799 -0.89763963 0.44022346 
0.13390177 -0.675602 0.72500503 
-0.7270851 -0.47801545 0.4927966 
-0.8089486 -0.41963437 -0.4117148 
-0.41593653 -0.299588 -0.85862905 
-0.42459175 -0.4789221 -0.7683459 
-0.20313872 -0.08501103 -0.97545266 
0.0043763546 0.05508563 -0.99847203 
0.7299598 -0.12494194 -0.6719734 
0.7600611 -0.34164357 -0.55279917 
0.61342704 0.42996013 -0.66245127 
0.6161016 -0.09620635 -0.78176934 
0.96146446 0.025375133 -0.27375573 
0.66659087 0.37440398 -0.6445761 
0.9689995 0.15605865 0.1915351 
-0.81818527 -0.5598778 0.13080457 
-0.025692234 -0.8472293 -0.53060585 
-0.638175 -0.37984073 -0.6696669 
-0.6532133 -0.48834643 -0.5786452 
-0.42252666 -0.38800296 -0.8191001 
-0.48597646 -0.68551844 -0.5421175 
-0.59697855 -0.5125799 -0.6171535 
0.04647554 -0.84926903 -0.52591085 
-0.649262 -0.37574604 -0.66126686 
0.24286206 -0.12476621 -0.96200395 
0.14106894 -0.70319253 -0.6968643 
-0.19801734 0.19994345 -0.9595894 
0.17046867 -0.02659808 -0.98500407 
0.7123975 -0.49154356 -0.500874 
0.7387449 -0.45192608 -0.5000187 
0.9874682 -0.119433686 -0.10316163 
0.7567291 -0.6202627 0.20648295 
-0.28921428 -0.9342704 0.20855182 
-0.5157151 -0.80001646 0.30661315 
0.036107372 -0.8703043 0.49118927 
-0.33129868 -0.9178088 0.2187882 
-0.12352841 -0.97376245 -0.19112162 
-0.9970045 0.056963965 0.05231816 
-0.7603408 -0.42603764 -0.4902795 
-0.73834115 0.017032854 -0.6742124 
-0.72679806 -0.6547174 -0.20762905 
-0.8043691 -0.19391952 -0.561592 
0.014551429 -0.7720933 -0.6353426 
0.30602336 0.10165119 -0.9465816 
-0.12149083 -0.71094185 -0.69267726 
-0.20017013 -0.89173377 -0.40588543 
0.2764554 -0.8420895 -0.4630958 
0.664671 -0.12580441 -0.73646843 
0.29060328 -0.30341837 -0.9074619 
0.62200433 -0.61907655 -0.4794318 
0.46527073 -0.5287778 -0.70987135 
0.7463833 -0.12606162 -0.6534681 
0.9445407 -0.31429207 -0.09520276 
0.22356413 -0.68525755 0.69313866 
0.44901177 -0.577451 0.6818642 
0.5257951 -0.65923053 0.537545 
0.7110604 0.37560675 0.5944012 
-0.23988158 0.33510765 0.91113096 
-0.61869776 -0.031844825 0.7849835 
-0.6379988 0.07987952 0.765883 
-0.684414 -0.10472255 0.7215336 
-0.8863527 0.30406877 0.34917197 
-0.8535853 0.48706597 -0.18482164 
-0.7472946 0.4120091 -0.5213437 
-0.7325111 0.4990045 -0.4630572 
-0.92803 0.04473969 -0.36980918 
-0.1335099 0.23308949 -0.9632469 
-0.12221676 0.39861375 -0.908939 
-0.85922426 -0.34757003 -0.37540504 
-0.68858486 -0.5185763 -0.50688225 
-0.4969963 -0.77574575 -0.3888617 
-0.44866425 -0.32846472 -0.8311507 
-0.282612 0.0020103299 -0.9592322 
-0.1273772 0.24740732 -0.9605024 
-0.3226305 0.07385216 -0.9436395 
-0.7259521 -0.0043155565 -0.68773174 
-0.47938788 0.33186048 -0.8124383 
0.39226267 0.16041774 -0.90575725 
0.46046087 0.45068982 -0.7647578 
0.53492206 0.06144271 -0.84266436 
0.32928365 -0.29281598 -0.89768094 
0.95986146 -0.07556376 -0.270104 
0.35624158 0.4812552 -0.8009278 
0.2336931 0.5465361 0.80416787 
0.84101474 0.44422075 0.30880776 
-0.02666819 -0.18748255 0.9819059 
-0.8357792 -0.2328483 0.4972472 
-0.64858747 -0.5903572 0.48042968 
-0.89519966 -0.44514436 -0.02154396 
-0.5368006 -0.4115298 -0.7365382 
-0.51828027 -0.26558316 -0.8129276 
-0.264746 -0.15813114 -0.9512645 
-0.084484495 -0.33816183 -0.93728817 
0.10753841 -0.219496 -0.96966857 
-0.20503221 -0.41707385 -0.8854441 
-0.34231278 -0.49854 -0.7964168 
-0.14660007 -0.7644206 -0.6278293 
-0.24038416 -0.76009685 -0.60371214 
-0.1470551 0.33379972 -0.93110293 
-0.43478176 0.3057947 -0.84702694 
-0.33514583 0.09236191 -0.93762815 
0.22724198 0.27830952 -0.93322295 
0.95835847 0.12676728 -0.25588924 
0.94769263 0.11923827 0.2960759 
0.9603835 0.09940894 -0.26034877 
0.8775889 0.18941335 -0.44040924 
0.7207979 -0.6456356 0.25220045 
0.83530486 -0.42453307 0.3493387 
0.9423387 -0.16161424 0.29305047 
0.7201217 0.40689552 0.562015 
0.13157733 -0.16921884 0.97675616 
-0.0281779 -0.7068336 0.7068185 
0.1919557 -0.85167736 -0.48764607 
0.05035689 -0.9978239 -0.04256418 
0.69262135 -0.7212675 0.0069901585 
0.35897255 -0.91660595 0.17598975 
0.015273578 -0.5654337 0.8246523 
0.041416448 -0.99882525 0.025158353 
-0.44561282 -0.8058958 0.38982198 
-0.8908119 -0.28100196 0.35706013 
-0.8405234 -0.22326219 -0.49363405 
-0.50525385 -0.7318199 -0.45733818 
0.2774181 -0.61432767 -0.73867506 
-0.037441615 -0.55727273 -0.829485 
0.21747233 -0.70116824 -0.67902064 
-0.16054522 -0.90123487 -0.40249342 
-0.6938462 -0.69756335 -0.17883739 
-0.6148727 -0.712391 -0.33827612 
-0.6509562 -0.70696336 0.27651203 
-0.5473575 -0.52549005 -0.65135247 
0.04003653 -0.6997034 -0.71331084 
-0.017672086 -0.23884845 -0.97089607 
-0.48827282 0.21312569 -0.8462666 
-0.5541664 0.078781195 -0.8286696 
-0.08234971 -0.11726161 -0.9896809 
0.1253155 -0.4597432 -0.8791657 
0.9058546 0.025376273 -0.42282817 
0.07511501 -0.6127116 -0.7867288 
0.9540729 -0.16709955 -0.24864197 
0.97426337 -0.07180539 -0.21367012 
0.8781806 -0.05975826 -0.47458163 
0.9508294 -0.30265558 0.065751284 
0.7278902 0.10819799 0.67710346 
0.8675849 -0.296377 0.39932093 
0.13673274 -0.7900443 0.597607 
-0.1344514 -0.05281197 0.9895119 
-0.5986257 -0.2318976 0.76672745 
-0.7596106 -0.28537694 0.5844243 
-0.7512108 -0.5238664 0.40155503 
-0.8407018 -0.5098621 -0.1823764 
-0.7195888 -0.6024313 -0.34535292 
-0.70015377 -0.60361516 -0.38135758 
0.22849831 -0.59545445 -0.77020943 
0.08667352 -0.6189493 -0.7806341 
-0.89804703 -0.13044105 -0.42011526 
-0.069407746 0.09494471 -0.99305993 
-0.1930896 -0.055264894 -0.9796235 
-0.17162058 -0.7374343 -0.6532511 
0.3611283 -0.21560939 -0.907248 
0.5937533 0.030195698 -0.80408037 
0.3542652 -0.36234298 -0.8620927 
0.11162998 -0.0679731 -0.9914224 
0.5021774 0.1459006 -0.8523678 
0.771426 -0.016794365 -0.63609755 
0.88008636 -0.046418775 -0.4725392 
0.00340142 -0.3835701 -0.92350554 
-0.09200524 -0.87031215 -0.48383027 
-0.014904575 -0.4578783 0.88888997 
-0.2812778 -0.6611658 0.6955161 
-0.7225161 -0.5756374 0.3828996 
-0.7917769 -0.6010097 -0.108981095 
-0.7033416 -0.7003251 0.1218833 
-0.64058405 -0.3887449 -0.66221565 
-0.5621769 -0.40215033 -0.7226564 
-0.30551082 0.45242274 -0.8378406 
0.13950276 0.13029355 -0.9816123 
0.5290323 0.4198048 -0.7374882 
0.44243997 0.044651054 -0.89568585 
0.56266147 0.48113808 -0.67224866 
0.58571845 0.5926253 -0.55292785 
0.20238158 -0.42325968 -0.8831155 
0.8376667 -0.21034697 -0.50405234 
0.8611641 -0.47254723 -0.18733782 
0.6611098 -0.6663254 0.34488305 
0.24809179 -0.23529834 0.9397262 
0.5775516 -0.21795544 0.7867208 
0.32522583 -0.46803245 0.82168967 
-0.30854976 -0.49891397 0.8098655 
-0.37736666 -0.6173218 0.69029576 
-0.5658165 -0.6591384 -0.49536684 
-0.7139376 -0.48569277 -0.50437665 
0.19866034 -0.40689746 -0.89161 
0.7381444 -0.6648464 -0.11455154 
0.39995223 -0.89373696 0.2031565 
0.25479662 -0.9397351 -0.22798409 
-0.03249969 -0.6792788 -0.7331604 
-0.4125873 -0.7951836 -0.4443588 
-0.20569853 -0.5172529 -0.83074516 
0.22496471 -0.37916878 -0.8975645 
0.016493745 -0.90846425 -0.4176372 
-0.54362583 -0.4240473 -0.7243306 
-0.08593747 -0.22068617 -0.9715516 
0.47615442 -0.5459472 -0.68936116 
-0.028527662 -0.43756667 -0.8987334 
0.26940465 0.50026214 -0.82289666 
0.935796 0.062335745 -0.3469872 
0.72790325 0.5509824 -0.40813628 
0.5183611 0.8040923 -0.29109702 
0.08014366 0.4839336 -0.87142724 
0.4513572 0.62627715 -0.6356521 
0.77374226 0.23603958 -0.5878846 
-0.3025083 0.30686077 -0.9023997 
0.21059677 0.26099733 -0.9420879 
0.5772203 0.73373413 -0.35840055 
0.44578198 0.88661104 -0.12328516 
-0.12426233 0.90123284 -0.41513652 
-0.3278326 0.8606295 -0.38967007 
-0.5927798 0.62516445 -0.507722 
-0.9397317 0.25143486 -0.23170026 
-0.69522196 -0.30237958 -0.65209895 
-0.86104995 -0.078506984 -0.50242376 
-0.665525 -0.44998926 -0.5954714 
-0.4487142 -0.497542 -0.74236625 
0.20645808 -0.29872867 -0.9317383 
-0.4564404 -0.31424126 -0.8324149 
-0.43979183 -0.44329184 -0.7810734 
-0.40129387 -0.51295173 -0.75884384 
0.7702714 0.071027085 -0.6337484 
-0.72091085 -0.67576027 -0.15373893 
-0.7343171 -0.64245737 0.21915083 
-0.7103406 -0.5321769 0.4606561 
-0.94546586 -0.07098964 -0.3178914 
-0.50222814 -0.34881178 -0.7912631 
0.68347853 -0.6017754 -0.41318697 
0.19121125 -0.8572661 -0.4780514 
0.6026875 -0.6684394 -0.43584013 
0.723336 -0.63205564 0.2780121 
0.53594 -0.842479 0.054749392 
0.28623775 -0.9548405 -0.07967282 
-0.0915513 -0.52720964 -0.844789 
-0.67194545 -0.07769695 -0.7365138 
-0.67471415 0.20817396 -0.7081134 
0.0054365797 0.30125952 -0.95352674 
0.0072367317 0.6183444 -0.7858739 
0.21200036 0.31991497 -0.9234231 
0.9188367 -0.33848357 -0.20289902 
-0.37174183 -0.45286334 -0.81038433 
-0.7492015 -0.30352417 -0.58870226 
-0.43004367 -0.51401824 -0.7421912 
-0.1906503 -0.1401412 -0.97160333 
0.25784162 -0.28152254 -0.9242634 
-0.7728725 -0.5252564 -0.35605308 
-0.719998 -0.6363378 -0.27690625 
0.23463613 -0.9516381 0.1983199 
-0.6516138 -0.7585489 0.001775419 
0.24868947 -0.69991267 -0.669534 
-0.021754647 -0.9099134 -0.41422763 
0.07504006 -0.8873397 -0.4549696 
-0.5243798 -0.7879962 -0.32262644 
-0.99733484 0.04077632 0.060503487 
-0.69529057 -0.025881 -0.7182627 
-0.8209398 -0.55640584 -0.12833671 
-0.37377322 -0.15894353 -0.9138001 
-0.7987994 0.24378851 -0.549988 
-0.71640724 -0.0544233 -0.6955565 
-0.0015583795 -0.027361874 -0.99962443 
0.7891445 0.2131159 -0.57604915 
0.45377767 0.62208086 -0.6380449 
-0.041110978 0.2615087 -0.9643252 
0.5736995 0.52225834 -0.6309638 
0.8406704 0.5026031 -0.20165224 
-0.7572947 -0.5333219 -0.37692508 
-0.31178504 -0.6783608 -0.6652945 
-0.21086282 -0.28136185 -0.93614763 
-0.51706487 -0.4528098 -0.72636575 
-0.13931355 -0.7367505 -0.6616574 
-0.25860152 -0.09533581 -0.9612682 
-0.63631934 -0.20576093 -0.7434784 
-0.575117 0.25687063 -0.77669686 
-0.69280064 -0.15639545 -0.7039657 
0.41905034 -0.36218983 -0.83259565 
-0.2222849 -0.1266047 -0.9667268 
-0.5781767 -0.09071 -0.81085354 
-0.14660959 0.50116366 -0.8528428 
0.3939045 -0.16115054 -0.90491426 
0.43168932 0.55411994 -0.7117552 
0.5853754 -0.129416 -0.80036694 
0.54492164 -0.7139651 -0.43967527 
0.69408894 -0.713129 -0.09842571 
0.28284973 -0.95302004 -0.1083929 
0.53526956 -0.83978677 -0.090800494 
-0.05106823 -0.670602 0.74005747 
-0.8218507 -0.48701322 0.29560053 
-0.54690236 -0.8369535 0.020166753 
0.30161974 -0.9254826 -0.2291456 
-0.85319597 0.10816678 -0.51025164 
-0.6375694 0.37082136 -0.67527544 
-0.70606595 -0.5141482 -0.4869523 
-0.18543844 -0.30376598 -0.934526 
-0.69918096 -0.674047 0.2383415 
-0.8468149 -0.19453865 -0.49503472 
-0.7639335 -0.41073418 -0.4976979 
-0.486178 0.07672921 -0.8704847 
0.21455093 -0.38432017 -0.8979231 
0.026244026 -0.03291532 -0.99911356 
0.38656023 -0.15992096 -0.9082932 
0.40349934 -0.3212652 -0.85672456 
0.42778996 -0.07840192 -0.90047157 
0.32242078 -0.77031547 -0.55014455 
0.68248683 -0.7183351 0.13493156 
0.5122938 -0.65550405 0.5548599 
0.6019234 -0.7981647 0.024927665 
0.12011738 -0.49149188 0.8625588 
0.3631675 -0.42940307 0.82687515 
-0.34130058 -0.18119633 0.9223242 
-0.3267491 -0.1605856 0.9313685 
-0.68405527 0.1749808 0.7081315 
-0.6439946 -0.053992413 0.7631225 
-0.8000988 0.5950729 0.07569802 
-0.45264462 0.8285779 -0.32950214 
-0.60105234 0.4285999 -0.67456526 
-0.503503 -0.72504634 -0.46988568 
-0.22176933 -0.2972006 -0.9287035 
-0.23677379 0.2102372 -0.9485455 
-0.6575752 -0.031298995 -0.75273865 
-0.6195181 -0.36806422 -0.6933442 
-0.71360815 -0.56117487 -0.41934025 
0.14995857 0.025323952 -0.988368 
0.19311589 0.6433389 -0.74082476 
0.09045987 0.6755307 -0.7317619 
-0.3669344 -0.30959022 -0.87721896 
-0.30660143 -0.55419457 -0.773863 
0.12657475 -0.031718004 -0.9914499 
0.5739427 0.22569822 -0.78717864 
0.5631175 0.10637547 -0.8195017 
0.38635898 -0.2972333 -0.8731432 
0.55595016 0.13570456 -0.8200633 
0.503586 0.84656584 -0.17241654 
0.44094336 0.86283386 -0.24715713 
0.9616189 -0.044200588 0.270805 
0.42352742 0.718175 0.55213153 
-0.07443615 0.3734933 0.92464155 
-0.19322386 -0.11093801 0.97486275 
-0.619508 -0.13546719 0.7732131 
-0.71155936 -0.68330485 0.16363929 
-0.4177767 -0.5254396 -0.7411989 
-0.91011316 -0.25678924 -0.32519737 
-0.26371264 0.37673357 -0.8879907 
0.042660054 -0.5804995 -0.8131423 
-0.16101241 -0.13435376 -0.97776484 
0.417354 -0.09392699 -0.90387696 