# OOMMF: rectangular mesh v1.0
# Segment count: 1
# Begin: Segment
# Begin: Header
# Desc: Time (s) :  5.020000000000007e-07
# Title: m
# meshtype: rectangular
# meshunit: m
# xbase: 2e-09
# ybase: 2e-09
# zbase: 5e-10
# xstepsize: 4e-09
# ystepsize: 4e-09
# zstepsize: 1e-09
# xmin: 0
# ymin: 0
# zmin: 0
# xmax: 1.024e-06
# ymax: 1.024e-06
# zmax: 1e-09
# xnodes: 256
# ynodes: 256
# znodes: 1
# ValueRangeMinMag: 1e-08
# ValueRangeMaxMag: 1
# valueunit: 
# valuemultiplier: 1
# End: Header
# Begin: Data Text
-0.2679884 -0.803088 -0.5321952 
-0.49463135 -0.8610124 0.11831146 
-0.5901796 -0.3799052 -0.7122922 
-0.7387875 0.26215667 -0.62086 
-0.31393737 -0.67149 -0.6712261 
-0.32766676 -0.508308 -0.7964029 
-0.1839005 -0.7122495 -0.67740774 
-0.049747337 -0.41738066 -0.907369 
-0.13898614 -0.927063 -0.34819132 
-0.11785716 -0.79870045 -0.590074 
0.48755094 -0.85734147 0.1651049 
0.7936301 -0.51049197 0.33098236 
0.34818095 -0.91148823 0.21899603 
-0.10117205 -0.67169684 -0.7338853 
-0.06552559 -0.765439 -0.64016384 
0.5463603 -0.57779944 -0.6063319 
0.7075851 -0.090013884 -0.7008716 
0.16545224 -0.027957791 -0.98582155 
0.09561605 -0.84882104 -0.51996213 
0.43027458 0.05378528 -0.90109426 
0.2982692 -0.40054742 -0.8663702 
-0.3091188 -0.9331586 -0.18346836 
0.25242087 -0.9491866 0.18795902 
0.0054238513 -0.93763214 -0.34758672 
-0.44021314 -0.80464435 0.39844698 
-0.8064572 -0.57201004 0.14977054 
-0.41649735 -0.90718734 -0.059508115 
-0.50533295 -0.6945957 -0.5120308 
0.06297329 -0.8168067 0.5734643 
0.24519749 -0.50883627 0.8252054 
-0.1960077 0.56433946 0.8019364 
-0.44817653 -0.5526991 0.7026105 
0.2548365 -0.9622802 0.09526458 
-0.022071926 -0.983448 -0.17984173 
0.7950158 -0.33588123 -0.5051075 
0.96975195 -0.20786488 0.12795882 
0.3444194 -0.5974678 0.72415996 
-0.54175496 -0.20367716 0.8154859 
-0.9522838 -0.29092893 0.09228178 
-0.9120103 -0.3812495 -0.15128183 
-0.4353088 -0.8782296 -0.19803813 
-0.39408275 -0.918531 0.031620204 
0.10856946 -0.8190317 0.5633826 
-0.16658086 -0.45825553 0.8730709 
0.49049577 -0.87071383 0.035658676 
0.05334226 -0.70138735 0.7107816 
0.014013991 -0.69211364 0.72165257 
-0.14563392 -0.9561705 -0.25402537 
-0.5700585 -0.62189704 -0.53691465 
-0.79955465 0.017688628 -0.60033286 
0.015115971 -0.897952 -0.43983376 
0.33248124 -0.43485582 -0.8368732 
-0.039396968 -0.1988401 -0.9792398 
-0.02599427 -0.5730789 -0.81908786 
-0.5881016 -0.51456314 -0.6239882 
-0.256078 -0.92761475 -0.27194676 
-0.48320684 -0.7818198 -0.39404175 
-0.81211674 -0.16909672 -0.55845565 
-0.13058944 -0.95609015 -0.26237008 
0.03524005 -0.97456753 -0.22130574 
-0.04393761 -0.8377923 -0.5442185 
-0.3377685 -0.5518018 -0.7625138 
0.10751704 -0.9938125 0.027871752 
0.81666946 0.028414506 -0.57640594 
0.99727637 0.03505167 -0.06489475 
0.5938386 -0.801073 -0.075085565 
0.8733239 -0.26207596 -0.41063544 
0.45113942 0.8458371 -0.28466302 
0.25931925 0.9330177 0.24946305 
-0.24866669 0.82728815 0.5037454 
-0.5925221 0.7866451 0.17351386 
-0.3146493 0.9159339 -0.24912024 
-0.5356097 0.8244189 -0.18290918 
-0.19946703 0.88394094 -0.42292 
-0.44853973 0.8907542 0.07327342 
-0.5447048 0.796741 0.2617261 
-0.3519814 0.90417343 -0.24203202 
-0.081850484 0.72839993 -0.6802457 
-0.33869734 0.5684013 -0.74980277 
-0.4762371 0.68326956 -0.5534808 
-0.24507965 0.2705769 -0.93098027 
-0.90601414 0.29681364 -0.30172867 
-0.24149056 0.41764718 -0.8759299 
0.121275224 0.1681967 -0.978265 
-0.10268878 0.20522314 -0.9733132 
0.17718725 0.23255074 -0.956308 
0.53731596 -0.22706687 -0.8122391 
0.9318235 0.100255445 -0.3487892 
0.9276274 0.37350416 0.0014642121 
0.96961206 -0.1319272 0.20602848 
0.94239837 0.1563715 0.2956913 
0.53030914 0.4367801 0.72663295 
0.8085922 0.54296064 0.22665511 
-0.2426086 0.5777293 0.7793395 
-0.5383273 0.6356722 0.5532853 
-0.7273744 0.46795553 -0.50194055 
-0.86392796 0.44169867 -0.24193148 
-0.29700863 0.79060364 -0.5354734 
-0.5247707 0.04642987 -0.8499765 
-0.36061877 -0.48285705 -0.7979996 
-0.27014512 -0.19181515 -0.9435193 
-0.6465944 -0.7423717 -0.17549923 
0.22338119 -0.7016439 -0.6766068 
0.115684405 -0.59151167 -0.7979544 
-0.16066898 -0.06875023 -0.98461103 
0.14015971 -0.41033036 -0.90110177 
0.5217025 0.5269578 -0.6709262 
0.3137123 -0.8717323 -0.3763873 
0.73989886 -0.6725561 -0.014763395 
0.75445014 -0.2060703 0.6231695 
0.5301462 -0.07833098 0.8442804 
0.62309974 0.52380395 0.580841 
0.6345824 0.6547791 0.4105723 
0.36383957 0.8152224 0.45059225 
-0.08964981 0.9609722 0.2617161 
0.2115357 0.8147771 0.53980637 
-0.31505746 0.20911846 0.92574745 
-0.45817995 0.8429605 -0.28193754 
-0.11438161 0.60736704 -0.7861439 
-0.43388432 0.5194808 -0.73612773 
-0.191884 0.080406606 -0.9781183 
0.48191628 -0.61227185 -0.6268014 
-0.16195594 -0.6846217 -0.71067816 
-0.40601102 -0.9104095 0.07943283 
-0.2319049 -0.94561857 -0.22809114 
-0.28831887 -0.8168642 -0.49960497 
-0.0075631794 -0.30126232 -0.9535113 
0.5576085 -0.13416624 -0.81919 
0.7401894 -0.6721311 0.018959979 
0.56230164 -0.5515729 0.6161041 
0.3729119 -0.5213003 0.7675824 
0.3748994 -0.8073572 0.45565885 
0.2909155 -0.59631413 0.74818295 
0.6245013 0.04118828 0.779937 
-0.32463756 0.39326397 0.86020577 
-0.6190017 0.7246421 0.30287105 
-0.9178806 0.09938279 0.38421124 
-0.5731004 -0.52132267 -0.63228047 
-0.8961202 0.05740506 -0.44008335 
-0.80424464 0.1470555 -0.57581717 
-0.70094955 -0.68094707 -0.21208698 
-0.6070336 -0.24835971 -0.7548694 
-0.517711 -0.6099773 -0.59991914 
-0.12664942 -0.9840771 -0.12470826 
-0.34284133 -0.5784137 -0.74020094 
-0.3555515 -0.91079944 -0.20982784 
0.031913593 -0.9993377 -0.017489046 
0.3488646 -0.93372095 -0.080366805 
0.2854926 -0.44221807 0.85025716 
-0.03414374 0.15126497 0.9879035 
-0.060904082 -0.99505746 0.07843148 
-0.027350796 -0.92648447 -0.37533793 
-0.32757926 -0.59261906 -0.73586315 
-0.36678565 -0.5455541 -0.7535509 
-0.97603273 0.19673236 0.09304024 
0.16672349 0.82470024 -0.5404377 
-0.27117887 0.90570724 -0.32581666 
0.49367514 0.5946427 -0.6345747 
0.39467052 0.6011578 -0.69487023 
0.55084646 0.035125464 -0.83386713 
0.9765282 0.041476343 -0.21135864 
-0.1855482 0.32766613 -0.9263946 
0.6648829 -0.20931347 -0.71702075 
0.27163556 -0.26892588 -0.9240634 
0.8247602 -0.20943165 -0.5252704 
0.72291833 -0.2197937 -0.65504193 
0.5564234 -0.32560354 -0.7644444 
-0.060389746 -0.75527596 -0.6526188 
0.095971465 -0.66589254 -0.7398491 
0.0892176 -0.8586101 -0.50480574 
-0.33535293 -0.37257233 -0.8652908 
0.014380147 -0.41093436 -0.91155154 
-0.4619423 -0.095485486 -0.881755 
0.5075386 -0.52034336 -0.68676585 
0.48409048 -0.8495968 0.20938456 
0.83861387 -0.2330049 -0.49237752 
0.7878645 0.1416348 0.5993405 
0.38389945 -0.3191928 0.866451 
0.012859606 -0.5956828 0.80311686 
0.32613584 -0.4657583 0.82262063 
-0.5776694 -0.50171167 0.6438816 
-0.85392004 -0.24747245 0.45779675 
-0.8634343 -0.4643518 0.19712578 
-0.7366795 -0.5212643 0.4307979 
-0.4447481 -0.26676792 -0.85500526 
-0.4442855 -0.78052294 -0.4397663 
-0.05064089 -0.46851838 -0.8820012 
0.31783658 -0.7933482 -0.51920974 
0.11771017 -0.6638927 -0.7385058 
-0.13645342 -0.8045531 -0.57799214 
0.51492316 -0.83811885 0.18003044 
0.8190003 -0.51802254 -0.24676147 
0.8697639 -0.29977727 0.39197508 
0.39077476 -0.5551554 0.73423266 
0.4621904 -0.68745524 0.56016546 
-0.8340782 -0.25098997 0.49124086 
-0.8188832 0.50392425 0.27475557 
-0.86396265 0.4935731 -0.09977069 
-0.740407 -0.64516073 0.18858749 
-0.209833 -0.9265192 -0.3123018 
-0.22138694 -0.4936856 -0.84098893 
0.10874221 -0.12683578 -0.98594517 
-0.15972616 -0.26025033 -0.9522381 
-0.5095812 -0.14576872 -0.84798497 
-0.53142667 -0.31394702 -0.7867801 
-0.31735697 -0.7489375 -0.581702 
-0.17871998 -0.9484803 -0.26161897 
0.2438645 -0.9008721 0.35910964 
0.55064017 -0.80655986 -0.21507375 
0.5522585 -0.58550096 0.5934637 
0.025916176 -0.5292702 -0.8480574 
-0.7011777 -0.62712103 0.33921826 
-0.50569904 -0.83345985 0.22274028 
-0.42745298 -0.87366754 -0.23235537 
-0.77591056 -0.3249787 -0.5406954 
-0.5342062 -0.79197526 -0.2956333 
-0.33853903 -0.6496575 -0.6806883 
-0.0107798865 -0.6918647 -0.7219468 
0.5555762 0.14077434 -0.8194619 
0.18273461 -0.54785895 -0.8163693 
0.48004967 -0.85926455 -0.17668298 
0.0092608845 -0.93279016 0.36030096 
-0.58460474 -0.54179525 -0.6039001 
-0.8009392 0.051875 -0.5964944 
-0.84241354 0.44943285 -0.29723647 
-0.66312754 -0.04340649 -0.74724686 
-0.4592526 -0.6699136 -0.5833549 
-0.20980069 -0.97768384 0.010859574 
0.14878495 -0.98539585 0.0828131 
0.5417035 -0.66310775 0.5165709 
0.4580021 0.11071025 0.8820303 
-0.5563191 -0.76497036 0.32454517 
-0.2252824 -0.57761174 0.78460985 
0.22237012 -0.6713322 0.70701104 
-0.26313454 -0.9614879 0.079380974 
-0.008298587 -0.0015907158 -0.9999643 
-0.17267324 -0.42032602 -0.8907919 
-0.1766138 0.25177786 -0.9515333 
0.3288865 0.28125027 -0.90151656 
0.4451411 -0.034191344 -0.89480746 
0.7194739 0.44843778 -0.53034043 
0.604367 -0.6508472 0.45949823 
0.24332929 -0.916586 0.31727156 
-0.2945382 -0.30529657 0.9055613 
-0.21147133 -0.16817538 0.9628069 
-0.30927652 -0.8288584 0.46619958 
0.036516044 -0.95693964 0.28798124 
-0.6142404 -0.7543846 -0.23154418 
0.1037096 -0.87212807 -0.47816005 
-0.13914578 -0.9850201 0.101852156 
-0.0487381 -0.96631765 -0.25269532 
-0.19853167 -0.8578586 0.47398722 
-0.5290994 -0.82329315 0.20552962 
-0.8193861 0.24772583 -0.5169509 
0.059137188 -0.1799303 -0.9819002 
0.2839916 -0.7234078 -0.6293092 
-0.36578986 -0.4243111 -0.8283466 
-0.22014506 -0.7931784 -0.5678066 
-0.4902508 -0.16279496 -0.856243 
-0.4066175 0.17720732 -0.89624757 
-0.6495215 -0.33160278 -0.68422323 
-0.28600338 -0.69589376 -0.6587366 
-0.63354343 -0.50970435 -0.5820862 
-0.09423039 -0.5211248 -0.8482628 
0.05645298 -0.78405505 -0.61811876 
0.063785926 -0.8973333 -0.4367201 
0.20139313 -0.92903703 -0.31037226 
0.5642233 -0.80764663 0.17134461 
0.39572152 -0.90914214 0.12986562 
-0.06466893 -0.92140573 -0.38318312 
-0.08168165 -0.26409078 -0.96103287 
0.07548373 -0.06799451 -0.99482614 
0.49788487 -0.016518744 -0.86708593 
0.49555632 0.53575236 -0.6836617 
0.005537185 0.27614793 -0.96109927 
0.7066126 0.28465632 -0.64781904 
0.4819969 -0.45636743 -0.7479358 
0.46481034 -0.30470285 -0.83132875 
-0.10845283 -0.9863357 0.12401615 
0.5660958 -0.68379515 -0.46039078 
0.4413327 -0.8969147 -0.027738484 
0.52133816 -0.77901155 -0.34834972 
-0.19230632 -0.94128066 -0.27750486 
0.13581237 -0.8432864 -0.52002215 
-0.03965296 -0.61620927 -0.78658366 
0.6171195 -0.47321567 -0.6286737 
0.24783961 -0.4553344 0.85512936 
0.4218947 -0.8271402 0.37127334 
0.6899821 -0.6769098 -0.25635496 
0.7194013 -0.4950735 0.48720014 
0.7985724 -0.13745132 0.58599436 
-0.3372368 -0.32088867 0.8850434 
0.31270042 -0.5888833 0.7452751 
-0.55141854 -0.41787708 0.7220224 
-0.30022132 -0.83140904 0.4675748 
-0.9957816 -0.06568281 0.06407014 
-0.49178538 -0.35186467 -0.79645365 
0.2950932 -0.503335 -0.8121416 
0.4697236 -0.6526737 -0.59445506 
0.40245467 -0.9029155 0.15091018 
-0.10126588 -0.92209566 0.3734769 
-0.43699062 -0.85088354 0.29160997 
-0.6688714 -0.7079523 0.22674806 
-0.44762602 -0.60819924 -0.6555339 
-0.45943648 -0.44802967 -0.76693386 
-0.680592 -0.010459097 -0.732588 
-0.7792817 -0.39487076 -0.48661822 
-0.11354462 0.2045214 -0.9722544 
-0.14173271 -0.5573884 -0.8180648 
-0.45831478 -0.7252487 -0.51377237 
-0.5098904 -0.67736846 -0.5302678 
-0.67442167 0.2134703 -0.706814 
-0.24484071 -0.56376547 -0.7888102 
-0.55293214 -0.75347185 -0.35573345 
-0.13683048 -0.34007293 -0.93039125 
0.29116344 -0.33772257 -0.8950795 
0.3264655 -0.17542233 -0.9287881 
0.13868514 -0.65049547 -0.74674106 
0.7353054 -0.01729069 -0.6775154 
0.09997745 0.6149742 -0.7821837 
0.9378317 -0.173624 -0.30054376 
0.65548575 -0.75298584 0.057885405 
0.7553006 -0.30392504 0.5806467 
0.785301 0.5884281 0.19249596 
0.5187017 0.5519237 0.65293866 
0.0003086791 0.7243731 0.6894081 
-0.27185902 0.55223966 0.7881142 
0.2166399 0.6201524 0.7539749 
0.22264475 0.9704751 0.0927766 
0.4120996 0.8597826 -0.3015758 
-0.52834326 0.7551139 -0.3881449 
-0.8992703 0.4091893 0.15452218 
0.03626629 0.90719247 0.41914994 
0.17976154 0.680993 -0.70988333 
-0.6055243 0.28507525 -0.7430159 
-0.48763707 0.796399 -0.35771325 
-0.34758198 0.4239605 -0.8363279 
-0.81403345 0.44803712 -0.36961108 
-0.42154393 0.44059077 -0.7925785 
-0.14594497 0.099058986 -0.9843209 
-0.4545989 -0.19784223 -0.868446 
0.6235205 -0.22223811 -0.7495548 
0.5672867 -0.22196798 -0.79304224 
0.79280853 0.005895626 -0.6094423 
0.94672304 -0.22233178 -0.23298933 
0.987919 0.043382123 0.14877577 
0.67791766 0.18700068 0.710956 
0.048665848 0.5812132 0.81229484 
-0.34742293 0.6583906 0.66769695 
-0.95679253 0.0858647 0.27780452 
-0.7230268 0.67073387 0.16537343 
-0.8104052 0.5318702 0.24567795 
-0.6533894 0.20988454 -0.72734505 
0.16893533 0.13907409 -0.975766 
-0.50277615 0.58692014 -0.6346187 
0.07721582 -0.5053391 -0.8594592 
-0.6084065 0.04512556 -0.7923417 
-0.6276471 -0.3084603 -0.7147806 
-0.4703942 -0.10050866 -0.876714 
-0.46774754 -0.5992684 -0.64968437 
-0.35079294 -0.7331938 -0.58255583 
-0.12184721 -0.4456353 -0.88688356 
0.2048312 -0.54617465 -0.8122422 
0.10082319 -0.42395395 -0.90005434 
0.47524175 -0.0514603 -0.8783491 
0.7717006 -0.5464181 -0.32543108 
0.7101761 -0.6968128 0.10050756 
0.6691675 -0.35053685 0.6552395 
0.896802 0.006867953 0.4423789 
0.35474727 0.40672153 0.8418623 
0.62816286 0.36144426 0.68903524 
-0.19651906 0.61537445 0.76334447 
-0.84882647 -0.31100857 0.4275131 
-0.7724829 -0.2327744 0.5908353 
-0.5345055 0.33879736 -0.77428687 
-0.3319051 0.028995791 -0.94286704 
-0.34475306 -0.29376033 -0.89154375 
-0.091385365 -0.7526742 -0.65202016 
0.37482414 -0.62686175 -0.6830456 
0.1826251 -0.9306443 -0.31709522 
-0.3014869 -0.65363586 -0.6941656 
-0.268088 -0.8735096 -0.40633723 
0.99720323 -0.05558002 -0.04996739 
0.863563 -0.23775195 -0.4446719 
0.94055533 0.27141088 0.2041858 
0.9838304 -0.114227355 0.13794905 
0.4370595 -0.69947153 0.5654368 
0.12464877 -0.41444758 0.90149647 
-0.3337119 0.08041579 0.93923885 
-0.35256055 -0.1540242 0.9230263 
-0.7546876 -0.26988116 0.5980058 
-0.6666691 0.5475572 0.5057011 
-0.60339415 -0.20719008 0.770057 
-0.47423637 0.28558227 0.8327921 
-0.9744037 0.17469256 0.14149198 
-0.9709564 -0.07004202 -0.2287748 
-0.86381805 0.48306212 -0.14307101 
-0.6436601 -0.26352414 -0.71851003 
-0.6541766 0.03722281 -0.7554254 
-0.78078765 -0.03185595 -0.6239838 
-0.9998751 -0.015283025 -0.0040194765 
-0.61171293 -0.3466976 -0.71106124 
-0.08418923 -0.7966052 -0.5986087 
0.38029993 -0.8282101 -0.4116307 
0.48790476 -0.47593167 0.73173636 
-0.44493473 -0.28123054 0.8502603 
0.73624206 -0.67414457 -0.058964577 
0.09142874 -0.9563491 -0.27755597 
-0.03495388 -0.47325248 -0.8802332 
-0.4682284 -0.5400067 -0.69939613 
-0.5508361 0.71352786 -0.43296376 
-0.7884959 -0.06054845 -0.6120523 
-0.14905307 0.8475261 -0.5093946 
0.3117123 0.613784 -0.7253307 
0.81447816 0.5796416 0.025320485 
0.47121003 0.27909905 -0.83669883 
0.69199586 -0.04262749 -0.7206419 
0.6988918 -0.034031592 -0.7144173 
-0.29919487 0.8896102 -0.34507436 
0.57385755 0.42155454 -0.7021249 
0.48906946 -0.20149091 -0.8486534 
0.5943841 -0.4171652 -0.6875178 
0.26004043 -0.066226386 -0.96332395 
-0.04569677 -0.44652405 -0.89360404 
0.075410716 -0.1908933 -0.9787098 
-0.21546645 -0.373454 -0.9022784 
0.041919343 -0.8392964 -0.5420558 
0.36871445 -0.4986158 -0.78449464 
0.6207 -0.18487303 -0.7619406 
0.49148116 -0.53540254 -0.68687 
0.6009848 -0.41480342 -0.68319505 
0.6349407 -0.40098423 -0.66034997 
0.4879637 -0.86983836 -0.072614215 
0.5380337 -0.7813286 0.31629965 
0.019880328 -0.99166095 0.12733148 
0.47843796 -0.7921128 -0.379018 
-0.46683028 -0.600229 0.64945716 
-0.5098572 -0.85965186 -0.032318067 
-0.35928768 -0.9131049 -0.19274814 
-0.73165554 -0.66392803 -0.15453087 
-0.35334504 -0.766172 -0.53677547 
-0.59921813 -0.50050074 -0.6248493 
-0.347721 -0.1123917 -0.9308374 
-0.045484394 -0.31482318 -0.94805986 
0.09495691 -0.23262022 -0.967921 
0.69077104 -0.42194593 -0.58719426 
0.29569623 -0.8900555 0.34693673 
0.5879327 -0.20399769 -0.7827645 
0.1602565 -0.8013277 -0.5763608 
-0.2736765 -0.66894543 0.69109577 
0.0073538856 -0.82628363 0.56320643 
-0.568404 -0.7795942 0.2629636 
-0.80829644 0.3706749 0.45744637 
-0.9789415 -0.10575215 -0.17461453 
-0.539376 0.07758 -0.83848375 
0.1394942 -0.23852463 -0.96106577 
-0.013766354 -0.33803877 -0.9410316 
0.27227765 -0.2180834 -0.9371791 
-0.39179382 -0.42390314 -0.81658053 
0.36291504 0.08187433 -0.9282184 
-0.11975802 -0.0051704 -0.9927896 
-0.17271432 -0.40405524 -0.8982812 
0.1977614 -0.7849272 -0.5871795 
0.24988376 -0.96653336 0.058062993 
0.2504751 -0.9030797 -0.34886867 
-0.31464714 -0.91849357 0.23951373 
-0.9255399 -0.29364315 -0.23906021 
-0.4044567 -0.90444046 -0.13565493 
-0.26178876 -0.7572138 -0.5984095 
-0.2995774 -0.8745606 -0.38130987 
-0.72731304 -0.61093587 -0.31268713 
-0.5904826 -0.19219214 -0.78383195 
0.31803772 -0.61590946 -0.72076875 
0.20039615 0.30606565 -0.93068 
0.4525353 -0.50615364 -0.73418003 
-0.22214624 -0.19236296 -0.9558491 
0.1985795 -0.4855481 -0.85135734 
-0.41390994 -0.6199797 -0.6665611 
-0.76744044 -0.35405812 -0.5344887 
-0.90817887 -0.1829759 -0.37647167 
-0.08895858 0.50397116 -0.8591272 
-0.32392353 -0.27373022 -0.9056188 
0.008527417 -0.68764967 -0.7259926 
0.15110171 -0.8901948 -0.4297924 
0.30704972 -0.9104936 -0.27698702 
0.78431 -0.6175737 0.05882756 
0.59409475 -0.6529754 0.4697603 
-0.30409735 -0.06858775 0.9501687 
-0.6891444 -0.36616325 0.6253036 
-0.8136947 -0.56176656 0.14939624 
-0.542678 -0.79499596 -0.2710757 
-0.27955925 -0.21331441 -0.93613225 
0.032481376 0.18839209 -0.98155665 
-0.06013069 -0.09286384 -0.99386144 
0.28038108 0.49341077 -0.8233665 
0.47033772 0.60396165 -0.64343834 
0.80433416 -0.28490266 -0.5214182 
0.609014 -0.73299366 -0.30302218 
0.5482326 -0.83560634 -0.034687422 
-0.15958287 -0.5959357 0.78701586 
-0.43866304 -0.6061881 0.66340846 
-0.19830091 -0.8557405 0.4778966 
-0.62857646 -0.76777875 -0.124126814 
-0.49657476 -0.44070646 -0.747791 
-0.49308905 -0.7517566 -0.43786442 
-0.11279029 -0.9936115 -0.0038254855 
-0.15217502 -0.94216305 -0.29861626 
-0.34833857 -0.9218702 -0.1697516 
-0.18976352 -0.54108334 -0.8192793 
-0.23535171 -0.2640718 -0.9353479 
0.25300878 -0.40373716 -0.8791945 
0.8386576 0.37324315 -0.39666498 
-0.059895717 -0.9269099 -0.37047336 
-0.82166415 -0.49189132 -0.28794298 
-0.55423856 0.097966194 -0.82657266 
-0.6500003 -0.13364775 -0.7480896 
-0.12971728 -0.36422795 -0.9222318 
0.8598644 -0.25938964 -0.43971616 
0.30061194 -0.6607092 -0.6878197 
0.5703809 -0.3623113 -0.73715407 
0.066062704 -0.77261806 -0.6314247 
-0.32044944 -0.548177 -0.7725375 
0.17678602 -0.37126982 -0.91154015 
0.5069761 -0.79117703 -0.34207344 
-0.26759648 -0.37410107 -0.8879418 
0.38968334 -0.69239205 -0.6072398 
0.32932323 0.33976695 -0.8809681 
0.41079757 -0.1377426 -0.9012616 
-0.048046067 -0.14072433 -0.9888823 
-0.051521514 0.67269033 -0.73812824 
0.025360137 -0.40485847 -0.91402763 
0.91837037 -0.35198462 -0.18083881 
0.4335568 -0.49264494 -0.75453925 
0.24464084 -0.5575762 -0.79325885 
0.37113136 -0.9284318 -0.016616348 
0.15589096 -0.92606705 -0.34365362 
-0.2881069 -0.9278915 -0.2366684 
0.14700052 -0.770844 -0.6198311 
-0.4551226 -0.6866863 -0.56685567 
-0.22571278 -0.17859006 -0.9576844 
0.011636427 0.15289755 -0.9881736 
0.30280018 -0.6840275 -0.6636403 
-0.0047624884 -0.89883834 0.43825445 
0.39595076 -0.90649915 0.14656895 
0.8564407 -0.457219 0.23970866 
0.2972189 -0.6226134 0.7238878 
0.24509081 0.023330739 0.96921945 
-0.7249938 -0.38055298 0.57407624 
-0.7898008 -0.43820223 0.42917758 
-0.789475 -0.54274005 0.28663996 
-0.024562355 -0.99967855 0.006289407 
-0.7639529 -0.36120167 0.53470504 
-0.8966346 -0.43057927 -0.103189684 
-0.6028859 -0.47709224 -0.63946205 
0.18005897 -0.29714808 -0.93770033 
0.4223287 -0.4214536 -0.8025057 
-0.26984093 -0.91669303 -0.2947198 
-0.2847357 -0.773815 -0.5658057 
-0.68459 -0.5429777 -0.48632485 
-0.24765602 -0.7751525 -0.5812101 
-0.5270665 -0.32950205 -0.7833449 
-0.40930998 0.1848249 -0.8934793 
0.08140174 0.09425294 -0.9922148 
0.3188971 0.3820895 -0.8673594 
0.42647725 -0.026005143 -0.90412444 
-0.15671782 0.002220347 -0.9876409 
-0.33431825 -0.1256506 -0.93404675 
0.3230051 -0.17129587 -0.93076605 
0.3947796 0.1628833 -0.9042224 
0.47104132 -0.3148879 -0.8239938 
0.045299556 -0.41600886 -0.9082316 
-0.17364208 -0.09727101 -0.9799933 
-0.13893875 -0.6717285 -0.7276517 
-0.43139017 -0.69015265 -0.5810266 
0.4603204 -0.09424321 -0.8827363 
0.11094597 0.16870154 -0.9794034 
0.96056056 0.12861729 0.24653833 
0.53657824 -0.82604283 -0.17244478 
0.89552397 0.1480863 -0.4196514 
0.97902626 -0.0054238024 0.20366171 
0.90445906 -0.0042383024 0.42653942 
0.36894163 0.80561376 0.46353918 
-0.6174376 0.72954375 0.2941713 
-0.2258361 0.97303283 -0.046958458 
-0.34090722 0.93972456 -0.026457874 
-0.08030169 0.99677 -0.0011147594 
-0.71714914 0.2363624 -0.6556142 
-0.92017 0.39103845 -0.019396743 
0.57057875 0.793169 0.2128913 
0.6829093 0.7061493 -0.18705109 
-0.7163093 0.6468442 -0.26171273 
-0.9272298 0.37170824 -0.0455828 
-0.17576516 0.75979704 -0.6259514 
-0.261588 0.083316766 -0.9615768 
0.431967 -0.20370087 -0.8785844 
0.27983925 -0.14895838 -0.9484205 
-0.74395657 -0.20889507 -0.63473743 
0.09419636 -0.024787067 -0.99524504 
0.50297314 -0.12317545 -0.85547996 
0.5448774 0.38912868 -0.74275666 
0.548184 0.5916525 -0.591136 
0.65607136 0.08308266 -0.7501119 
0.98771936 0.04773618 0.14876752 
0.38282984 0.027032707 0.9234233 
-0.21114026 0.96259815 0.16977817 
-0.9535693 0.25323862 -0.16302079 
-0.10361316 0.7222642 -0.683812 
-0.8501635 0.4602517 -0.25571543 
-0.58965296 0.096340165 -0.8018903 
-0.2868059 0.5324823 -0.7963699 
-0.6400372 0.69191825 -0.33406827 
-0.55386597 0.21746182 -0.80370575 
-0.702132 0.032315083 -0.7113132 
-0.34455684 0.34573776 -0.8727806 
-0.82546395 0.043308623 -0.5627911 
-0.3961375 -0.79383826 -0.4614065 
-0.4025115 -0.81307924 -0.42057922 
-0.2606414 -0.5612287 -0.78554976 
0.22123393 -0.39865914 -0.8900149 
0.03794657 -0.5385722 -0.84172446 
0.06304806 0.05787891 -0.9963308 
0.50761765 -0.7394441 -0.44220686 
0.49936995 -0.835529 -0.2291747 
0.194164 -0.97878593 0.06541007 
0.085935615 -0.5260115 0.84612477 
0.0202875 0.41910204 0.90771246 
0.37061712 0.06805014 0.92628944 
-0.26694715 0.70885724 0.6528864 
-0.7606625 0.4972539 0.41729024 
-0.47490555 0.46426806 0.7476095 
-0.6596975 0.73390806 -0.16179736 
0.11193529 0.42215586 -0.89958596 
0.078419685 0.5171417 -0.8522997 
0.124822676 -0.695788 -0.70731777 
-0.37998015 0.011393645 -0.9249245 
-0.6663656 -0.037509885 -0.74468106 
-0.122979514 -0.7832329 -0.6094442 
0.3263947 -0.8664129 -0.3778825 
0.674655 -0.60398155 0.42431948 
0.60355157 -0.5848168 -0.54195476 
0.92804945 -0.039846648 -0.3703197 
0.8045891 -0.4978726 0.32366535 
0.5801352 -0.62587017 0.52127707 
0.004897953 -0.8540418 0.52018154 
-0.31621245 0.018884877 0.9485005 
-0.4974541 -0.45197487 0.74044454 
-0.5945474 -0.28563565 0.75161546 
-0.6173749 0.4897554 0.61561996 
-0.71522945 0.017466873 0.6986715 
-0.5606987 -0.48994094 0.66751397 
-0.7318695 -0.6687353 -0.1309969 
-0.75338036 -0.45223597 -0.47738937 
-0.6831168 -0.18937933 -0.7053276 
-0.8142822 0.22641525 -0.5344911 
-0.05377501 0.28922126 -0.95575064 
-0.84465694 0.18669088 -0.5016985 
-0.8427149 0.11027528 -0.5269449 
-0.64359057 0.3249333 -0.6929715 
-0.63395077 -0.17853624 -0.7524835 
-0.5397894 -0.36125687 -0.7603426 
-0.010093217 -0.88266546 0.46989343 
0.20095901 -0.94237196 0.2674894 
0.6028177 -0.7777806 0.17795551 
0.36084223 -0.93239045 0.021001142 
0.0019688653 -0.8646391 -0.50238985 
-0.4139094 -0.7784842 -0.47184902 
-0.9476114 -0.29791176 0.11524408 
-0.8896876 -0.1400968 -0.4345446 
0.13306424 0.3092965 -0.9416101 
-0.13327086 0.6094736 -0.7815247 
-0.2842425 0.00816648 -0.95871764 
1.3233787e-05 0.26882952 -0.9631878 
0.23536032 -0.032948524 -0.9713496 
0.65530217 0.3968147 -0.6427419 
0.16535161 0.9137681 -0.37106183 
0.502482 0.85082036 -0.15367697 
0.78019994 0.09057927 -0.6189373 
0.6810817 0.24501914 -0.68999517 
0.29949054 0.69196373 -0.65688026 
0.3592273 0.54119956 -0.7603018 
-0.11041592 0.6280094 -0.7703328 
-0.0749512 -0.41040522 -0.9088179 
0.14815748 -0.47208285 -0.86901504 
-0.4176941 -0.5163789 -0.74758583 
-0.09298781 -0.29865238 -0.94982105 
0.3638536 -0.21314703 -0.9067408 
0.5123486 -0.091338165 -0.85390645 
0.11953885 -0.0037695519 -0.99282235 
0.9317067 -0.23790824 0.27444908 
0.35920024 -0.9268724 0.10900858 
-0.38885924 -0.71041113 0.58660424 
0.109248884 -0.98518366 -0.1322038 
-0.57673866 -0.5270426 0.6241783 
-0.21101902 -0.85050964 -0.4817722 
-0.72006184 -0.53160244 -0.44599307 
-0.43167356 -0.7389427 -0.51732165 
-0.5719834 -0.410261 -0.71029633 
-0.6848969 0.6415827 -0.34538072 
-0.4934438 0.7310627 -0.4712331 
-0.03492724 0.11827143 -0.9923669 
0.28931952 0.004794565 -0.9572206 
0.8481958 -0.20744072 -0.48737282 
0.37026525 -0.81230223 -0.45063168 
0.18345834 -0.7399935 -0.6471111 
0.030648189 -0.14672716 -0.9887022 
0.11089106 -0.9892932 0.09488009 
-0.04062101 -0.98727477 -0.15374805 
-0.5114928 -0.7879134 -0.3428814 
-0.3507423 -0.62315565 0.69904 
-0.4040625 -0.0640001 0.9124898 
-0.6699648 -0.7219636 -0.17296162 
-0.4264184 -0.1940598 -0.8834638 
-0.51162404 -0.53602844 -0.6715016 
-0.49479857 0.02870679 -0.8685335 
0.03745161 -0.025521066 -0.9989726 
0.14487019 -0.25085202 -0.95712376 
-0.13871115 -0.8612359 -0.4889088 
-0.028635314 -0.49089026 -0.87075067 
-0.002848264 -0.8454498 -0.53404737 
0.6615848 -0.7441431 0.09250202 
-0.114059694 -0.43018225 0.8955075 
-0.7187283 -0.63468194 0.2839165 
-0.643519 -0.552804 -0.5294252 
-0.20059864 -0.3987283 -0.8948609 
-0.4329312 -0.75191975 -0.4971794 
-0.25166228 -0.18956333 -0.949069 
-0.5496291 -0.6695116 -0.49966198 
-0.70147973 -0.090589084 -0.70690864 
-0.12772654 -0.39970508 -0.90770143 
0.07868685 -0.10754086 -0.9910819 
0.5544205 -0.23352985 -0.79880023 
-0.21303733 0.20591111 -0.95509994 
-0.14589046 -0.5629125 -0.8135389 
-0.6723021 -0.22391403 -0.7056008 
-0.52255464 0.22572976 -0.8221817 
-0.75967777 0.27152556 -0.5909006 
-0.274476 0.34378707 -0.8980386 
0.29433003 0.031886734 -0.95517176 
0.378992 -0.45153534 -0.8077629 
-0.112781696 -0.3536336 -0.92855996 
0.9160474 -0.21463701 0.33880413 
-0.02224797 -0.99784887 0.061666034 
-0.04519151 -0.8576773 0.5121985 
-0.29902965 -0.48351014 0.8226782 
-0.71127933 -0.5939648 0.37588245 
-0.66999686 -0.6768039 0.30502596 
-0.35939842 -0.91806966 0.16727518 
-0.8526032 -0.1994142 -0.48301345 
-0.7079726 0.30871376 -0.6351934 
-0.07725169 0.8315534 -0.55004656 
-0.017137567 0.096914925 -0.9951452 
0.008591984 0.8367184 -0.54756606 
0.5990573 0.6610978 -0.45175222 
0.42148438 -0.8325037 -0.35956725 
-0.1607267 -0.89568365 -0.4146296 
0.2132173 -0.9367567 -0.2775346 
-0.75638676 -0.5566594 0.34352505 
-0.15279794 -0.7328195 0.66304487 
-0.08553735 -0.8487399 -0.5218467 
-0.64004123 -0.72661394 -0.24975872 
-0.589804 -0.75041974 -0.29833123 
0.12168688 -0.7100931 -0.6935129 
0.5101599 -0.74509704 -0.42961296 
0.12005298 -0.9740014 0.19211599 
-0.25327352 -0.90364116 -0.34537694 
0.016491503 -0.9140383 -0.40529266 
0.154306 -0.9860617 0.062226146 
0.42751634 -0.84254843 0.32763103 
-0.6878199 -0.4882931 -0.5370975 
-0.5468682 -0.25478846 0.79750746 
-0.8597287 -0.24803895 0.44647864 
-0.32896975 0.4425656 -0.834215 
-0.2225256 0.1888432 -0.9564626 
0.3069342 -0.4954103 -0.8126254 
0.41663575 0.14312093 -0.89773667 
0.38903272 0.6350514 -0.6673554 
-0.08923221 0.49513802 -0.86421996 
-0.20134279 -0.109253906 -0.9734088 
0.23390454 0.33417258 -0.9130266 
0.77864695 -0.12454684 -0.6149773 
-0.16654497 -0.36096746 -0.9175867 
0.127414 -0.30776244 -0.94289345 
0.7320272 0.049243413 -0.6794935 
0.7365288 0.15479967 -0.6584546 
-0.26491243 -0.374716 -0.88848716 
0.0045912843 0.015314534 -0.9998722 
0.2955646 0.097395204 -0.9503451 
0.3209688 -0.20983005 -0.92355317 
0.8001412 -0.21946387 -0.5582201 
0.16497055 -0.06483919 -0.98416495 
0.33515626 -0.36144727 -0.8700726 
-0.37545165 0.27232677 -0.88593125 
0.3083366 0.29397044 -0.9047155 
-0.45745838 -0.31916177 -0.82998055 
-0.18217516 -0.2827055 -0.9417484 
-0.14026695 -0.41296303 -0.8998816 
-0.54639 -0.39549905 -0.73826724 
0.42114806 -0.8020474 -0.42350262 
0.42525828 -0.8737038 -0.23621443 
0.49635524 -0.5961811 -0.6310306 
0.754965 -0.59088993 -0.28438893 
0.6306058 -0.09416689 0.77036935 
0.3813269 0.13915071 0.9139076 
-0.7551815 -0.46261862 0.4644192 
-0.77881813 -0.1306881 0.61348426 
-0.8858357 -0.36041114 -0.29223102 
0.16144796 -0.9691099 0.18644185 
-0.37487572 -0.92365324 -0.07958023 
-0.59634465 -0.6994137 -0.39394614 
-0.0028118412 -0.81612974 -0.577862 
0.13412651 -0.57770795 -0.8051482 
-0.11200375 -0.7494475 -0.652521 
-0.086585104 -0.76236516 -0.64132863 
-0.37638363 -0.3544681 -0.8559718 
-0.28764945 -0.6112212 -0.7373374 
-0.34502897 -0.009793557 -0.938541 
0.7523697 0.041683383 -0.65742093 
0.42021453 0.44290894 -0.7919922 
0.667996 0.43946788 -0.600541 
0.6099485 -0.4992099 -0.6154286 
0.29773897 0.21798728 -0.92942625 
0.026270319 -0.28279325 -0.95882106 
-0.16244107 0.40258482 -0.90085435 
0.2923628 0.6379673 -0.7124056 
0.43312842 -0.06667024 -0.89886314 
0.6391905 0.4414321 -0.62974066 
0.33237073 -0.5604834 -0.7585434 
0.30772573 0.40843987 -0.8593496 
0.5801087 -0.41350055 -0.7017772 
0.49191085 0.24210832 -0.8363058 
0.7653351 0.03063399 -0.6429026 
0.5547541 0.22054185 -0.80225265 
0.9840382 -0.1776222 0.010923796 
0.94024384 -0.16455556 -0.2980992 
0.9320676 -0.1261725 -0.33960366 
0.9274938 -0.37073103 -0.048102543 
0.67749745 0.05360396 0.73356926 
0.25762913 -0.013653912 0.9661475 
-0.04369797 0.60903364 0.7919397 
-0.8769853 0.42483076 0.2245344 
-0.48005524 0.8522163 -0.20802547 
-0.7030197 0.6883852 0.17857549 
-0.13387172 0.67158 -0.7287378 
-0.43816158 0.80160975 0.4067388 
-0.2620905 0.9493577 0.17328796 
0.20841576 0.67797077 -0.7049246 
0.05443352 0.8663636 -0.4964385 
-0.40863353 0.6803228 -0.6084238 