# OOMMF: rectangular mesh v1.0
# Segment count: 1
# Begin: Segment
# Begin: Header
# Desc: Time (s) :  5.050000000000007e-07
# Title: m
# meshtype: rectangular
# meshunit: m
# xbase: 2e-09
# ybase: 2e-09
# zbase: 5e-10
# xstepsize: 4e-09
# ystepsize: 4e-09
# zstepsize: 1e-09
# xmin: 0
# ymin: 0
# zmin: 0
# xmax: 1.024e-06
# ymax: 1.024e-06
# zmax: 1e-09
# xnodes: 256
# ynodes: 256
# znodes: 1
# ValueRangeMinMag: 1e-08
# ValueRangeMaxMag: 1
# valueunit: 
# valuemultiplier: 1
# End: Header
# Begin: Data Text
-0.66090435 -0.4217986 -0.6207185 
-0.1384462 0.70618486 -0.69435984 
-0.57392746 0.6599307 -0.4848699 
-0.55253536 0.14328626 -0.82108086 
-0.024092698 -0.21583839 -0.9761319 
0.170977 -0.13448985 -0.976053 
0.52628016 -0.27279997 -0.8053628 
0.8066751 -0.50523686 -0.30661258 
0.56755763 -0.022555795 -0.82302463 
0.68953896 -0.597335 -0.40954491 
0.6462687 -0.76174116 -0.045685504 
0.8223844 -0.47802544 0.30850548 
0.8158464 -0.22189237 0.5340024 
-0.07480481 -0.98512155 -0.15472515 
-0.3927247 -0.8745566 -0.28446105 
0.81534976 -0.5460652 0.19239996 
0.43416527 -0.79398245 0.42554948 
0.7185808 -0.16346036 0.6759604 
0.13072444 -0.7164331 0.6852991 
-0.27542475 -0.71711844 0.6402206 
-0.079136714 -0.35939485 0.9298241 
-0.77487504 -0.18606801 0.60410887 
-0.3559932 0.46532902 0.8103935 
-0.6113172 0.53892875 0.57952327 
-0.50578207 -0.8582569 0.087061115 
-0.4971263 -0.8675606 -0.014287182 
-0.38688383 -0.76027167 -0.52183145 
0.28205922 -0.26049432 -0.9233555 
-0.22784957 -0.6072635 -0.7611279 
-0.13306636 -0.54017097 -0.8309686 
-0.099006556 -0.12396383 -0.9873352 
-0.66093624 -0.21888384 -0.7178114 
-0.16514969 -0.7834145 -0.5991556 
-0.03190589 -0.9986662 -0.040595017 
-0.74277854 -0.6583944 -0.12164287 
-0.25087368 -0.9644926 -0.08256111 
0.2545142 -0.86377 -0.43488392 
0.32903236 -0.9371704 -0.11597127 
0.14776203 -0.9451361 0.29134896 
0.71010137 -0.5759445 0.40502363 
0.5445412 -0.34666047 0.7637418 
0.4737287 -0.76711076 0.43257612 
-0.42950764 -0.74041325 0.5170217 
-0.45623046 -0.6466698 -0.6112872 
-0.93335325 -0.3241638 0.15417375 
-0.75632834 -0.65340364 0.032109845 
-0.18822807 -0.87260205 -0.45070592 
0.102143735 -0.9095803 -0.4027782 
0.38779187 -0.90056914 -0.19645014 
-0.23276131 -0.94964427 -0.20975694 
0.53149104 -0.5501231 -0.64411324 
0.5331177 -0.8438041 0.061483484 
-0.2424665 -0.40274307 -0.8826143 
0.43736932 -0.12274999 -0.8908651 
0.7771155 -0.4255283 -0.46369943 
0.5734696 -0.6330056 0.52003515 
0.4449713 -0.8806488 0.16265991 
-0.13647783 -0.590437 0.7954609 
-0.5219637 -0.8078719 0.27367306 
-0.53971 -0.28118688 0.7935031 
-0.92169917 0.028140085 0.3868837 
-0.87492627 -0.26797032 -0.4033561 
-0.45821968 -0.18914409 -0.86848104 
-0.36511514 0.14157714 -0.9201341 
-0.42659917 -0.5405491 -0.72513443 
-0.05830208 -0.070474096 -0.9958084 
-0.11087901 -0.12514205 -0.98592365 
0.011371604 -0.49426734 -0.8692356 
-0.3991937 -0.15925695 -0.90292954 
-0.002150663 -0.66165495 -0.7498054 
0.4789831 -0.5940222 -0.64630705 
0.5234692 0.043472316 -0.85093486 
0.35088122 0.5734487 -0.7402966 
0.3221627 0.505706 -0.80029535 
0.7898175 0.61324006 0.011180977 
-0.08897863 0.9181683 0.3860697 
-0.08778186 0.90122956 0.42435795 
-0.18314648 0.7716806 0.6090702 
-0.7479924 0.55250573 0.3677566 
-0.99357855 -0.08582656 0.07372548 
-0.9990875 -7.62423e-05 -0.042710748 
-0.91120505 -0.08311772 -0.40348104 
-0.9761466 0.2168702 0.010256695 
-0.6459349 0.51085234 0.56727254 
0.08863692 0.5858336 -0.80556965 
-0.29506823 -0.44569975 -0.84515476 
0.32542053 -0.2883941 -0.9005168 
0.59550923 -0.7722854 -0.22123295 
0.12105399 -0.6226919 -0.7730465 
0.5208604 -0.6600014 -0.5413896 
0.20913464 -0.62760264 -0.74991846 
0.19457617 -0.75641614 -0.62447953 
-0.13717867 -0.973191 -0.18461147 
0.0025617704 -0.6445414 -0.76456517 
-0.35319847 -0.66587317 -0.6571635 
-0.49119717 -0.59868824 -0.63269085 
-0.5952696 -0.64672875 -0.47686067 
-0.23830763 -0.46104142 -0.85478085 
0.048701387 -0.6944965 -0.717846 
0.07953356 -0.5587627 -0.82550514 
0.43837452 -0.38823834 -0.81061625 
0.20516342 -0.14822523 -0.9674386 
0.9526784 -0.00059211056 -0.30397967 
0.9280962 -0.15177613 0.34000236 
0.315918 -0.90383977 0.28856444 
0.03754464 -0.999069 0.021250727 
-0.21519803 -0.88816893 -0.40601206 
-0.8649457 -0.15530774 -0.47722995 
-0.69272107 -0.6983524 0.18011546 
-0.043976426 -0.99724966 -0.059658553 
-0.29739967 -0.57845116 -0.75957084 
-0.1895359 -0.82165504 -0.53754944 
-0.14345025 0.25910443 -0.9551372 
-0.13373935 0.3753495 -0.9171841 
0.09420144 -0.29311898 -0.9514239 
0.41337755 -0.6043407 -0.6810957 
0.8549822 -0.15619743 -0.49457857 
0.63904357 -0.76464593 -0.08330572 
0.82025 -0.55807567 0.12546562 
0.7635422 -0.27663025 0.583506 
0.7138444 -0.61056244 0.34298638 
0.16516961 -0.96735114 -0.19222586 
0.463476 -0.6491057 0.60320127 
0.39200586 0.120072655 0.9120932 
0.33476922 0.2583659 0.9061881 
0.025658963 0.27516374 0.9610549 
0.1476543 -0.6495474 0.74584615 
-0.38928476 -0.25951892 0.88380283 
-0.499861 0.02452851 0.86575836 
-0.5648007 -0.41388988 0.71392953 
-0.49142697 -0.61580247 -0.6158628 
-0.42103478 -0.52964586 -0.7363457 
0.29786044 -0.6125235 -0.7321846 
0.37156382 -0.33236426 -0.8668763 
0.4587174 -0.77465165 -0.43530795 
0.89183754 -0.14272797 -0.42924878 
0.2125895 -0.8633348 -0.4576667 
-0.20323966 -0.8211615 -0.53327996 
-0.1582984 -0.9705031 0.18183921 
-0.42041677 -0.8609686 0.28632686 
-0.13824645 -0.5984723 -0.7891254 
0.066178516 -0.8598121 -0.50630397 
0.14163014 -0.8064397 0.5741044 
0.7105108 -0.7034024 0.019990018 
0.3732995 -0.8835342 0.28286907 
-0.19408599 -0.9143605 0.3553528 
-0.375395 -0.922595 -0.088865794 
-0.60418224 -0.5254385 -0.59906447 
-0.18723328 -0.8988192 -0.3963178 
0.3457913 -0.39964262 -0.84894896 
-0.7426331 0.0038939875 -0.6696872 
-0.89315385 -0.056944747 -0.44613177 
-0.8570794 -0.5114812 -0.061660774 
-0.8220525 -0.27997303 -0.4958274 
-0.1916195 -0.9801098 0.051642515 
0.47546005 -0.70625293 -0.5245423 
0.38666892 -0.8989055 0.20604865 
0.06434037 -0.89677787 -0.43777823 
-0.054073628 -0.9871991 -0.15004705 
0.49300593 -0.85524094 -0.15971278 
0.60116607 -0.799123 -0.0013985372 
0.57204485 -0.7494798 0.333234 
-0.014622017 -0.1621804 0.98665285 
-0.4893924 -0.74117386 0.4595175 
-0.9316944 -0.35557932 0.07422279 
-0.90362626 -0.40344822 -0.14383745 
-0.9555084 -0.26779115 0.12365938 
-0.9513214 -0.15460432 -0.26661816 
-0.55685306 0.14705807 0.8174893 
-0.59444904 -0.49021128 -0.63743496 
-0.16292575 -0.783532 -0.59961057 
0.48603833 -0.8703633 -0.0789594 
0.44595435 0.093865454 0.8901202 
-0.5738538 -0.6723131 0.46763983 
0.34900007 -0.8250445 0.4444104 
0.40100938 -0.9000988 -0.1703342 
0.5449402 -0.83344144 0.09173739 
-0.09732997 -0.8308188 -0.5479662 
0.5118824 -0.7798063 -0.36038667 
-0.094394885 -0.7307059 0.67613506 
-0.211729 -0.9265688 0.31087175 
-0.05268386 -0.69644415 0.7156745 
-0.37665558 -0.24033314 0.89463437 
0.14465299 -0.76995134 0.6214905 
0.43508697 -0.44979912 0.7799872 
0.23889722 -0.6755017 0.6975855 
0.8981725 0.11851167 0.42336902 
0.8791581 0.22887477 -0.4179682 
0.39952597 -0.36127692 -0.8425308 
0.9208057 -0.28812274 -0.26287305 
0.9937638 0.097288325 0.0544846 
0.76440024 0.5069724 -0.39833578 
0.45186052 -0.15260543 0.8789389 
0.7451179 -0.6571201 0.11398505 
-0.145871 -0.57676345 0.8037821 
-0.4283625 0.05854226 0.90170854 
-0.7834347 -0.2229195 0.5801182 
-0.6466508 -0.6207523 0.44329387 
-0.7533227 -0.23992819 -0.612323 
-0.42651096 -0.18470503 -0.8854223 
0.29320636 -0.834231 -0.46699968 
0.12585194 -0.38658747 -0.9136254 
0.3201692 0.093475096 -0.9427376 
0.31093764 -0.6885262 -0.65517133 
0.23741683 -0.95547867 -0.17519686 
0.62656796 -0.27147412 -0.7305576 
0.9900157 0.09500392 -0.10413093 
0.74734116 -0.55018395 0.3725304 
0.6512007 0.72884095 0.21149139 
0.12005031 0.45219025 0.8838054 
-0.5386138 0.2852572 0.7927948 
-0.9855577 -0.10828459 0.13019468 
-0.5043507 0.6942989 0.5133998 
-0.48843396 0.848976 -0.20167339 
-0.20766431 0.82736665 0.5218622 
-0.0034941982 -0.4880186 -0.87282634 
-0.35311368 -0.011527286 0.93550944 
-0.571492 -0.7447358 0.34462377 
0.15919681 -0.911069 -0.38027576 
0.54469466 -0.5692773 -0.61581755 
0.24131988 -0.7723501 -0.58757144 
0.7074279 -0.7064685 0.021168873 
-0.14919631 -0.90258956 -0.4038226 
-0.0792425 -0.7648903 -0.63926804 
-0.42563596 -0.05305255 -0.903338 
-0.32840928 -0.07785706 -0.94132125 
0.042219635 -0.22986712 -0.9723059 
0.038460966 0.35105097 -0.9355661 
0.19481376 -0.40325534 -0.8941101 
0.15244952 -0.63499165 -0.75732744 
0.18144146 -0.80764526 -0.56105995 
-0.480816 0.15008312 -0.86388135 
-0.23355322 -0.17787431 -0.955936 
0.18539284 0.43114364 -0.8830315 
0.37005678 0.12492993 -0.9205708 
0.84768146 0.44401878 -0.29031613 
0.7222866 -0.020335782 -0.6912949 
0.73203355 -0.6451155 -0.21898177 
0.14805606 -0.6503005 -0.74511 
-0.23616706 -0.90033734 -0.36553764 
-0.31753936 -0.38484704 -0.866638 
-0.018763231 -0.78488594 -0.61935604 
0.5922576 -0.68787706 -0.4195904 
-0.3147231 -0.76700366 -0.5591555 
0.043026928 0.1410622 -0.9890653 
0.6281217 -0.08814958 -0.7731059 
0.0133079635 -0.13259062 -0.99108154 
-0.1698963 -0.9603882 -0.22088414 
-0.55919933 -0.3613165 -0.74615455 
-0.19274595 -0.38809392 -0.9012393 
0.14104745 0.052869588 -0.9885902 
0.6224383 -0.57990265 -0.5256269 
0.8639215 0.03386606 0.5024865 
0.9402728 0.03958367 -0.3381129 
0.48097858 0.27182093 -0.8335304 
-0.064125344 0.12629929 -0.9899174 
-0.61370087 0.010144488 -0.7894734 
-0.54133767 0.3126127 -0.7805299 
-0.2485963 0.4381163 -0.8638601 
0.0853412 0.6109745 -0.787037 
0.36633477 0.51853055 -0.7726092 
0.10380322 0.27091628 -0.9569897 
0.35750213 -0.5814504 -0.7308267 
0.48524326 -0.8613801 -0.15021104 
0.94608045 -0.2805276 -0.16197574 
0.34713742 -0.60354996 -0.7177905 
0.15641348 -0.5618687 -0.8123043 
0.7213001 -0.6508848 0.2368018 
-0.06138547 -0.76051223 0.6464154 
-0.08374775 -0.6765654 0.7316049 
-0.738698 -0.6492657 -0.1810509 
-0.15077922 -0.9531843 0.26211712 
-0.27120346 -0.52846634 0.8044701 
0.38355812 -0.74305934 0.54840314 
0.77214754 -0.111391135 0.6256039 
-0.28759223 -0.3414883 0.8948053 
-0.6016782 -0.40366408 0.6892305 
-0.96747434 -0.17754783 0.180195 
-0.3966222 -0.09592739 0.9129561 
-0.3350155 -0.43371347 0.8364552 
-0.19398804 -0.38462982 0.90245694 
-0.30306214 -0.95174074 -0.048403084 
-0.65010214 -0.3892315 -0.65258414 
-0.6851822 -0.5805667 -0.43984962 
-0.36207613 -0.566525 -0.74023664 
0.3689508 -0.9293105 -0.0160436 
0.070093244 -0.81618184 -0.5735277 
-0.00944099 -0.72762597 -0.68590915 
0.49992839 -0.5399726 -0.6771271 
0.1019675 -0.4409969 -0.8916975 
-0.7366798 -0.41365004 -0.5349735 
-0.78303987 -0.30961382 -0.5394329 
-0.33532658 -0.632484 -0.69822645 
0.20877077 -0.94446343 -0.25377896 
0.3242501 -0.856558 -0.40146014 
0.21498565 -0.96836746 0.12667172 
-0.1677075 -0.9090472 -0.3814546 
0.37550423 -0.9264055 0.027741104 
-0.4440515 -0.8135026 0.3755422 
-0.3003369 -0.9498112 0.08750193 
-0.38218427 -0.905471 0.18454671 
0.21319228 -0.9708614 0.1094413 
0.7575818 -0.4487754 -0.4739944 
-0.15439208 -0.9237968 -0.35037526 
0.5461823 -0.6921079 -0.47188097 
-0.033408407 -0.868676 -0.4942529 
0.013365647 -0.9969413 0.07700228 
0.8126134 -0.54484665 -0.20688547 
0.109255016 -0.39599147 -0.9117314 
0.68361646 -0.21234578 -0.69826776 
0.7695704 -0.36352274 0.5249882 
0.5984586 -0.6693587 0.44023442 
-0.42099625 -0.8452085 0.3292184 
-0.5321985 -0.7131016 0.45634517 
-0.4364361 -0.6356799 -0.63673747 
-0.7728561 -0.5257482 0.35536215 
-0.27015916 -0.9493489 0.16047063 
-0.51032555 -0.5235154 -0.68227524 
0.27022496 0.04562466 -0.9617156 
0.11498131 0.12264045 -0.98576814 
-0.17548761 -0.3892692 -0.9042531 
0.26501173 -0.05539956 -0.9626524 
0.019289881 -0.527748 -0.84918195 
-0.103888966 -0.4160768 -0.9033755 
-0.16253705 0.3526674 -0.9215245 
-0.5574236 0.48977333 -0.67037386 
0.3267958 0.18965077 -0.925871 
0.2596775 0.23479402 -0.93671733 
0.17003897 0.81129974 -0.5593564 
0.7618974 0.5000379 -0.41167292 
0.31637323 0.9419656 0.112289324 
0.2533767 0.9414739 0.22232212 
-0.049248345 0.17964731 0.9824976 
-0.38203567 0.27624357 0.8818947 
-0.61005276 0.7860826 0.09954788 
-0.77334696 0.2000235 -0.6016022 
-0.8651174 0.2847686 -0.4128909 
-0.8578962 0.47028238 0.20699924 
-0.7624733 0.43216363 0.48152798 
-0.92809874 0.076779366 -0.36433205 
0.01934077 0.809561 -0.5867172 
-0.073582254 0.022623496 -0.9970325 
-0.25166625 0.12663694 -0.9594933 
0.27041474 -0.116260745 -0.9556983 
0.4821214 -0.3513989 -0.8025446 
0.73181254 -0.30468777 -0.609603 
0.20762433 -0.6536291 -0.72777826 
0.102652974 -0.6850353 -0.7212413 
-0.45975772 -0.2145532 -0.8617365 
0.006181282 0.28467855 -0.95860314 
-0.14166726 0.16852297 -0.9754642 
-0.28831196 -0.060177185 -0.9556438 
-0.2654083 -0.09552589 -0.95939213 
-0.37286583 -0.017530689 -0.9277197 
-0.041539032 -0.09907927 -0.9942122 
0.55687815 -0.41352385 -0.7203366 
-0.33129317 0.079324394 -0.9401875 
0.22305284 0.4564004 -0.86136293 
0.93937635 0.20444028 -0.27527472 
0.73952305 -0.6711015 -0.052234303 
0.31026056 -0.9501243 -0.03165652 
-0.03303736 -0.9564411 -0.29005006 
0.45556676 -0.46595955 -0.7585122 
0.09081222 -0.025613725 -0.9955386 
-0.2477234 -0.3430862 -0.9060491 
-0.5466231 -0.40176514 -0.7347027 
-0.32328054 -0.25036657 -0.9125823 
-0.041870754 -0.6955889 -0.71721894 
-0.018171107 -0.67251754 -0.73985815 
-0.23595639 -0.075995624 -0.9687876 
-0.19611582 -0.77337104 -0.6028565 
0.009660693 -0.37207174 -0.92815375 
0.58485365 -0.13039233 -0.80058986 
0.6536954 -0.6231506 -0.4293783 
0.9013089 -0.28917837 -0.32251862 
0.3728682 -0.6800578 0.63126117 
0.35698026 -0.7868833 0.50336844 
-0.44905773 -0.5688496 0.68902636 
0.5634339 -0.8067187 -0.17817801 
0.60956407 -0.2128121 0.7636379 
0.18248987 -0.021430895 0.98297423 
-0.45926228 -0.3387043 0.82119286 
-0.48405913 -0.86605906 0.12501368 
-0.46766418 -0.87006253 0.155825 
-0.6156422 -0.5176205 0.5941832 
-0.80778587 -0.24937657 0.53412867 
-0.7000063 -0.39915243 -0.5921728 
-0.3673696 -0.7350486 -0.5698625 
-0.47500685 -0.69865406 -0.53502434 
-0.745654 0.6316608 -0.21214339 
-0.025476975 -0.1603843 -0.98672587 
0.21326706 -0.13621235 -0.967452 
0.14990938 -0.81894714 -0.5539431 
0.23701772 -0.8779258 -0.41601554 
0.51563424 -0.7873492 -0.33793858 
0.061620843 -0.81356233 -0.57820356 
-0.20481394 -0.39885926 -0.89384717 
-0.11239634 -0.859286 -0.49899364 
0.18920103 -0.74353117 -0.641377 
-0.20499116 -0.8649307 -0.4581195 
0.5043067 -0.79398906 0.33949405 
-0.0010492974 -0.9898287 -0.14226095 
0.15583314 -0.8404916 -0.5189316 
0.051769517 -0.6441544 -0.7631415 
-0.48081428 -0.8309498 -0.27989316 
-0.09148058 -0.5520011 -0.82881004 
-0.85346866 -0.12077252 -0.50695693 
-0.37463388 -0.3773822 -0.84689564 
-0.50892735 -0.8184687 -0.2666496 
-0.43188646 -0.52877885 -0.7306621 
0.17379126 -0.6167767 -0.767713 
0.58657604 -0.40708587 -0.7001497 
0.24761905 -0.8149913 -0.5239027 
0.10409728 -0.9143858 -0.3912321 
-0.43461853 -0.89966136 0.04142588 
-0.04454938 -0.8706071 -0.489958 
0.63049716 -0.74527574 -0.21688133 
0.3175093 -0.7027976 0.6366031 
0.4787667 -0.5407203 0.69166756 
-0.19714113 -0.85591435 0.47806504 
-0.9931804 0.0016282684 0.11657607 
-0.4184149 -0.63894576 0.6455055 
-0.6426601 -0.56386834 0.5186912 
-0.9415213 -0.30135214 -0.15074696 
-0.6649994 -0.30854598 0.6801289 
-0.48057175 -0.6573027 -0.5805205 
-0.3506144 -0.7465933 -0.565392 
0.7198085 -0.6471421 0.25116318 
0.15558566 -0.44854906 0.8801119 
0.020693036 -0.93803775 0.34591475 
-0.3448093 -0.93362796 -0.0971877 
0.1771775 -0.42362776 -0.8883399 
0.09287447 -0.71025395 -0.69779205 
-0.07954687 -0.30712408 -0.9483392 
0.09974877 -0.5530031 -0.82718676 
-0.6384245 -0.6344079 0.43582213 
0.15450558 -0.8424741 -0.51610607 
-0.30266115 -0.86286056 0.4048063 
0.18761809 -0.94537294 0.26658884 
0.13977116 -0.9901785 0.0032630584 
-0.037023198 -0.9843123 0.17250727 
0.550286 -0.7859793 0.28181896 
0.9082743 0.28820524 0.30327505 
0.9560806 0.013707928 -0.29278314 
0.6854018 -0.13982959 -0.71461326 
0.9767945 -0.21236798 -0.027793575 
0.70169985 -0.7028565 0.11666242 
0.9669842 -0.2271584 -0.11550121 
0.651268 -0.59501326 0.4709664 
0.64181995 -0.59563076 0.4830022 
0.5798282 -0.550435 0.6006834 
-0.72640973 -0.6099653 -0.3166563 
-0.7547001 -0.6286764 0.18760017 
-0.88598937 -0.32959092 0.32617903 
-0.38470948 0.13670957 -0.9128577 
-0.52981746 0.14096704 -0.83631444 
0.0380003 0.23563918 -0.97109747 
0.54532593 0.050380595 -0.8367087 
0.2899739 -0.58540136 -0.7571132 
0.26451597 -0.86918545 -0.4177893 
0.4943553 -0.5050841 -0.7074624 
0.9198274 -0.13623103 -0.36791125 
0.6419299 -0.34566483 0.6844281 
0.6579819 -0.058609623 0.75074947 
0.72955686 -0.05562341 0.6816545 
0.19878821 0.059852682 0.9782132 
-0.3298729 0.24416247 0.91190386 
-0.40445793 0.19270565 0.8940237 
-0.6738908 0.11534581 0.72977155 
-0.84648395 0.37321126 -0.37970814 
-0.8868582 -0.0031345787 -0.46203092 
-0.81020945 -0.20929535 -0.5474999 
-0.6597236 -0.7041242 0.26262903 
-0.5767677 -0.79946375 -0.1679193 
-0.2690434 -0.9452462 -0.18473017 
0.1454123 -0.8663423 -0.47781405 
0.37945995 -0.51080495 -0.7714198 
0.11105989 -0.98454297 0.13542858 
-0.24468431 -0.9690795 -0.031852096 
-0.09968312 -0.67820233 -0.728083 
-0.13718174 -0.056250688 -0.9889475 
0.106698856 -0.005420047 -0.99427664 
0.77910113 0.15827194 -0.60659 
-0.50965893 0.058591254 -0.8583792 
-0.05124773 -0.06932406 -0.99627703 
0.119891554 -0.14738965 -0.9817853 
-0.5545487 -0.10745586 -0.8251842 
-0.50831795 0.53219175 -0.6770413 
0.30261356 0.18674104 -0.9346405 
0.102191836 0.09385517 -0.9903273 
0.001949888 0.2707988 -0.962634 
0.027269354 0.23244737 -0.9722267 
0.34482673 -0.19685976 -0.91779125 
0.10404486 -0.698937 -0.70757467 
0.499971 -0.78599197 -0.3636561 
0.24051516 -0.9296118 -0.27923885 
-0.6154875 -0.6054604 -0.504572 
0.2086993 -0.2903715 -0.9338785 
0.60398453 -0.7137326 -0.35466665 
0.23648125 -0.100425355 -0.96643233 
0.27032858 -0.17430872 -0.94685745 
-0.46534914 -0.2086916 -0.8601732 
-0.32739612 0.12308979 -0.9368355 
-0.008451388 -0.49365497 -0.86961687 
0.49640343 -0.22711098 -0.83785695 
0.61974555 -0.117370225 -0.77597666 
-0.07174176 -0.55354977 -0.8297204 
0.4943447 -0.27306724 -0.8252622 
0.32399997 0.7871672 -0.5247781 
0.7248714 -0.2465331 -0.64325964 
0.5597362 0.061864227 -0.82635844 
-0.09901514 0.16105817 -0.9819655 
-0.19035159 0.46298265 -0.8656866 
-0.33579728 0.022931548 -0.94165516 
0.064337336 0.99449277 -0.08273463 
0.30828515 0.951294 -0.00015027444 
0.121570475 0.9847091 -0.12477455 
0.37523496 0.7302099 -0.5709574 
0.22684525 -0.61889714 -0.7520025 
0.23719096 -0.43854913 -0.8668421 
0.18704633 -0.49648082 -0.8476559 
0.6130134 -0.23875186 -0.7531349 
0.71081644 -0.63460034 -0.30335215 
0.96344805 -0.24532475 0.107627556 
0.66431624 -0.67930245 0.31182083 
-0.04769707 -0.97680646 -0.2087442 
-0.5647345 -0.81169105 0.14910644 
0.05885404 -0.9959537 0.06791497 
0.43524644 -0.4009343 0.80610937 
0.33857813 -0.040470175 0.94006765 
0.21818973 0.5256969 0.8222142 
-0.42452148 -0.2761007 0.8622934 
-0.9117771 -0.30063197 0.27979112 
-0.48196173 -0.8063866 0.34271517 
-0.6397291 -0.7382037 0.21401405 
-0.65012825 -0.60418314 0.46075594 
-0.6472166 -0.15548809 0.74628025 
-0.3970764 -0.8042706 0.44213036 
-0.6561202 -0.7483722 -0.09718784 
-0.9457339 0.060286608 -0.3193007 
-0.14003927 -0.5519191 -0.8220549 
0.77468777 -0.5357621 -0.33588406 
0.31127664 -0.26757807 -0.9118711 
0.6367113 -0.3573023 -0.6833256 
0.3010787 -0.19817951 -0.9327789 
0.047930736 -0.9875473 -0.14984375 
-0.32579544 -0.8934159 0.30929807 
-0.8680927 -0.48821953 -0.08975993 
-0.2837754 -0.8764336 -0.38901898 
0.17507777 -0.77457744 -0.6077644 
0.45038152 -0.88763124 0.096267045 
0.5127524 -0.7726421 -0.3743117 
0.20130071 -0.9772667 0.06654263 
0.11457483 -0.906854 -0.40557176 
-0.24091686 -0.96966034 0.041449703 
-0.110302165 -0.9877353 0.11051029 
-0.5633919 -0.7266398 0.39317194 
-0.01953897 -0.90639096 -0.42198765 
0.10966694 -0.9268809 -0.35897774 
-0.5972141 -0.35638565 -0.7185573 
0.022882093 -0.5070473 -0.86161447 
-0.6697607 -0.74090505 0.049804453 
-0.6113692 -0.7263114 0.3141648 
0.12191297 -0.9426519 0.31071624 
-0.31025863 -0.9505771 0.011957406 
0.43838492 -0.7270054 -0.52847123 
0.3651769 -0.40899977 -0.8362806 
0.71555704 -0.6777882 0.16906026 
-0.29275054 -0.927356 0.23304096 
0.26028752 -0.9552058 0.1408271 
-0.4455502 -0.7800481 -0.43932888 
-0.661111 -0.3554099 -0.66076934 
-0.14770505 -0.6525343 -0.7432242 
-0.17865382 -0.29046562 -0.9400599 
-0.17235349 -0.4939843 -0.852217 
-0.06496268 -0.27405512 -0.9595174 
-0.4982465 -0.1344347 -0.85654986 
0.29486713 0.15538952 -0.94281894 
-0.22785755 0.046300042 -0.97259307 
-0.59790903 -0.3424955 -0.72470796 
-0.378672 0.5500139 -0.7443738 
-0.1191592 0.46374792 -0.87791735 
-0.38164198 0.4640942 -0.7993535 
0.2886768 0.44746476 -0.84642833 
0.39281207 0.6723078 -0.62745595 
-0.06858718 0.6740483 -0.7354963 
0.50542897 0.8562814 0.106412895 
0.41856664 0.8160714 0.39853418 
-0.08734007 0.7616128 0.6421198 
-0.30484825 0.6656939 0.6811163 
-0.5919852 0.7576638 0.2747712 
-0.9663721 0.2555179 0.028908618 
-0.8186375 0.5098007 -0.2644542 
-0.7932777 0.5774221 0.1931175 
-0.9929257 0.1156292 0.026991608 
-0.9159219 0.2627455 -0.3034006 
-0.76819456 0.37113452 -0.521667 
-0.118171245 -0.17373087 -0.9776774 
0.13276334 -0.36589855 -0.92113644 
-0.61276436 -0.116897225 -0.78157216 
0.24865523 -0.49083742 -0.8350145 
0.25496823 -0.1567312 -0.9541628 
-0.34197244 -0.040411945 -0.9388406 
0.0075304536 -0.11001541 -0.9939014 
-0.31706032 0.2063466 -0.9256856 
-0.3265525 0.83126104 -0.44985393 
0.4637514 0.345977 -0.81561923 
0.3360442 0.66390574 -0.6680595 
0.17166245 0.032362174 -0.98462415 
-0.094413504 -0.15054719 -0.98408425 
0.12126521 -0.50266355 -0.8559347 
0.4407123 -0.38999373 -0.8085034 
0.22473136 0.5801641 -0.7828828 
0.43009776 0.13551106 -0.8925541 
0.7187729 -0.5471998 -0.42887986 
0.9346088 -0.17377551 -0.31033605 
0.54566646 -0.8265398 -0.13813047 
0.35508788 -0.8789595 -0.31834427 
0.7040908 0.10763556 -0.7019052 
0.37980202 -0.3267893 -0.86542434 
-0.5216246 0.11896817 -0.84483993 
-0.4269418 -0.35851118 -0.83017504 
0.08586452 -0.68157643 -0.7266918 
-0.84071165 -0.1205059 -0.52790374 
-0.3643695 -0.082194306 -0.9276201 
-0.2360744 0.32479563 -0.9158476 
-0.5563103 -0.6071315 -0.5673715 
-0.49988788 -0.45027998 -0.7398379 
-0.026271049 -0.8641672 -0.5025186 
0.41516724 -0.723126 -0.552019 
0.6665879 -0.5949036 -0.44916627 
0.14574954 -0.9886221 0.037194278 
-0.11663162 -0.992457 -0.037767448 
0.116404206 -0.9806568 -0.15736116 
0.6334355 -0.62758523 -0.45265466 
0.6603624 -0.7131841 0.23513825 
-0.12473638 -0.78526235 0.6064685 
-0.072961934 -0.8636376 0.4988051 
-0.71877635 -0.69048744 -0.08116464 
-0.84190714 -0.04416692 0.537812 
-0.80568063 -0.57137924 -0.15621983 
-0.55705166 -0.7324756 0.39137328 
-0.45881033 -0.24439572 -0.85426223 
-0.65303445 -0.13527966 -0.74514794 
0.11181665 -0.06678745 -0.99148196 
0.8173278 0.25997838 -0.51418537 
0.32262754 0.06792562 -0.9440856 
0.2638035 -0.29837722 -0.9172671 
0.26919267 -0.89003813 -0.36792317 
0.19109622 -0.7791056 -0.59705675 
-0.2832783 -0.7564331 -0.58954436 
-0.49635705 -0.3234371 -0.80561656 
-0.19214997 -0.4237906 -0.88514405 
-0.0049425643 -0.56215036 -0.8270204 
0.2656382 -0.67385465 -0.6894609 
-0.18871708 -0.8358009 -0.5155802 
-0.1688353 -0.98523784 0.02830709 
0.03981317 -0.826626 0.56134164 
0.45015344 -0.89275515 0.018715478 
-0.03588931 -0.6076475 -0.7933955 
-0.1494339 -0.06525556 -0.9866161 
0.093868755 -0.14505212 -0.9849613 
-0.89869225 0.053109985 -0.43535233 
-0.35166568 -0.3829086 -0.85423195 
-0.5563229 -0.7690763 -0.31468478 
-0.30630714 -0.44338605 -0.84236854 
0.23234108 -0.39960757 -0.8867533 
0.528412 -0.5882956 -0.61211854 
0.23787944 -0.75735646 -0.60813206 
0.40534922 -0.8035763 -0.43584085 
-0.6748743 -0.6929328 -0.25374955 
0.4112365 -0.6211527 -0.6671236 
0.4843279 -0.649045 -0.5866575 
0.7595532 -0.58253825 0.28935802 
0.78055006 -0.09672014 0.6175652 
0.29834485 -0.5657154 0.768737 
-0.71304744 -0.4364075 0.5487367 
-0.3514867 -0.82389134 0.44459006 
-0.39603153 -0.9146366 0.081234574 
-0.663958 -0.7328274 -0.14874066 
-0.36716637 -0.8805514 -0.29969683 
-0.17697331 -0.71721905 -0.67400104 
0.12774462 -0.23972084 -0.9624008 
0.2640832 -0.6483506 -0.71407396 
-0.0474647 -0.79126316 -0.6096309 
0.27431718 -0.8654896 -0.41913942 
0.41291016 -0.7962338 -0.44217312 
-0.24317689 -0.5948793 -0.7661486 
-0.16409284 -0.46479347 -0.87008077 
-0.42397034 -0.30711687 -0.85201436 
0.14403304 -0.50482494 -0.8511206 
0.32070658 -0.7576457 -0.5684368 
0.7109008 -0.6842855 0.16239913 
0.3963549 -0.6269686 0.6706812 
0.4989306 -0.8275077 0.25748667 
0.0071628303 -0.74470747 -0.6673527 
0.15597597 -0.7329185 -0.66219485 
0.10520325 -0.9924801 -0.06257406 
-0.33521542 -0.8175265 0.46827468 
0.5199938 -0.68942606 -0.50428 
-0.074083515 -0.92656046 -0.3687781 
0.9471965 -0.21532932 -0.23759684 
0.882838 0.34678593 -0.31675947 
0.9880128 0.034316093 0.15050955 
0.54766405 -0.28084478 0.7881562 
0.47015896 -0.45834213 0.7542368 
0.2904982 -0.3122141 0.90450716 
-0.9454719 -0.08741355 0.3137543 
-0.9316726 0.2421586 0.27082378 
-0.83149064 0.33322653 0.44450355 
-0.75153387 0.5538958 -0.3583246 
-0.8091815 -0.21754204 -0.54580307 
-0.31824014 -0.27767426 -0.90643275 
-0.1087497 -0.430311 -0.89610606 
0.43674788 -0.6243536 -0.64763725 
0.2746092 -0.5387224 -0.7964722 
0.6389401 -0.6768388 -0.36557478 
0.88980824 -0.45562822 0.025381533 
0.7397364 -0.49481443 0.45601413 
0.28855538 -0.53367066 0.7949412 
0.7549694 -0.3350972 0.5636763 
0.15164304 -0.6536647 0.7414357 
-0.44245043 -0.7863519 0.4311478 
-0.6089709 0.2964342 0.73571825 
-0.45110285 0.29291084 0.8430359 
-0.97708976 0.022140184 0.21167305 
-0.9137555 -0.39637163 -0.089108735 
-0.49144936 -0.41956943 -0.76317686 
-0.34095442 -0.22568512 -0.9125878 
-0.7575487 -0.14225057 -0.637091 
-0.14395048 -0.1991094 -0.96934706 
0.09300522 -0.7273273 -0.6799596 
0.33971927 0.22735928 -0.91263276 
-0.26589203 -0.17683616 -0.9476447 
-0.25150236 -0.20339839 -0.9462429 
0.12773846 -0.29295838 -0.9475538 
0.15992735 -0.26549554 -0.95075524 
0.44545504 0.28531715 -0.8486248 
0.28595614 -0.30430666 -0.90864 
-0.40002137 -0.1122081 -0.90961105 
-0.4221053 -0.3180921 -0.8489078 
-0.14338596 -0.3330126 -0.93195665 
-0.48461267 0.08919222 -0.87016976 
-0.48657307 -0.24807198 -0.83767945 
-0.1109404 -0.25860775 -0.95959073 
0.09184384 0.16882315 -0.98135805 
-0.34573096 0.71795255 -0.6041641 
0.14202423 0.076654986 -0.9868907 
0.7332313 -0.5518353 -0.3973031 
-0.008609209 -0.6700536 -0.7422628 
-0.07302571 -0.3268991 -0.9422337 
0.3606583 -0.7916169 -0.49322248 
0.32207963 -0.5523553 -0.7688749 
0.23566206 -0.84285545 -0.48379552 
0.6114813 -0.6094594 -0.5046285 
-0.14206111 -0.728907 -0.6697114 
-0.1337725 -0.35138613 -0.9266244 
-0.4729567 -0.3152655 -0.8227513 
-0.28281188 -0.00744628 -0.95914656 
-0.27217814 -0.056464925 -0.96058875 
0.14713362 0.52575195 -0.83781666 
-0.033449426 0.37785518 -0.92526037 
-0.12020605 -0.38737682 -0.91405135 
0.17354202 0.07248112 -0.9821557 
0.5630415 0.6824195 -0.46614155 
0.58927363 0.34667966 -0.7297739 
0.41538164 0.35730097 -0.836537 
0.25562298 0.5455071 -0.79817235 
0.21396329 -0.14938779 -0.96535134 
0.3911882 0.09922607 -0.914946 
0.15841849 0.49219632 -0.8559476 
0.29876894 0.8865781 -0.35315228 
0.5770728 0.8103206 -0.10182161 
0.62373203 0.76429194 -0.16375706 
0.4494046 0.19724831 -0.8712799 
0.09592173 0.06378383 -0.9933432 
0.21880598 -0.65205216 -0.7259146 
0.8609667 -0.5007969 0.089099936 
0.6296097 -0.732639 0.25851828 
0.5659894 -0.81315804 0.13575765 
0.5329559 -0.6855393 -0.49597776 
-0.29361552 -0.9537018 -0.065137796 
0.30202624 -0.9121438 -0.27708086 
0.07319083 -0.8773887 -0.4741646 
-0.37599695 -0.9250739 0.05352252 
-0.3077084 -0.30578923 0.9010042 
-0.6243157 -0.42899102 0.6528374 
-0.42212096 -0.23309729 0.87605923 
-0.73652005 -0.51330876 0.44051376 
-0.4769445 -0.8710945 0.117125675 
-0.5840944 -0.8113881 0.02198135 
-0.36769903 -0.9266941 0.07768881 
-0.011959353 -0.940702 0.3390233 
-0.61125284 -0.75533503 0.23630272 
-0.38917604 -0.86981213 0.30326402 
-0.5006486 -0.8378807 0.21750174 
-0.106342554 -0.57572806 -0.8106964 
0.2207596 -0.41057912 -0.8846978 
0.032778647 -0.29863814 -0.95380336 
0.21782604 0.01431123 -0.9758827 
0.7704489 -0.25749338 -0.58318573 
0.7748258 -0.5013384 -0.38510352 
-0.368412 -0.9040429 -0.2167469 
0.05881663 -0.6348398 -0.770402 
0.20017923 -0.8248408 -0.52874017 
0.14871348 0.09981544 -0.9838299 
-0.05847098 -0.21416253 -0.97504646 
-0.021528086 -0.9727807 -0.23072553 
-0.32238942 -0.9369729 0.1347106 
0.22024125 -0.36074722 -0.9062866 
-0.17932226 -0.6797625 -0.71117264 
-0.24057454 -0.85295707 -0.4632368 
-0.027327705 -0.9317746 -0.3620073 
0.5200358 -0.80795854 -0.2770664 
-0.43351555 -0.12228904 -0.89281 
-0.35031566 -0.48660898 -0.8003066 
-0.46006656 -0.76024324 -0.45866016 
0.72888047 -0.6822552 0.057107236 
0.30896893 -0.73948926 0.59807515 
0.20414728 -0.97783226 0.046563234 
-0.013958942 -0.6015405 -0.79872036 
0.06697844 -0.9975523 0.02008577 
-0.75148857 -0.6374638 0.17001408 
0.041260183 -0.9975926 -0.055737853 
0.16466697 -0.9383251 -0.30402443 
-0.22087692 -0.9708316 -0.09327205 
-0.109938145 -0.68750113 -0.71781325 
-0.13512571 -0.7177427 -0.6830714 
0.099657044 -0.062500976 -0.993057 
0.12781553 -0.36841878 -0.9208317 
0.47003883 -0.02419713 -0.8823141 
-0.5458262 -0.18535765 -0.81713915 
0.05936418 -0.14782254 -0.9872307 
0.43143743 -0.71174467 -0.55432963 
-0.24846365 -0.28636453 -0.9253439 
-0.40028903 0.059629098 -0.91444695 
0.09124375 -0.2198841 -0.9712495 
0.5863238 0.2143303 -0.7812087 
0.33713123 0.93890595 0.06926958 
0.40358132 0.8336717 -0.3769798 
0.19581687 0.8593198 -0.4724673 
0.4864105 0.8479333 -0.21074624 
0.6776241 0.7320389 0.07031902 
0.03133956 0.89135015 0.4522309 
-0.3717215 0.3919134 0.84156233 
-0.538484 0.58506346 0.6064123 
-0.88318133 0.062310006 0.46487454 