# OOMMF: rectangular mesh v1.0
# Segment count: 1
# Begin: Segment
# Begin: Header
# Desc: Time (s) :  5.080000000000007e-07
# Title: m
# meshtype: rectangular
# meshunit: m
# xbase: 2e-09
# ybase: 2e-09
# zbase: 5e-10
# xstepsize: 4e-09
# ystepsize: 4e-09
# zstepsize: 1e-09
# xmin: 0
# ymin: 0
# zmin: 0
# xmax: 1.024e-06
# ymax: 1.024e-06
# zmax: 1e-09
# xnodes: 256
# ynodes: 256
# znodes: 1
# ValueRangeMinMag: 1e-08
# ValueRangeMaxMag: 1
# valueunit: 
# valuemultiplier: 1
# End: Header
# Begin: Data Text
0.24071932 0.55721337 -0.7947122 
0.28929955 0.10637274 -0.95131 
-0.41932425 0.045340057 -0.9067037 
-0.42128456 0.82477003 -0.37719172 
-0.44682452 0.19024554 -0.8741594 
0.26454875 0.33410606 -0.9046476 
0.29809752 0.5427838 -0.7851903 
0.20210332 -0.0318155 -0.9788474 
0.9678166 0.25019225 0.027109537 
0.7240572 -0.6840976 -0.088044114 
0.57244676 -0.7304806 -0.37242833 
0.4021349 -0.3789884 -0.83345985 
0.9823757 -0.15263958 -0.10788584 
0.94689626 0.32147783 0.006285902 
0.8295649 0.1741328 0.5305657 
0.23766842 -0.56921524 0.7870882 
-0.107990675 -0.64265925 0.75850326 
0.14841974 0.307952 0.9397538 
0.49858695 0.23000783 0.8357677 
-0.06675715 -0.36065412 0.93030757 
-0.58317405 -0.60526425 0.54181474 
-0.8743674 -0.47535074 0.09758805 
-0.94734824 0.22506598 -0.2277645 
-0.9118179 0.38872287 -0.1322222 
-0.42942795 -0.22595462 -0.87437755 
-0.07685947 -0.0040827636 -0.9970336 
0.37983125 -0.029662471 -0.9245801 
0.085560225 0.70776814 -0.7012444 
0.29866993 -0.15637833 -0.9414575 
0.5419681 0.23513277 -0.80683535 
0.40257698 0.3427793 -0.84878385 
0.50347793 -0.41173857 -0.7595929 
0.48485866 0.28688607 -0.8262012 
0.54733306 0.25639477 -0.7966733 
0.8099181 -0.2916225 -0.50890976 
0.1518433 0.13781278 -0.97874993 
0.30702332 0.79922974 -0.5166901 
0.74119097 0.33730322 -0.58039856 
0.42072362 0.12651655 -0.8983236 
0.30041984 0.4911164 -0.8176508 
0.04853033 0.99620104 -0.07230732 
0.1025998 0.8925127 -0.43919748 
0.05051652 0.94040275 -0.33628976 
0.29201293 0.8427908 0.45214185 
0.07111827 0.29417074 0.9531033 
0.15511967 -0.17396939 0.972457 
-0.47376242 0.19481817 0.8588337 
-0.5223336 0.33210945 0.7854113 
-0.6705226 -0.61357445 0.41704425 
-0.57125336 -0.7371265 0.36099043 
-0.45170876 -0.8859466 0.10515609 
-0.108131595 -0.8514758 -0.51312447 
0.272 0.09359346 -0.957735 
0.07899925 -0.70530015 -0.7044934 
0.880204 0.26921883 -0.39084783 
0.7180036 0.1296579 -0.68385655 
0.08055736 -0.7643722 -0.63972306 
0.08452791 -0.32407412 -0.9422479 
0.022878038 -0.4651991 -0.88491046 
-0.43371707 -0.26446033 -0.8613654 
-0.19324242 -0.40932888 -0.8916879 
0.43956387 0.21236955 -0.87274444 
0.5950764 -0.09397427 -0.7981561 
0.3134282 0.613971 -0.7244325 
0.5842164 0.811411 0.017415542 
0.100276 0.4188191 0.9025162 
0.5445354 0.838405 -0.02362754 
0.5108439 0.8129957 0.27942193 
-0.9408266 0.05163937 -0.3349309 
-0.64833623 0.07488327 -0.75766265 
-0.46477783 -0.8300449 -0.30823216 
-0.19673169 -0.9388765 0.28250217 
0.47117975 -0.77008414 -0.43006995 
0.54749686 -0.6710093 -0.4999937 
0.7399869 -0.6712227 0.043355305 
0.6077473 -0.68192154 0.4069721 
0.014069459 0.060448743 0.99807215 
0.60253394 0.76523304 0.22665247 
0.08397093 0.89057654 0.447015 
-0.029665843 0.5567399 0.8301569 
-0.49574667 0.13371255 0.85811204 
-0.84366167 -0.31526208 0.43456292 
-0.007764299 0.655908 0.754801 
-0.38789475 0.57442117 0.7208177 
-0.1417202 0.9629363 0.2294977 
-0.33718956 0.87998825 -0.3345502 
-0.2894513 0.24495432 -0.92531914 
-0.12548093 -0.40453637 -0.9058725 
0.087011226 -0.9084441 -0.4088502 
-0.95731884 -0.26308328 -0.119699754 
-0.76840734 0.036463562 -0.6389213 
-0.5738921 -0.45239726 -0.68263066 
0.024440741 0.18228048 -0.98294276 
0.5024703 -0.7160035 -0.48462638 
-0.52679944 -0.14576182 0.83739823 
-0.6358201 -0.3821986 -0.6705648 
-0.5057527 -0.7589981 -0.41004395 
-0.5297917 -0.606787 -0.5925626 
-0.44524533 -0.50844467 -0.7370487 
0.30647486 -0.5586718 -0.77068734 
0.5873541 -0.6685179 -0.45617872 
0.4578359 -0.87943196 0.13032962 
-0.093370356 -0.94542724 -0.31216896 
-0.008282468 -0.999612 -0.026593817 
0.6603286 -0.75097644 -0.0007046447 
0.77997303 -0.37793204 0.49880826 
0.8265691 -0.092597164 0.555166 
0.82507646 -0.32118168 0.46485627 
0.14739773 -0.86239386 -0.48430443 
0.33696482 -0.38330784 -0.8599592 
0.21870594 -0.57761174 -0.7864683 
0.5438126 -0.4732425 -0.6930437 
0.29831094 -0.494526 -0.81636685 
0.15231602 -0.9743703 0.16553713 
0.3923465 -0.84869486 0.35465676 
-0.11076322 -0.6877958 0.71740395 
-0.2479467 -0.7516397 0.61119574 
-0.3345702 -0.8268464 0.45209268 
-0.55193603 -0.5770402 0.6019894 
-0.716745 0.099694595 0.6901722 
-0.4653885 -0.07293721 0.88209623 
-0.8358567 -0.32875744 0.43961605 
-0.96279496 -0.26582277 0.048623197 
-0.6807421 -0.6541802 -0.32960364 
-0.4151237 -0.4607091 -0.7844868 
-0.24871598 -0.13860728 -0.95860755 
-0.28201464 -0.3198329 -0.9045301 
0.15845802 -0.5258742 -0.8356719 
0.16590673 -0.43069765 -0.88711596 
-0.21104154 -0.35698387 -0.90995824 
0.5309877 -0.6320038 -0.5644673 
0.3597592 -0.49509606 -0.790856 
0.9030898 -0.16969824 0.3945015 
0.85041994 -0.4818184 -0.21127462 
0.5701731 -0.78448844 0.24388607 
0.025970647 -0.1442222 0.9892045 
-0.5479273 -0.58426243 0.59867615 
-0.8258556 -0.4013143 0.39611802 
-0.4320465 0.85388815 -0.2901912 
-0.35387325 0.39404887 -0.84823304 
-0.008724466 -0.76620746 -0.6425341 
-0.2038806 -0.9677119 -0.14821106 
0.36231774 -0.87877136 -0.31062347 
0.2045279 -0.92305577 -0.32578585 
0.18980516 -0.31362388 -0.93038386 
-0.3895881 -0.91991377 -0.044495538 
0.25438142 -0.95821446 0.13082501 
0.7816847 -0.38419956 0.49128368 
0.67233574 -0.26829413 0.68991524 
0.47975087 -0.69775176 0.5319602 
0.24369045 0.12375389 0.9619251 
0.37385422 -0.88582253 0.27486625 
0.38141313 -0.3987857 0.83396286 
0.31545213 -0.11890445 0.94146264 
-0.4774184 -0.45064035 0.7543176 
-0.9331889 -0.051906615 -0.3556181 
-0.54109734 0.080999866 -0.83705 
-0.817427 0.5255722 -0.23576929 
-0.2876711 0.11898832 -0.95030904 
0.2410074 0.6918051 -0.680677 
0.52897614 0.7339824 -0.42597437 
-0.23724034 0.79698884 -0.5554511 
-0.48922673 0.5667533 -0.66290873 
0.06280372 0.45189568 -0.8898573 
0.25533146 0.20358163 -0.94517744 
0.62556547 0.2944975 -0.7224536 
0.32109526 0.07039387 -0.9444271 
0.3301739 -0.5853945 -0.7404718 
0.019871527 -0.53944606 -0.8417857 
0.1396777 -0.81463075 -0.5629094 
0.27850413 -0.33440843 -0.90033686 
0.6034297 0.3415537 -0.7205649 
-0.8398473 -0.442513 -0.31438637 
-0.14734378 -0.9862476 -0.0748697 
-0.86330247 -0.33045268 -0.3814578 
-0.75868195 -0.4373861 -0.4827992 
0.058861323 -0.93983495 -0.33651996 
-0.44198418 -0.16369545 -0.88196015 
0.48685405 -0.78586006 -0.3813097 
0.27090326 -0.95152944 0.14561349 
-0.072247386 -0.8749646 0.47876644 
-0.45377767 -0.5594629 0.69360447 
-0.57440794 -0.5186424 0.6332974 
-0.16409886 -0.88986903 0.42568156 
-0.7761404 -0.21562743 0.5925463 
-0.8271549 -0.36971387 0.4232335 
-0.9463835 -0.09801327 0.30781788 
-0.81358194 0.014278391 0.581275 
-0.54004747 0.83798903 0.07825127 
-0.4749194 -0.7708196 -0.42460424 
0.26211083 -0.8156916 -0.5156988 
0.23277847 -0.45168692 -0.8612741 
0.8352381 0.18172379 -0.51899326 
-0.13468172 0.05275115 -0.9894838 
-0.25222194 -0.35596064 -0.89982015 
0.3358249 0.5198417 -0.7854848 
0.99300975 -0.067044236 0.09714337 
0.43307352 -0.79405063 0.4265336 
-0.36860588 -0.91725415 0.15091214 
0.00419881 -0.9935081 -0.11368444 
0.55730516 -0.73262376 -0.39073446 
0.3823056 -0.6543702 0.6524126 
-0.09877574 -0.7350596 0.67076886 
0.46059692 -0.80470115 0.37457526 
0.45699218 -0.882051 -0.11464836 
-0.16360833 -0.9855639 -0.043546315 
0.40811074 -0.8802059 -0.24224631 
0.8250086 -0.5184735 -0.22482462 
0.09587738 -0.8625223 -0.49685308 
0.03847061 -0.99680084 0.07005798 
-0.5307678 -0.8084277 -0.25442153 
-0.020120477 -0.74875456 -0.662542 
-0.25620094 -0.6728552 -0.6939935 
0.08081831 -0.7992799 -0.5954998 
0.37665698 -0.9164035 -0.13540378 
0.41417953 -0.89743567 -0.15187016 
0.8465944 -0.35516056 -0.39640749 
0.2796159 -0.828106 0.48585537 
-0.29196635 -0.95134723 0.098459244 
0.27900833 -0.9261473 -0.25378236 
0.016587436 -0.99970186 -0.017919779 
-0.9247636 -0.35477474 -0.13764866 
-0.9843625 -0.17424299 -0.025881585 
-0.99651986 -0.0493967 -0.06714343 
-0.8905836 -0.24101949 -0.38570774 
-0.2942347 -0.7890295 -0.53931296 
-0.32606876 -0.036429886 -0.944644 
-0.27757075 -0.42295125 -0.862593 
0.04200863 -0.2634964 -0.9637453 
0.77073956 0.33500072 -0.5419734 
0.9453482 -0.28450632 -0.159289 
0.6810925 -0.58145875 -0.444993 
0.6364193 0.13318312 -0.7597584 
0.7162825 -0.61076325 -0.3375021 
0.28507316 -0.6898833 -0.665428 
0.8600804 -0.504175 -0.077905655 
0.78450555 -0.5701993 -0.24377003 
0.87070507 -0.19981028 0.44938684 
0.30774665 -0.51006216 0.80319905 
-0.14091465 0.050771855 0.98871905 
-0.62285674 -0.3635095 0.69275564 
-0.14623645 0.06355009 0.98720634 
-0.8113592 -0.44665426 0.37708938 
-0.7177751 -0.091494285 0.69023746 
0.20286237 -0.19724259 0.9591362 
-0.0885858 -0.7097906 0.6988204 
0.38968462 -0.90361553 -0.17783408 
0.3784938 -0.9138368 -0.14712162 
0.9128078 -0.104010165 0.3949227 
0.7796693 -0.6065272 0.15569387 
0.8265934 -0.46714836 0.31387243 
0.37685 -0.6479492 0.661926 
0.39173415 -0.91997945 -0.013497099 
0.91048914 -0.40332687 0.0913067 
0.7483425 -0.23529957 0.6201755 
0.3319661 -0.5450133 0.7699085 
-0.09019901 0.3108302 -0.9461758 
-0.15633678 0.42785364 -0.8902247 
-0.49493915 0.17962717 -0.8501585 
-0.17495754 0.24380553 -0.9539123 
-0.7020103 -0.5934708 -0.39366746 
0.42216602 -0.50862026 -0.75038743 
0.7675599 0.19495934 -0.61060846 
0.3597092 0.15467066 -0.92015564 
0.9882806 -0.0110301385 -0.15224965 
0.7964222 -0.53853226 -0.27512679 
0.853836 -0.4321174 -0.290239 
0.942501 -0.3307861 0.047672167 
0.82390493 -0.28851444 -0.487791 
0.90483457 0.40347287 -0.13595673 
0.74668866 0.50815296 0.42922807 
0.60924435 -0.19982336 0.76739305 
0.44916674 -0.8931368 -0.023582378 
0.044065118 -0.47305283 0.87993145 
-0.10415989 -0.47095954 0.87598395 
0.3475716 -0.73248374 0.58537304 
0.09650799 -0.84607863 0.52424926 
-0.5044336 -0.6934766 -0.51442873 
0.23127885 -0.54475373 -0.806073 
-0.5190107 -0.51235354 -0.6841943 
-0.18686728 -0.027503286 -0.9820001 
0.36488715 -0.3832715 -0.84850484 
0.35156703 -0.24031524 -0.90479237 
-0.4991729 0.063731484 -0.8641556 
-0.17832205 -0.20855516 -0.96161646 
0.46803522 -0.3147638 -0.82575226 
-0.11523915 0.2668797 -0.9568151 
0.044906233 -0.34784403 -0.9364764 
0.32135135 -0.09594907 -0.9420866 
0.3628567 0.09056819 -0.9274333 
0.114638984 -0.06510241 -0.99127173 
0.7623682 -0.33668026 -0.5526674 
0.51467186 0.45199642 -0.72856855 
0.51062196 0.44357353 -0.73655134 
0.9485821 0.3165114 -0.0035624243 
0.75936127 0.5390243 0.36444926 
0.35093686 0.8731442 0.33832303 
0.21485417 0.9254853 0.31195298 
-0.3104468 0.8985899 -0.3100953 
0.41464478 0.9028075 0.11405439 
0.31976548 0.124621175 0.9392655 
-0.51081157 -0.20355466 0.83524674 
-0.51596206 -0.23322396 0.824251 
-0.6671491 0.3626255 0.6507033 
-0.47479346 -0.784217 0.39946845 
-0.49615568 -0.6125945 0.6152703 
-0.6709969 -0.69184804 -0.26666373 
-0.34678578 -0.7978599 -0.4931118 
-0.2508872 -0.47263083 -0.84479326 
0.015378847 -0.87958056 -0.4755014 
-0.41738975 -0.5513089 -0.72238797 
0.19899061 -0.8043171 -0.55989 
0.30536664 -0.92160803 -0.23956195 
-0.7859445 -0.2917216 -0.54515123 
0.19110171 -0.26996782 -0.94371474 
-0.28694218 0.39962226 -0.8706126 
-0.22886379 0.6019705 -0.76501834 
0.449345 -0.13834813 -0.8825808 
0.51973426 0.76281756 -0.3846892 
0.0892769 0.6066406 -0.7899474 
-0.061050646 0.7831215 -0.6188647 
-0.7931933 0.5019674 0.34478003 
-0.6327481 0.40859854 0.657782 
-0.5444245 0.5945421 0.5917109 
-0.73440796 0.6761988 -0.05831114 
-0.49293163 0.1699235 -0.8533138 
-0.048533022 -0.6182766 -0.7844607 
-0.20717452 -0.70411533 -0.67919105 
0.28639504 -0.88958836 -0.3558237 
0.86170405 -0.3307772 -0.384776 
0.48765042 -0.8643814 -0.12264531 
0.5687321 -0.5687776 0.59416825 
0.5753044 -0.33772662 0.7449602 
0.3603406 0.050424676 0.9314569 
-0.27061498 0.68698305 0.6744048 
-0.6412309 0.1827396 0.74527127 
-0.34261695 0.78233385 -0.5201609 
-0.7992924 0.6006042 -0.020156894 
0.035309914 0.27022856 0.96214855 
0.27008402 0.50081104 0.82233995 
-0.30165747 0.64455926 0.7025285 
-0.5296234 0.6701151 0.52004325 
-0.7773331 -0.11041842 -0.61932313 
-0.5851627 0.28387302 -0.75960565 
-0.59266573 0.18958992 -0.7828174 
-0.68494916 -0.30142477 -0.6633158 
-0.41133508 -0.56442624 -0.7157 
-0.15257639 -0.39967188 -0.9038711 
-0.15009668 -0.15104835 -0.97706467 
-0.06124864 -0.68860894 -0.72254163 
-0.498389 -0.8638662 -0.07310081 
-0.3103626 -0.5523959 -0.7736497 
-0.16560622 -0.52676886 -0.83372015 
-0.43087503 -0.27985376 -0.8579211 
-0.23598093 -0.63041234 -0.7395224 
-0.0963467 -0.78169554 -0.61617315 
0.12571849 -0.5309847 -0.83800364 
0.5924592 -0.80351096 0.057986 
-0.29971093 -0.86293876 0.40682915 
-0.63842815 -0.76178366 -0.10997881 
0.04297003 -0.52603835 -0.8493746 
0.3479656 -0.6489275 -0.67661893 
0.98799014 -0.15200597 -0.027743628 
-0.15064456 -0.98655826 0.06331835 
-0.54001534 -0.77864087 -0.3195341 
0.22598274 -0.27313906 -0.9350545 
0.32084918 0.15795037 -0.9338669 
-0.05131071 -0.5039491 -0.862208 
0.32622498 -0.86312044 -0.38548735 
0.04171152 -0.9582075 0.2830172 
0.6135284 -0.7858911 0.07718846 
0.14043368 -0.8128534 0.56528556 
0.06329168 -0.97754455 0.20099947 
-0.15645333 -0.4199556 0.89395726 
-0.543375 0.07207851 0.83639 
-0.86651486 0.1988842 0.45781788 
-0.9022028 -0.4080683 0.13967982 
-0.8672691 -0.31745103 -0.38349622 
-0.7997476 -0.31351918 -0.51196647 
-0.4086874 -0.8669008 -0.28540805 
0.29522318 -0.59749436 -0.7455493 
0.37192082 -0.45344657 -0.809976 
0.5188493 -0.55286765 -0.6520221 
0.13840722 -0.8283271 -0.5428791 
-0.21890205 -0.2969695 -0.9294575 
0.11682952 -0.46432322 -0.87792647 
0.18786259 -0.3180442 -0.9292769 
0.65357035 -0.29348904 -0.6976461 
0.5630702 -0.22275397 -0.7958221 
0.91009337 -0.4057007 -0.08448026 
0.3110647 -0.9489138 0.052927446 
-0.48951915 -0.772061 0.4053306 
-0.7828177 -0.5961038 0.17848428 
-0.7854687 -0.18300278 -0.59122676 
-0.9557058 -0.16558664 -0.2433258 
-0.04760836 -0.056736268 -0.9972535 
0.63581276 0.27297837 -0.7219591 
0.27456445 -0.31524172 -0.90842557 
0.5872772 -0.12431014 -0.79978293 
0.72782534 -0.58421075 -0.35912135 
0.8403254 -0.5175741 0.16115332 
0.6447084 -0.7207156 0.25479457 
0.17008932 -0.9849816 0.02968138 
0.18447167 -0.5381772 0.82239616 
0.60911334 -0.23910898 0.7561798 
0.07136169 -0.8249683 0.56065565 
0.54943883 -0.21023346 0.80865264 
0.84748745 -0.49902073 -0.18095167 
-0.09015933 -0.99580026 -0.015915796 
0.47941145 0.118893534 0.86949927 
-0.6767533 -0.5760236 0.45847788 
-0.67317426 -0.49680552 -0.54774153 
-0.56564665 -0.081759065 -0.8205847 
-0.33854654 0.83130103 -0.4408229 
-0.70109725 0.5104589 -0.49789006 
0.0434264 0.42371857 -0.9047523 
0.6527546 0.29633522 -0.69720656 
-0.2775933 0.67036563 -0.6881511 
-0.0051524257 0.830284 -0.55731684 
-0.5934081 0.39867935 -0.69922936 
-0.04618534 0.0029295136 -0.9989286 
-0.6344058 0.07724053 -0.76913154 
-0.6109588 -0.54037404 -0.5785545 
-0.5799987 -0.3884236 -0.71605074 
-0.38230482 -0.2876654 -0.8781183 
0.10218204 -0.8510083 -0.51511526 
0.79376084 0.0031211246 -0.6082221 
0.812063 0.052689858 -0.5811863 
-0.033511788 -0.8013849 -0.5972096 
-0.34634414 -0.9277929 0.13872993 
-0.9929957 -0.04146161 0.11063774 
-0.9797965 -0.095602036 -0.17566776 
-0.35253608 -0.36393562 -0.86213064 
-0.81994337 -0.060484763 -0.5692403 
-0.24067715 -0.37732604 -0.8942592 
-0.26597863 -0.33484134 -0.9039562 
0.67762923 -0.51277405 -0.52714473 
0.23485029 -0.9719489 -0.012676709 
0.10630798 -0.54109025 0.83421814 
-0.016049057 -0.857969 0.51345086 
-0.52505165 -0.70153123 0.48184508 
-0.43291166 -0.7046504 0.56218797 
-0.9205481 -0.38929597 0.03224937 
-0.8254009 -0.31856114 0.4660818 
-0.18695009 0.7126136 0.676189 
-0.6958338 -0.21895345 -0.6840138 
-0.22631475 -0.85923076 -0.45880744 
-0.10484388 -0.6940587 -0.7122432 
-0.061666675 -0.22362368 -0.9727229 
-0.23626819 0.62248266 -0.7461184 
0.38102865 0.11918436 -0.91684914 
0.71681774 -0.019489806 -0.69698817 
0.92017645 -0.3797247 0.095312476 
0.91279393 -0.23842625 0.33160242 
-0.000425768 -0.97997636 0.19911376 
-0.338301 -0.9383257 -0.071396396 
0.037239864 -0.99500364 -0.09263411 
0.079616114 -0.7009106 0.7087917 
-0.4432765 -0.86237 0.24458927 
0.157098 -0.82578486 -0.54166377 
0.23006882 -0.78673035 -0.57282096 
-0.24300897 -0.71230674 -0.6584571 
-0.11267226 -0.550294 -0.8273341 
0.34634754 -0.63157964 -0.6936501 
-0.47354838 -0.51978266 -0.7110401 
0.348602 -0.24308698 -0.9051991 
0.40747032 -0.27316764 -0.8714055 
0.34392574 -0.28672045 -0.8941513 
0.5525219 -0.31667256 -0.7709981 
-0.04235966 -0.71638626 -0.6964168 
-0.15084301 -0.6599387 -0.73602134 
0.3457417 -0.8831523 -0.31702495 
0.36395538 -0.5030358 -0.7838951 
0.49331802 -0.35617703 -0.7935838 
-0.056979768 -0.96042705 0.27264148 
0.22319412 -0.9279295 0.29854885 
0.16644175 -0.9845211 -0.054912645 
-0.3751025 -0.76218545 -0.5276093 
-0.5379662 -0.6757455 0.50394493 
-0.49921152 -0.82734543 -0.25746357 
-0.15954533 -0.19418319 -0.9679041 
-0.41041616 -0.29813504 -0.8617855 
-0.37792537 -0.08250533 -0.92215264 
-0.005139903 -0.12788294 -0.991776 
0.7355319 -0.031040067 -0.6767786 
0.8183203 -0.07145548 -0.5703035 
0.75225073 -0.37547657 -0.5414206 
-0.2191747 -0.5393944 -0.813029 
0.7673387 -0.39880326 -0.5021427 
-0.38509846 -0.38068408 -0.84070134 
0.5582152 0.20240347 -0.80462956 
0.84388936 -0.44394365 -0.301272 
0.94724923 -0.20649466 -0.24511 
0.7961698 -0.53784925 -0.2771857 
0.69249415 -0.651948 0.30889457 
0.21422736 -0.96049225 0.17765477 
-0.6062543 -0.72894645 0.31795117 
-0.67996913 -0.54577297 0.48966724 
-0.032522023 -0.8440132 0.5353354 
0.011827058 -0.6956645 0.7182695 
0.048004724 -0.7613234 0.64659274 
-0.42094582 -0.83357936 -0.35770136 
0.09110152 -0.99541175 0.029259438 
0.37191674 -0.8945072 0.24806206 
0.9024843 0.09180937 0.42082435 
0.6067121 -0.54180354 0.58167803 
0.56344247 -0.7147606 0.4143065 
0.23621587 -0.9715515 -0.017027803 
0.6819154 -0.37095565 -0.6303835 
0.81156325 -0.5054063 0.2931378 
0.64266074 -0.7648689 -0.04430395 
0.06497795 -0.8487803 0.524738 
-0.15696028 -0.028867152 -0.987183 
-0.49034354 0.5900088 -0.64144593 
-0.4321091 0.67009556 -0.6035343 
-0.48849037 0.011342593 -0.87249565 
-0.071718626 -0.3183882 -0.9452436 
0.26438594 -0.45993486 -0.84767914 
-0.17958266 -0.3667626 -0.9128172 
0.6930018 -0.32530862 -0.64336836 
0.8790112 0.42610434 -0.21394977 
0.7508141 -0.09398619 -0.65379274 
0.9271919 -0.25519538 -0.27420908 
0.8138381 0.57958263 -0.04185213 
0.82588077 -0.5386141 0.16678105 
0.95571125 -0.10505218 0.27491862 
0.5027725 -0.41151407 0.76018155 
0.9166795 0.015464939 0.39932376 
0.88540566 -0.4340264 -0.16636689 
0.6770398 -0.545062 0.49449435 
0.16170573 -0.9820833 -0.09676537 
-0.29294226 -0.9464317 -0.13583788 
-0.29299274 -0.88740516 0.3559037 
-0.40024853 -0.76386625 -0.50627023 
0.5831331 -0.28715616 -0.75993234 
-0.5438577 -0.37436014 -0.7510482 
0.13627084 -0.57034105 -0.8100255 
-0.17002971 -0.75206906 -0.63677484 
-0.26444456 -0.23054495 -0.93643916 
-0.2048483 -0.4171504 -0.88545066 
-0.52761185 0.15082857 -0.83598834 
-0.34374252 -0.19427086 -0.9187491 
-0.5688088 0.4319018 -0.6999411 
0.4047799 -0.29323727 -0.8661207 
0.34673333 0.22618927 -0.9102826 
0.7793473 -0.5777037 -0.24264431 
0.7529659 -0.6341795 0.17566645 
0.74755824 -0.18154192 -0.6389047 
0.85066146 -0.16666202 0.4985969 
0.6940465 0.3764285 -0.6136783 
0.98198724 -0.18890902 0.003796765 
0.4868461 0.49241233 0.7214645 
0.02811225 0.9891214 -0.14439073 
0.55581665 0.7483016 0.3620948 
-0.7433733 0.21862371 0.63213915 
0.37871212 -0.16225493 0.91118085 
0.037668504 0.22621664 0.97334844 
-0.09575704 -0.30634633 0.9470917 
0.071128994 0.076344594 0.9945412 
-0.48067236 -0.32579452 0.81413275 
-0.72105867 0.41846886 0.55223036 
-0.86568743 0.041818663 -0.49883536 
-0.550102 -0.3778883 -0.74470687 
-0.36367044 -0.49946696 -0.7863057 
0.12987289 -0.11272048 -0.9851026 
-0.18034089 -0.70232844 -0.68863046 
0.1863609 -0.5010567 -0.84511065 
-0.22205573 -0.58746576 -0.77818716 
0.08653326 -0.41937762 -0.90367836 
-0.6944505 -0.12410814 -0.70875645 
-0.95036566 -0.02600368 -0.31004694 
-0.28715348 0.2162571 -0.9331537 
-0.2735245 0.45583048 -0.84699655 
-0.27987647 0.09973521 -0.9548414 
-0.006607089 0.693511 -0.7204158 
0.24535052 0.71654546 -0.652967 
-0.0010786137 0.70840144 -0.70580894 
-0.6688127 0.66961986 -0.3229534 
-0.3661376 0.9172684 -0.15672323 
-0.5673661 0.5192514 0.63911945 
-0.8492802 0.44375765 -0.28601113 
-0.9889102 0.12751874 -0.07612917 
-0.48009628 -0.7101171 -0.51501584 
-0.6596836 -0.7291136 -0.1822392 
-0.30583188 -0.65092206 -0.6948146 
0.3915086 -0.40401953 -0.8267341 
0.36437732 -0.9281794 0.0755798 
0.26575956 -0.42203072 0.8667537 
-0.5750614 -0.5144459 0.63612103 
-0.06297831 0.06406292 0.9959567 
-0.097955234 -0.22716148 0.96891814 
-0.55586916 0.025416993 0.8308811 
-0.30562916 0.20852749 0.9290356 
-0.17375357 0.65113723 0.73880315 
-0.5422842 0.36597174 0.75630194 
-0.09898408 0.18120188 0.97845185 
-0.07995829 0.47878134 0.87428546 
-0.34270433 0.1507579 0.9272679 
-0.9458428 -0.30847803 -0.10110804 
-0.7201263 -0.463882 -0.5159764 
-0.8463246 -0.45429096 -0.27812642 
-0.50241053 -0.18005246 -0.8456743 
-0.06356592 -0.7615551 -0.64497554 
-0.8083755 -0.5839115 -0.07467632 
0.070246965 -0.22974296 -0.9707129 
0.14214477 -0.3329377 -0.93217355 
0.16697817 -0.051796425 -0.9845992 
-0.5671442 -0.60157365 -0.5625448 
0.067796916 -0.18104069 -0.981136 
-0.53537136 -0.8243869 -0.18374899 
0.109691165 -0.9799823 0.16614017 
-0.032384176 -0.855982 -0.51599044 
0.04474085 -0.9717848 -0.23158711 
0.5642088 -0.629643 -0.5340583 
0.26732966 -0.6394244 -0.72088236 
0.27434433 -0.42662778 -0.8618144 
0.6272257 -0.07774196 -0.7749478 
0.89170146 0.19355175 -0.40915325 
0.98639244 0.16402896 0.011158475 
0.27970403 -0.9600626 0.0067445394 
-0.58688563 -0.69368035 -0.41757974 
-0.42566857 -0.03994436 -0.90399706 
-0.39815646 -0.33910066 -0.8523393 
0.47442648 -0.5451078 -0.69121414 
0.3217971 -0.47307652 -0.8201495 
-0.4164783 -0.8609007 0.29222605 
0.44546565 -0.8800646 -0.16445892 
-0.14018242 -0.90657806 0.39807677 
0.25297087 -0.8497353 0.46255362 
0.38904935 -0.8436961 0.36988845 
0.38675237 -0.8889588 0.24530582 
-0.10507085 -0.34737313 0.9318219 
-0.23967586 -0.8182476 0.52251935 
-0.35394648 -0.90503556 -0.23586568 
-0.3732755 -0.82215565 -0.42979696 
0.10678573 -0.8436404 -0.5261822 
0.49725324 0.001716978 -0.8676038 
-0.026047554 0.52235353 -0.85233116 
-0.21044509 0.006301138 -0.97758543 
-0.38784146 0.12518129 -0.9131861 
0.60788965 -0.27027658 -0.74660623 
0.44633073 0.25233912 -0.85855335 
0.5681748 0.109757826 -0.8155555 
0.542118 -0.22248244 -0.81031454 
0.9382872 0.044054274 -0.34304 
0.51859397 -0.43336415 -0.737059 
0.20825708 -0.87316734 -0.44069022 
0.18331783 -0.9219809 -0.34109527 
-0.85179853 -0.5182906 -0.0762512 
-0.6338995 -0.50892967 -0.5823763 
-0.17175691 -0.023004679 -0.98487073 
-0.50793135 0.1784026 -0.84272087 
0.38730562 -0.21828693 -0.89573723 
0.108287156 -0.5040536 -0.85685694 
0.23589835 -0.6247363 -0.7443498 
0.5754125 -0.8175325 -0.023263523 
0.78231394 -0.6220954 0.031339608 
0.52745163 -0.8369573 -0.14593628 
0.5536307 -0.8314062 -0.047508556 
0.33828294 -0.89091057 0.3030562 
0.24311383 -0.60609293 0.757329 
-0.034831755 -0.9147799 0.40244818 
0.52057475 -0.7389732 0.42769215 
0.73691785 -0.48438996 0.47150654 
0.56371194 -0.82058626 0.09416527 
0.90022326 -0.20564742 0.3838063 
0.38348314 -0.9165875 0.1131724 
-0.23823804 -0.1712027 -0.95599806 
-0.24446335 0.33819324 -0.9087701 
-0.11123649 0.96212524 -0.24888073 
0.33292395 0.8518165 -0.40443844 
0.21647556 0.74098206 -0.6356761 
0.27577907 0.9604303 -0.038982034 
0.19263212 0.9809595 0.024729943 
-0.14655958 0.86078674 -0.48740792 
-0.14927894 0.9042788 -0.39999455 
-0.46617207 0.8507216 -0.24280909 
-0.59484327 -0.05316455 -0.80208176 
-0.5409886 -0.7559326 -0.3686426 
-0.60066605 -0.6367737 -0.48344564 
-0.9220779 0.21302015 -0.32310182 
-0.82925075 -0.3633163 -0.42467004 
-0.01976864 0.5201013 -0.85387576 
-0.3545061 -0.47566602 -0.80502635 
-0.9590261 -0.25151557 -0.13041821 
-0.57091564 -0.7892288 -0.2262152 
-0.9333484 -0.35820332 -0.02347859 
-0.57668585 -0.60506207 -0.54893845 
-0.32680494 0.1858671 -0.9266348 
0.46795157 -0.2494915 -0.8478062 
-0.17566143 0.4984024 -0.84896296 
0.41813797 -0.35737577 -0.8351307 
0.45215845 -0.80357075 -0.38707468 
0.42624936 -0.8718383 -0.2412665 
0.53470343 -0.5313758 0.6570631 
0.25802457 -0.94375193 0.20677479 
0.46100953 -0.8483383 0.26037 
-0.3289625 -0.37289008 0.8676041 
-0.30722988 -0.6540931 0.6912107 
-0.4103227 -0.23631018 0.88079107 
-0.9242304 0.21037109 0.3186567 
-0.61100763 0.5132175 -0.602725 
-0.68465006 -0.58454543 0.43538597 
-0.60911554 -0.3947894 -0.68783695 
-0.5663945 -0.0006594454 -0.82413393 
-0.44279096 0.6545105 -0.61282325 
0.08002823 0.30748865 -0.9481805 
0.62621707 0.5698705 -0.53207135 
0.7722904 -0.5195295 -0.36559093 
0.6959283 -0.70436114 0.1398548 
-0.1807368 -0.70386434 0.6869565 
-0.5051041 -0.697827 0.5078459 
-0.5773887 -0.8161566 0.022601556 
0.091746 -0.8683206 0.4874445 
-0.66772133 -0.73455626 0.1207285 
0.43300667 -0.4505529 -0.78070945 
-0.11283119 -0.9116567 -0.39515978 
-0.007694115 -0.5438819 -0.8391266 
0.26654327 -0.5252665 -0.80811507 
0.5075951 -0.45563552 -0.7312617 
0.039735146 -0.47950536 -0.8766389 
-0.061847877 -0.30169725 -0.9513957 
-0.13022146 0.21349582 -0.96822613 
0.08896166 -0.23210734 -0.9686135 
0.34183028 -0.5218227 -0.78157103 
0.15763791 -0.56242037 -0.81168574 
0.16189711 -0.4682686 -0.86862755 
-0.16428353 -0.8853859 -0.4348594 
-0.019258568 -0.48780075 -0.87274253 
0.8636241 -0.50224966 0.04357466 
0.31147408 -0.90243477 -0.2976501 
0.4531229 -0.8909461 -0.029910484 
0.20753196 -0.9600571 -0.1876721 
0.17600305 -0.7802905 -0.6001415 
-0.5092627 -0.77321297 -0.37788007 
-0.59874064 -0.63493365 -0.4882305 
-0.093205534 -0.34933975 -0.93234897 
0.0040953346 -0.00922486 -0.9999491 
-0.1186797 0.3554894 -0.9271151 
0.6905963 -0.11964645 -0.7132753 
0.4277852 0.20992108 -0.8791662 
0.2431097 0.07230797 -0.96730006 
0.38520694 0.31073105 -0.8689429 
-0.14042728 0.10329545 -0.9846879 
0.09252743 -0.052445382 -0.9943281 
0.6070181 -0.46051782 -0.6476515 
0.8432937 -0.08365496 -0.5309026 
0.57531774 -0.66091686 -0.48186973 
0.68643916 -0.56319815 -0.46001005 
0.024611592 -0.932839 -0.3594522 
0.49970108 -0.86527133 -0.040054888 
0.7484667 -0.21570061 -0.6271132 
0.72462535 -0.67238224 -0.151064 
0.030443948 -0.9511778 -0.30713856 
-0.11116227 -0.96325296 0.2445134 
-0.20832965 -0.9489736 0.23674423 
-0.13854006 -0.99009645 0.022709748 
-0.45140287 -0.71813464 -0.5296396 
0.56643057 -0.626262 -0.5356793 
0.050327223 -0.92933893 -0.36578184 
0.8992028 -0.43667135 -0.027431095 
0.38911408 -0.9085373 0.1521521 
-0.007046567 -0.9979804 -0.06313062 
-0.16129589 -0.93643004 0.31158072 
0.89498335 -0.36639494 -0.25447905 
0.831271 -0.13962194 0.53804666 
0.57756203 -0.6288119 0.52059376 
0.42073587 -0.26321784 0.86815774 
-0.44480023 0.41230538 -0.7950831 
-0.38053668 0.52784455 -0.75932336 
-0.85733193 0.01800998 -0.514449 
-0.54872483 -0.112527445 -0.8283953 
-0.30336386 -0.28902382 -0.90798444 
0.115632445 -0.5600459 -0.8203522 
0.34739906 -0.42215425 -0.83731705 
0.9791423 0.17385362 -0.10514415 
0.49619088 0.5533183 -0.6690542 
0.11022512 -0.08004416 -0.9906783 
0.96276677 0.15352978 -0.22250599 
0.8879944 -0.1901779 -0.41868657 
0.97758216 -0.08566565 -0.19233963 
0.17382517 -0.25933605 -0.95001566 
0.7626303 -0.39398766 -0.51299995 
0.29614988 -0.8406949 0.45335117 
0.43220097 -0.7547829 0.49346232 
-0.16844757 -0.8643313 0.4738745 
0.60736316 -0.7588997 0.23490685 
0.19147222 -0.94714755 -0.25739077 
-0.22484283 -0.9359117 -0.27113664 
-0.22355309 -0.2345135 -0.94605887 
0.097038634 -0.17258267 -0.9802034 
-0.40337002 -0.3090788 -0.8612566 
0.07770799 -0.07852676 -0.9938788 
0.07212038 -0.46266964 -0.8835924 
-0.436066 -0.5760948 -0.6913475 
-0.394313 -0.5909497 -0.7037725 
-0.73079574 -0.04633498 -0.68102187 
-0.36610147 0.19279982 -0.91038346 
0.076300934 0.058859114 -0.9953461 
0.54176044 0.42544854 -0.7249064 
0.65237755 0.22650011 -0.7232574 
0.8040216 -0.5897651 0.07567437 
0.97804374 -0.17146754 -0.11844585 
0.71911 0.13743499 -0.6811699 
0.6558484 -0.0973209 -0.7485931 
0.73634225 0.38431624 -0.55686736 
0.9290307 0.031126482 0.3686911 
0.59317446 -0.3465901 0.72664946 
0.40255418 0.627676 0.666313 
0.8964264 0.05721421 -0.43948415 
0.9492963 -0.12819889 0.28705686 
0.4060505 -0.22484672 0.88575786 
0.55408347 0.5221458 0.64834815 
0.8358359 -0.13331077 0.5325473 
-0.2658584 -0.5245312 0.80881786 
-0.38299575 -0.49659818 0.7789124 
-0.9398073 0.25655225 0.22570632 
-0.93343526 -0.2393365 -0.26723894 
-0.2953561 0.3011262 -0.90669066 
0.30961677 0.118934885 -0.94339395 
0.48250258 0.17682406 -0.85786045 
-0.35703093 -0.04111389 -0.93318737 
-0.13670419 0.20701006 -0.9687408 
-0.062433742 -0.35856926 -0.931413 
-0.4910182 0.21943958 -0.84305847 
-0.55100673 -0.46530157 -0.6927382 
-0.53025186 -0.31106594 -0.78871477 
0.18927465 0.16445231 -0.968055 
0.6415756 0.44916853 -0.6217945 
0.46428612 -0.21861582 -0.8582806 
0.45839912 0.54722226 -0.70029867 
0.3906003 0.6003633 -0.6978506 
0.047853593 0.8810605 -0.47057685 
0.62045157 0.48925972 0.612915 
-0.6405222 0.5482007 0.5377801 
-0.6923734 0.511114 0.5092952 
-0.57372206 0.1751048 -0.8001133 
-0.599196 -0.3256598 -0.73137534 
-0.14672144 -0.54918367 -0.8227212 
0.24803452 -0.18152268 -0.9515926 
0.022473002 -0.21259658 -0.9768817 
0.120628394 -0.45376852 -0.8829173 
0.016232792 -0.9100535 0.41417286 
-0.14459217 -0.8250609 0.5462303 
-0.5000138 -0.17821804 0.84748125 
-0.16975838 0.068976104 0.9830689 
0.14267464 -0.64748144 0.74860656 
0.36458877 0.1382199 0.92085314 