# OOMMF: rectangular mesh v1.0
# Segment count: 1
# Begin: Segment
# Begin: Header
# Desc: Time (s) :  5.110000000000007e-07
# Title: m
# meshtype: rectangular
# meshunit: m
# xbase: 2e-09
# ybase: 2e-09
# zbase: 5e-10
# xstepsize: 4e-09
# ystepsize: 4e-09
# zstepsize: 1e-09
# xmin: 0
# ymin: 0
# zmin: 0
# xmax: 1.024e-06
# ymax: 1.024e-06
# zmax: 1e-09
# xnodes: 256
# ynodes: 256
# znodes: 1
# ValueRangeMinMag: 1e-08
# ValueRangeMaxMag: 1
# valueunit: 
# valuemultiplier: 1
# End: Header
# Begin: Data Text
0.32359317 -0.14600696 0.9348634 
-0.57958865 -0.040528923 0.81390077 
-0.3454138 -0.92430663 -0.16231593 
-0.68409806 -0.70105237 0.20133431 
0.055088036 -0.9478942 -0.31378645 
-0.12285666 -0.8969287 0.42476478 
-0.24907021 -0.96549547 -0.07604356 
-0.11845936 -0.7732918 0.6228862 
-0.23957787 -0.55551904 0.7962419 
-0.6840043 -0.13572846 0.7167398 
-0.5486181 -0.49119112 0.67657197 
-0.6299498 -0.72670007 0.27398968 
-0.5490751 -0.8349123 -0.03792085 
-0.32757023 -0.37975088 -0.86515146 
0.33656335 -0.931898 0.13524525 
0.41782364 -0.8477771 -0.3266456 
0.09474905 -0.98798454 -0.1221032 
0.5557766 -0.81707984 0.153274 
0.11966965 -0.4963936 0.8598097 
-0.24164717 -0.55088246 0.7988336 
0.24600935 -0.59000003 0.7690119 
0.5122385 -0.8489448 -0.1300177 
-0.47224653 -0.87723666 0.086251095 
0.01576872 -0.6553414 -0.75516826 
-0.25556844 -0.45537984 -0.85282713 
0.15417072 -0.48264253 -0.86214125 
0.44750807 -0.2248358 -0.86555505 
0.58274627 0.118752904 -0.8039307 
0.7187731 0.074122034 -0.6912823 
0.8549584 0.31781194 -0.4099289 
0.76671016 0.6418696 -0.012615228 
0.06717597 0.28627518 0.9557897 
-0.5589051 0.5454287 0.62460595 
-0.41856 0.68333733 0.5982121 
-0.7406641 0.41129872 -0.53127205 
-0.87379116 -0.1396546 -0.46581727 
-0.81909096 -0.35150108 -0.45336193 
-0.59059906 0.1829185 -0.78596044 
-0.5173574 -0.5124671 -0.68536043 
-0.28455654 -0.5485921 -0.786177 
-0.49346253 -0.20976157 -0.8440942 
-0.62572205 -0.63173825 -0.45757923 
-0.33224824 0.82314026 -0.46049032 
-0.30430233 0.27081412 -0.9132688 
-0.26530948 -0.24766394 -0.931812 
-0.064889885 -0.9899648 -0.12553458 
-0.44772753 -0.554149 -0.7017543 
0.5984387 -0.64518076 -0.47498748 
0.9703477 0.18634123 0.15395601 
0.54477835 -0.8177369 -0.18580356 
-0.25967118 -0.59167033 -0.76321495 
-0.18375005 -0.67785466 -0.71186304 
0.40996727 -0.19827017 -0.8902897 
0.26753417 -0.09913047 -0.9584355 
0.8056091 -0.48016614 -0.34703684 
0.9776292 -0.12624057 -0.16823944 
0.6493711 -0.72749513 0.22151306 
-0.033084374 -0.9193255 0.39210472 
-0.21187235 -0.95770764 0.1946953 
-0.39294675 -0.8624462 0.31902897 
-0.6536975 -0.75340444 0.07114395 
-0.13104478 -0.9388978 0.31827384 
-0.2777672 -0.9193405 0.27867264 
-0.0979867 -0.5465135 -0.8316981 
0.31196895 -0.39192182 -0.8654899 
0.39533424 -0.6726916 -0.62545747 
0.2652079 -0.94681984 0.18220091 
-0.23251717 -0.96684784 0.10555137 
-0.44973457 -0.7875879 0.4212411 
-0.29650342 -0.9538434 0.04762824 
0.084107384 -0.98898035 0.121835455 
0.0133748995 -0.7351345 -0.6777894 
0.23824123 -0.58384717 -0.77612096 
-0.23428321 -0.4922299 -0.8383444 
-0.38591242 -0.23215546 -0.8928469 
-0.3987004 -0.82406497 -0.4024363 
-0.50500613 -0.56202507 -0.65505475 
0.21226183 -0.14220428 -0.96681064 
-0.10301023 -0.8527206 -0.5121098 
0.1754431 -0.60962576 -0.7730305 
-0.39711884 -0.8792505 -0.26308775 
-0.843324 -0.35769197 -0.40107518 
-0.7789401 -0.06303172 -0.6239227 
0.07652949 0.15736334 -0.984571 
-0.13944168 0.24285062 -0.95998937 
-0.5287676 -0.31457564 -0.7883192 
-0.155005 0.33246905 -0.9302891 
-0.40944684 0.28800368 -0.865683 
0.28792998 -0.09083654 -0.9533337 
0.6254327 0.6116241 -0.48451 
0.6548973 0.29221782 -0.69693494 
0.7570805 0.56741107 -0.3238424 
0.94730955 0.024737312 -0.31936294 
0.86513543 -0.26717943 -0.42444792 
-0.98617697 -0.13218033 -0.09991746 
-0.914951 0.123851836 -0.38409033 
-0.65616846 -0.31412202 -0.6861271 
-0.055991374 -0.18291534 -0.981533 
0.26519302 -0.74615365 -0.61067784 
-0.06378305 -0.9970852 -0.04186822 
-0.13744967 -0.9317402 -0.3361069 
-0.5142739 -0.16674441 -0.84126014 
-0.60792774 -0.17456686 -0.77456456 
-0.7036309 -0.48963895 -0.5149342 
-0.13560039 -0.9516964 -0.2754751 
-0.23262337 -0.8579564 -0.45803627 
-0.98117495 -0.19303332 -0.005833984 
-0.6220579 0.14537738 -0.7693566 
-0.13253865 -0.32787305 -0.9353785 
0.37946522 -0.3903873 -0.838811 
-0.26093987 -0.09575488 -0.9605943 
0.008513654 0.35515606 -0.93476826 
0.4231551 -0.14612883 -0.89419585 
-0.2562378 -0.36630732 -0.8945173 
0.022830151 -0.467968 -0.88345057 
0.06643219 -0.9967377 -0.045835055 
-0.44993544 -0.88832563 -0.091846995 
-0.43576297 -0.1767824 -0.88252974 
0.4863257 -0.7413854 -0.46242303 
0.42939517 -0.43061545 -0.79384524 
0.16360873 -0.9623856 -0.21690121 
0.29696888 -0.8935692 -0.33666533 
0.16928883 -0.9078121 -0.3836906 
0.1516067 -0.5215041 0.8396719 
-0.16203426 -0.9464479 0.27925143 
0.17578551 -0.8997068 0.39953372 
0.35407418 -0.52171475 0.77617353 
-0.3341092 -0.62817097 0.70268935 
0.4500367 -0.39056066 0.8030751 
0.31019515 -0.6018524 0.73590267 
0.45387477 -0.7746052 0.44043654 
0.37447235 -0.3101952 0.87381315 
-0.06553971 -0.90788543 0.41406372 
-0.38024718 0.15391901 0.9119874 
-0.3663832 -0.26139176 0.8929937 
-0.35771382 0.15139186 -0.9214778 
0.13738358 0.5643618 -0.81401575 
0.7033176 0.5228216 -0.481666 
0.67336303 0.24917702 -0.69605535 
0.28596574 -0.07957516 -0.95493007 
0.30624568 0.18620811 -0.9335631 
-0.23749933 -0.2930431 -0.92613167 
0.29897994 -0.38838017 -0.87164897 
0.15595363 -0.24775153 -0.95618916 
-0.0010671201 -0.99653786 -0.08313392 
-0.47182074 -0.85873497 -0.19989866 
-0.6092216 -0.14191951 0.7801973 
0.36611506 -0.16894092 0.91510594 
0.7927885 -0.6094888 0.0031340863 
0.6497279 -0.6451617 0.40202013 
0.15649056 -0.39706603 0.9043503 
-0.37621805 -0.569263 0.7310265 
-0.7030906 -0.71015537 -0.036647707 
-0.57302225 -0.8135799 -0.0986576 
-0.124470055 -0.9815127 0.14539619 
-0.7432389 -0.5952506 -0.3054057 
-0.51053315 -0.28768903 -0.810303 
0.36181283 0.48057097 -0.79883856 
0.39678633 0.44374314 -0.8035252 
0.11273 0.8268733 -0.5509743 
0.5386266 -0.087201424 -0.83801985 
0.44158888 -0.84036547 -0.31430113 
0.8540265 -0.5175894 0.05234421 
0.6619442 -0.5225242 0.53739977 
0.6077961 -0.2210786 0.76269794 
-0.10477179 0.06329178 0.99248034 
-0.077150255 0.082340665 0.99361354 
0.032652315 -0.20715496 0.9777632 
-0.39491335 -0.3909112 0.8314037 
-0.64494395 -0.015230327 0.7640782 
-0.20654348 -0.68681157 0.6968714 
-0.32749692 -0.07787749 0.94163734 
-0.21854424 0.19493237 0.9561589 
-0.063591495 -0.7499359 0.6584469 
-0.0524302 -0.9210629 0.38586843 
0.066504285 -0.6619199 0.7466186 
0.78946185 -0.4526608 0.4145457 
0.5705911 -0.69553137 0.43664864 
-0.2677623 -0.70545125 0.6562332 
-0.40439966 -0.007885519 -0.91454846 
-0.2824806 -0.30995366 -0.907818 
0.4500882 -0.21027659 -0.86787343 
0.16056123 -0.6131318 -0.77349174 
-0.16843002 -0.42844832 -0.88772935 
-0.6141982 -0.55708677 -0.55894095 
0.1598764 -0.9777608 -0.13573298 
-0.39082125 -0.90286744 0.17913426 
-0.5219775 -0.84999204 -0.07108492 
-0.6025657 -0.7978149 -0.020148685 
-0.7923041 -0.5855933 -0.17127411 
-0.31487912 -0.8468494 -0.42859936 
-0.37947997 -0.84209263 -0.38324302 
-0.0973373 -0.82331777 -0.5591721 
-0.5907489 -0.76276594 -0.26306644 
0.0066268663 -0.90931845 -0.41604826 
-0.47246227 -0.84835386 0.23890449 
0.20483714 -0.8293004 -0.5199062 
0.16583778 -0.20928694 -0.9636892 
0.7096536 -0.51356256 -0.4823333 
0.6810666 -0.3349407 -0.6511245 
0.6423754 -0.74461716 -0.18138129 
0.955268 -0.26982307 0.12107222 
0.42346987 -0.8668308 0.2632066 
0.35626677 -0.9264992 0.121133186 
-0.026832711 -0.69412315 0.719356 
0.25679016 -0.80416834 0.536071 
-0.76193327 -0.31901094 0.56363976 
-0.05667635 -0.90430814 0.42310137 
-0.03374022 -0.77939284 -0.62562656 
-0.30139482 -0.37736487 -0.8756466 
0.1696357 -0.98446196 -0.045369226 
0.42447585 -0.9018383 -0.08067148 
0.71168786 -0.628831 -0.3131644 
0.3310666 -0.6704546 -0.66399217 
0.4766355 -0.7291849 -0.49102753 
0.7584563 -0.6515996 -0.012733453 
0.36037052 -0.9248816 -0.12135584 
-0.31983957 -0.6124701 -0.7228991 
-0.2235308 -0.4378626 -0.8708101 
0.10866556 -0.096028425 -0.98942935 
-0.19455999 0.10346419 -0.97541875 
-0.008816307 -0.08477039 -0.99636155 
-0.17371055 0.1006997 -0.97963476 
0.035777237 -0.035082594 -0.9987439 
0.6730413 -0.3546524 -0.64902794 
0.07608209 -0.14486644 -0.98652184 
0.35550264 0.07866266 -0.93135935 
0.79760593 -0.5164311 -0.31164697 
-0.080326475 -0.27223548 -0.958872 
0.1249885 -0.056968007 -0.99052143 
-0.11430232 -0.7929611 -0.59845436 
-0.3668245 -0.100002676 -0.9248997 
-0.53579813 0.37486935 -0.7565669 
-0.8074303 0.037871454 -0.5887463 
-0.52013856 -0.09330869 -0.8489696 
0.6955419 0.24843863 -0.67416596 
0.850988 0.3201579 -0.41631523 
0.67693037 0.07112921 -0.7326022 
0.89871126 0.22933215 -0.3737981 
0.4391639 0.6795446 -0.5876684 
-0.0012500996 0.4059211 -0.91390735 
-0.648775 0.26124594 -0.71473193 
-0.8318819 -0.4743889 -0.28797168 
-0.7147383 -0.40012473 -0.5736283 
-0.54166085 -0.7557709 -0.36798647 
-0.30988637 -0.8643566 -0.39605322 
-0.03682178 -0.7537046 -0.6561811 
0.121447176 -0.9863543 -0.11115641 
0.11189567 -0.846329 -0.5207749 
-0.013089595 -0.1825994 -0.98310024 
0.4360597 -0.52690476 -0.7295364 
0.89388525 0.123648055 -0.43090644 
0.89766103 -0.36612076 0.24527603 
0.84964 0.026517807 0.5266961 
0.5954731 -0.12791002 0.7931273 
0.8610453 -0.08602616 0.50119907 
-0.31688267 -0.22513391 0.9213578 
-0.90993303 -0.3570134 0.21110064 
-0.2801758 -0.8273109 -0.48688632 
-0.33084035 -0.61242944 -0.71796584 
-0.30685657 -0.21097027 -0.92807895 
-0.34605688 -0.9129564 -0.21622933 
-0.08210759 -0.90615964 0.4148892 
0.01905054 -0.99093574 0.13297915 
0.41517147 -0.55950636 0.717346 
0.09618448 -0.9697136 0.2245087 
-0.1873495 -0.97547835 -0.11550828 
0.10232724 -0.939461 -0.32702035 
-0.43210375 -0.8495321 -0.30262434 
0.7555586 -0.6455419 -0.11138712 
0.54888797 -0.83147013 -0.085903496 
0.3731604 -0.8955268 0.24245213 
0.64602244 -0.70757806 -0.28633603 
0.5326605 -0.73399836 -0.42133054 
0.21646884 -0.7759206 -0.5925271 
0.32668382 -0.8544888 -0.40388936 
0.46637404 -0.80731577 0.36157525 
-0.0076553244 -0.99592215 -0.08989219 
-0.51831526 -0.6867509 -0.50962985 
0.103409156 -0.38675445 -0.9163666 
0.038413588 -0.17873186 -0.98314774 
0.33843836 -0.30015647 -0.8918327 
0.43642995 -0.33158165 -0.8364105 
0.7297686 0.4962922 -0.47024664 
0.33037066 0.5264625 -0.7833853 
0.4779754 0.7072645 -0.52088064 
0.4097829 0.50588316 0.75905234 
0.8229549 0.42699453 0.3747279 
0.09626291 0.36085606 0.9276402 
-0.15036592 0.6578824 0.7379573 
-0.7981269 0.5528904 0.23938584 
-0.97165716 0.20030884 -0.12553373 
-0.52262753 -0.060059566 -0.850443 
-0.21068722 -0.11087337 -0.97124565 
-0.74523467 0.098636754 -0.65946656 
-0.7746628 -0.076169394 -0.6277704 
0.02299819 0.24343379 -0.96964484 
-0.2862532 -0.08677996 -0.9542161 
-0.46905988 0.49690437 -0.73011565 
0.0649141 0.16570306 -0.984037 
0.064860635 -0.4315178 -0.8997697 
-0.24671246 -0.9654008 0.08446428 
-0.83678746 -0.4981234 -0.22728804 
-0.35066274 -0.68356127 -0.64014035 
0.067837074 -0.7385637 -0.6707621 
0.039687045 -0.51636547 -0.8554482 
0.09213615 -0.3664691 -0.9258572 
0.035512194 -0.82101315 -0.56980395 
-0.33241296 -0.18201482 -0.92540383 
0.521537 -0.36481005 -0.7713059 
0.88246334 -0.119040236 -0.45506924 
0.35286707 0.6262051 -0.6952353 
0.7083802 -0.3680146 -0.60229784 
0.48356444 -0.83955896 -0.24760097 
0.24355148 -0.89471155 -0.37439826 
-0.43349296 -0.7372668 -0.5181906 
-0.59926736 -0.6962289 -0.39515063 
0.032106034 -0.8829691 0.46833193 
-0.4391253 -0.83093053 0.3416483 
-0.19685422 -0.40828016 -0.89137864 
0.26413447 -0.36868513 -0.89123756 
0.085331604 -0.50746167 -0.85743886 
0.5681565 -0.466454 -0.677952 
0.13915654 -0.917482 -0.37264228 
0.5422268 0.2430914 -0.80429894 
0.91746825 -0.08347399 -0.38895264 
0.5318804 -0.8035246 -0.26730406 
0.53453547 -0.60952806 -0.58544636 
0.5150384 -0.75372374 -0.40821066 
0.49469104 -0.5332116 -0.68626976 
0.048240066 -0.6625445 -0.7474675 
0.21301462 -0.3841336 -0.8983686 
-0.470566 -0.4299312 -0.7705368 
-0.013042325 0.29990312 -0.9538806 
0.38223368 -0.33352256 -0.8617773 
-0.36381057 0.20840304 -0.90786016 
-0.21762931 0.22708231 -0.9492477 
-0.6080513 0.33087683 -0.72166073 
-0.41482642 0.36343455 -0.8341669 
-0.89742523 0.068246566 -0.43585584 
-0.6671255 -0.0067516402 -0.7449148 
-0.2459204 0.51469505 -0.8213478 
-0.38928345 0.55336654 -0.73637223 
-0.73970664 0.6359293 -0.22006372 
-0.7608192 0.26406342 -0.5928109 
-0.18894333 -0.03676103 -0.98129976 
0.6577981 0.24097387 -0.7136058 
0.56822175 0.4189147 -0.70826167 
0.6582202 -0.24015264 -0.7134936 
0.27599072 -0.22606568 -0.9341967 
-0.62359387 0.27235332 -0.73277175 
-0.058351368 -0.19929528 -0.97820073 
0.1943719 -0.5203307 -0.83155006 
0.11572825 -0.33751634 -0.93417865 
0.09740833 -0.40750596 -0.9079926 
0.050651435 -0.73145205 -0.6800091 
-0.02609143 -0.69977677 -0.71388495 
-0.6109564 -0.65292877 -0.44767895 
-0.26222447 -0.94027525 -0.21707325 
-0.56029916 -0.71116585 -0.42462698 
-0.6128133 -0.7886066 -0.050593935 
-0.9736309 -0.22596352 -0.031359583 
-0.99479026 -0.052244674 0.087537535 
-0.40742832 0.85872215 -0.3108029 
-0.97382534 -0.040762056 -0.22361305 
-0.0863304 -0.0323208 -0.9957422 
-0.12813462 0.07248726 -0.9891043 
0.7107931 0.1597534 -0.68501973 
0.15452875 -0.45088014 -0.87910646 
-0.3636901 -0.17869422 -0.91421986 
-0.3549831 -0.66337067 -0.658731 
-0.24196883 -0.7531668 -0.6117115 
-0.5180231 -0.8314887 -0.20069529 
-0.81775624 0.08033981 -0.56993014 
-0.1618754 -0.5719194 -0.80417943 
0.038806453 -0.5384353 -0.8417728 
0.043624513 -0.58179075 -0.8121677 
-0.1558733 -0.721083 -0.67508733 
0.24565668 -0.9589181 -0.14187711 
-0.25257874 -0.96708435 -0.030855311 
0.6873017 -0.39261612 -0.6111212 
0.88140756 -0.4518577 -0.1376427 
0.5466378 -0.8026469 0.23863225 
0.3077908 -0.7890146 0.5317149 
0.14830476 -0.43758112 0.8868645 
-0.0689628 -0.1944395 0.9784873 
-0.1999267 -0.56099164 0.80331665 
-0.75474846 -0.17449956 0.63238025 
-0.71199363 -0.5258992 0.46529052 
-0.7635909 -0.6407204 -0.08003957 
-0.7303795 -0.34883973 -0.587245 
-0.4841065 -0.41001326 -0.7730007 
-0.08730213 -0.4892112 -0.8677849 
0.69080025 0.18889858 -0.69793445 
0.91065407 0.19325982 -0.36518463 
-0.14659062 0.6819448 -0.71656305 
0.37640285 0.6650329 -0.645021 
-0.28764737 0.07516239 -0.95478255 
0.19814153 0.19006115 -0.96157 
0.94397336 -0.001085308 -0.33001995 
0.17455617 -0.9096594 0.37689537 
-0.20174482 -0.9277335 0.31402177 
-0.32483953 -0.62753516 0.70758677 
0.39680347 -0.73202455 0.55379343 
0.04355363 -0.9815476 0.18619192 
0.07109467 -0.9706311 0.22982767 
0.24743915 -0.9674553 -0.05295405 
-0.3801405 -0.9012233 0.20806225 
-0.061661456 -0.9974547 -0.035806008 
-0.68314254 -0.66500574 0.30180082 
-0.2591091 -0.948378 -0.18287061 
-0.8574888 -0.31345662 -0.40799275 
-0.5075162 0.40661716 -0.7596643 
-0.41038877 -0.0031083685 -0.91190547 
0.21364032 0.899073 -0.38213307 
0.43282434 0.69218075 -0.57753706 
-0.43305203 0.014762237 -0.9012481 
0.113912106 -0.87184465 -0.47635162 
0.5101638 -0.79286176 -0.33332148 
0.87202364 -0.056445956 0.48619825 
0.6922871 -0.33099568 0.64123356 
0.33668697 -0.5273033 0.7801239 
-0.1417161 0.26891553 0.95268095 
-0.17611131 -0.050112005 0.983094 
0.43300164 -0.35271218 0.8295202 
-0.04749791 -0.9567012 0.28717023 
0.45528042 -0.63101286 0.6281262 
-0.41397867 0.16699229 0.8948381 
-0.8105318 -0.05047987 0.5835153 
0.06220681 -0.95184404 0.30020532 
-0.06970274 -0.9919466 -0.105752535 
-0.33812654 -0.9349004 -0.107850015 
-0.07977006 -0.94791037 -0.30838716 
0.016294705 -0.8605705 -0.5090707 
0.017702969 -0.93577194 -0.35216147 
-0.57236826 -0.3293618 -0.75094306 
-0.2505465 -0.12545484 -0.95994145 
-0.1294256 0.1593309 -0.97870463 
0.13608216 -0.43904677 -0.88809896 
-0.18129355 -0.42958346 -0.8846416 
-0.23061663 -0.35166305 -0.9072757 
0.07560527 -0.18150575 -0.98047924 
-0.6797191 -0.6061824 -0.41294664 
-0.6926517 -0.59747773 -0.40404713 
-0.9175042 -0.3380419 -0.2095559 
-0.5346143 -0.7733439 -0.34077403 
-0.29892442 -0.73762554 -0.60543615 
-0.45694983 -0.86902225 -0.1897293 
-0.57550853 -0.8151403 -0.06585092 
-0.6379895 -0.56854147 -0.51935536 
-0.35590646 -0.6439679 -0.67722666 
-0.31123552 -0.92049426 -0.23626849 
-0.67889094 -0.70329815 -0.21090028 
0.06616753 -0.9059158 -0.41825658 
0.072054036 -0.949775 -0.30452564 
0.43317577 -0.8923628 -0.12667862 
0.5636007 -0.78729796 -0.25003248 
0.86900645 -0.31125224 0.38464248 
0.56100357 -0.43734866 0.7028522 
-0.08720585 -0.7640989 0.6391776 
-0.010409024 -0.90593785 0.42328262 
-0.49166837 -0.8294492 0.26509666 
-0.33699104 -0.8261907 0.45149314 
-0.5747176 -0.77240753 -0.27034476 
-0.09520655 -0.8496969 -0.51860505 
-0.48548785 -0.5359465 -0.6906975 
0.43878883 -0.36636573 -0.82051235 
0.3828568 -0.88231355 -0.27375805 
0.403552 -0.8690856 0.28607005 
0.6270711 -0.59155196 0.50680184 
0.019491475 -0.7423416 -0.66973805 
0.2906698 -0.805449 -0.5164911 
0.28733206 -0.93940604 -0.18696678 
0.44616005 -0.36190122 -0.8185162 
0.05626268 0.07523137 -0.99557763 
-0.08958993 -0.39799547 -0.9130023 
-0.032742664 0.19586207 -0.9800847 
0.22143634 0.46157825 -0.8590178 
0.18670131 -0.34635535 -0.91933703 
0.18843307 -0.18549983 -0.96440804 
-0.20588492 -0.50351185 -0.8390991 
0.22464101 -0.26742378 -0.9370278 
-0.06953095 0.07670705 -0.99462634 
0.49567392 -0.17986014 -0.849681 
0.24151315 -0.10978376 -0.9641675 
0.85567594 0.19354326 -0.47995815 
0.5345197 -0.2351589 -0.81178147 
0.819577 0.072974645 -0.5683029 
0.20579574 0.695498 -0.68842626 
-0.2336726 0.2304587 -0.94460887 
-0.19054767 -0.27902275 -0.9411897 
0.42581004 -0.2819154 -0.85977304 
0.1670318 0.8343346 -0.5253438 
0.52055013 0.68344706 -0.5117888 
0.8850482 0.4354624 -0.16450593 
-0.27573803 0.8602311 -0.42891827 
-0.341842 0.74303055 -0.5753693 
-0.38808542 0.27029938 -0.88109475 
0.19841476 -0.24894746 -0.9479751 
-0.4258094 -0.4761849 -0.76937276 
0.33184084 -0.7055263 -0.62619036 
-0.44063842 -0.7542568 -0.48675913 
-0.503548 -0.22266924 -0.8347801 
-0.7509381 0.045574132 -0.6587982 
-0.56846184 -0.452841 -0.68686694 
-0.11923427 -0.24396083 -0.9624273 
0.19800788 -0.6034493 -0.77242607 
0.6826624 -0.6458858 -0.34176555 
0.7736191 -0.61854243 -0.13754569 
0.36361498 -0.9045585 0.22261661 
0.7390735 0.65688515 0.1492394 
0.82514787 -0.5347048 0.1822686 
-0.8732878 0.065863416 0.4827324 
-0.5284797 0.0338372 -0.84827137 
-0.443993 -0.2653367 -0.85584277 
-0.2665076 0.31268287 -0.91170347 
-0.18486257 -0.7254254 -0.6630113 
0.19535325 -0.46298963 -0.864568 
0.6362793 -0.5994142 -0.48564535 
0.66342044 -0.42004168 0.61922395 
-0.0032299312 -0.95538867 -0.29533392 
-0.40982628 -0.885987 -0.21695536 
0.30276763 -0.813405 -0.49669328 
0.13547114 -0.9769435 -0.1650122 
0.27214202 -0.8376121 -0.47365043 
0.6740977 -0.5070318 -0.5371322 
0.08665979 -0.11502733 -0.989575 
0.4822229 -0.28486952 -0.8284386 
0.86597127 -0.33111805 -0.37477297 
0.42708924 -0.75157803 -0.502718 
0.6106086 -0.38040915 -0.69458336 
0.538862 -0.671637 -0.5084601 
0.533626 -0.7587155 -0.3736232 
-0.35811824 -0.55738115 -0.7490512 
0.08705849 -0.51921797 -0.8501962 
0.38139176 0.19146124 -0.90436876 
-0.27807358 -0.6132014 -0.739364 
-0.07503356 0.21679524 -0.97332925 
0.27892488 0.4942495 -0.823358 
0.46592316 0.86724347 -0.17551161 
-0.087228864 0.78981966 -0.60710454 
0.15990956 0.82489824 0.54219174 
0.45833075 0.16753198 0.87284935 
0.3273665 0.5982597 0.73138 
-0.16735728 0.59926474 0.78286225 
0.17537461 0.3393137 0.92418075 
-0.5590733 0.24664956 0.7915814 
-0.955935 0.02968016 -0.2920742 
-0.9376795 0.029690644 -0.3462306 
-0.5762114 0.27326185 -0.7702652 
-0.67173207 0.4094376 -0.617363 
-0.76371396 0.0436976 -0.64407426 
-0.8616447 0.34456933 -0.37261313 
-0.9671598 -0.04161328 -0.2507394 
-0.9702727 -0.21449448 0.11208546 
0.022542933 -0.8400604 -0.5420243 
-0.61371815 -0.10383634 -0.78266734 
-0.8382444 -0.279159 -0.4684195 
-0.84954095 -0.17736617 -0.4968113 
-0.32160878 -0.8344189 -0.44756353 
-0.09864044 -0.73527825 -0.6705491 
-0.7476701 -0.49685973 -0.44059026 
0.11928099 -0.8384415 -0.53177816 
-0.33101937 -0.8387074 -0.43243045 
-0.46459454 -0.65252864 -0.5986304 
0.019122142 -0.22542766 -0.9740723 
0.14855506 -0.72878826 -0.6684303 
0.15676866 -0.8416738 0.5167289 
0.0013677918 -0.44187748 -0.89707434 
0.120488666 -0.28948146 -0.94956994 
-0.29419196 -0.78009486 -0.5521804 
-0.47950315 -0.4130819 -0.77423525 
-0.47767136 -0.78158355 -0.40119493 
-0.6816611 -0.5127861 0.5219086 
-0.18776307 -0.85083646 -0.49073654 
-0.58615106 0.5855779 -0.5599335 
0.27411717 -0.26509622 -0.92443705 
0.63372415 -0.12721652 -0.76302665 
0.44327554 -0.67651606 -0.5880755 
-0.29698452 -0.22973369 -0.92683476 
0.44400007 0.18103054 -0.8775489 
0.037557077 0.0812879 -0.9959828 
0.25884295 0.03559852 -0.96526325 
0.40086785 0.079180725 -0.91270775 
-0.591984 -0.2687464 -0.75982267 
0.100278385 -0.36619097 -0.9251208 
0.35609117 -0.577858 -0.73435634 
0.48497888 -0.4920191 -0.7229887 
0.31915942 -0.054839257 -0.94611317 
0.13641532 0.36719772 -0.9200852 
0.51661783 -0.16539589 -0.8400895 
0.5895233 0.24342257 -0.77019984 
0.29915848 0.309984 -0.902449 
-0.24992521 0.6244022 -0.7400401 
-0.29599473 0.033338975 -0.95460767 
-0.88412374 0.041463494 -0.46540943 
-0.36858562 0.390383 -0.84365034 
0.34892783 0.27125257 -0.8970349 
-0.45972145 0.70688933 -0.5375534 
-0.90617025 0.3068786 -0.29100034 
-0.5896469 0.6515037 -0.47734642 
0.36818418 0.6687466 -0.6459245 
-0.18623048 -0.22063123 -0.9574133 
-0.45023036 0.29272625 -0.8435663 
0.4447221 0.025188502 -0.89531446 
0.1880994 0.16958009 -0.96739924 
-0.5754082 0.053958576 -0.8160845 
0.020777546 0.304255 -0.95236397 
0.24291511 -0.6410762 -0.72802037 
0.026125018 -0.7849644 -0.6189899 
0.3346614 -0.85283256 -0.40084726 
-0.5702757 -0.45689014 -0.6826691 
-0.054481216 -0.6368471 -0.7690629 
-0.57632244 -0.62769645 -0.5233065 
0.050719716 -0.9313272 -0.36063442 
-0.44634613 -0.5727949 -0.6875182 
-0.17524403 -0.5343997 -0.8268655 
-0.87650484 -0.045737427 -0.47921544 
-0.1303397 -0.5622745 -0.81661445 
-0.7450433 -0.4268701 -0.51253545 
-0.61763054 -0.09933767 -0.78016967 
-0.009662867 0.012556999 -0.99987453 
0.08639344 0.026314287 -0.9959135 
0.2850561 0.2727325 -0.91889066 
0.6932517 -0.38899767 -0.6066984 
0.1826339 -0.15984724 -0.9700999 
-0.011828179 0.28936416 -0.9571461 
0.14912999 -0.021919658 -0.9885747 
0.97145194 -0.21436067 -0.10164006 
-0.5403278 -0.2045019 -0.81622607 
0.03534136 -0.043061767 -0.9984472 
0.46594647 -0.81071556 -0.35444936 
0.075606674 -0.9762173 -0.20318314 
0.24164583 -0.94104487 -0.23673196 
0.09521903 -0.9012763 -0.42265186 
-0.14952256 -0.8232733 -0.5475986 
0.12926751 -0.8699708 -0.47585797 
0.81693214 -0.53813154 -0.20745184 
0.8084513 -0.5874831 0.035641022 
0.28859982 -0.81598943 0.5008707 
0.08547604 -0.6517887 0.7535685 
-0.19963393 -0.9766921 0.078860685 
-0.66093785 -0.5225882 0.53857476 
-0.48873833 -0.80757606 0.33008447 
-0.43036556 -0.88807863 -0.16156064 
-0.9085311 -0.40438288 -0.10509869 
-0.80891633 -0.048753045 -0.58589894 
-0.83914566 -0.09103546 -0.5362343 
-0.104704134 0.1745776 -0.97906065 
0.13435343 -0.30228007 -0.9437033 
0.2917469 0.23156697 -0.9280413 
0.24847816 0.4864064 -0.8376559 
0.36320335 0.14514063 -0.92033553 
0.47149423 -0.4148996 -0.77817196 
0.47326213 -0.36633173 -0.80113924 
0.39810717 -0.74967456 -0.5286765 
-0.32868168 -0.9273732 0.17873856 
-0.0954228 -0.9946164 0.040407516 
0.07638446 -0.98279434 -0.1681687 
-0.03492905 -0.7257316 -0.68709075 
0.023471387 -0.96774316 0.2508432 
0.10502742 -0.84465444 0.5249077 
-0.25626737 -0.96610105 -0.031238453 
-0.42622605 -0.78189516 -0.4549409 
-0.48454332 -0.747947 -0.45364442 
-0.5500852 -0.7791001 -0.30068147 
-0.82131606 -0.46568754 -0.32950747 
-0.885027 -0.12782018 -0.4476488 
-0.5172704 -0.003899153 -0.8558132 
0.042939406 0.7989495 -0.59986323 
0.53063565 0.8469342 -0.033591744 
-0.04241709 0.74676186 0.66373765 
-0.4687785 0.8592994 0.20457564 
0.2957081 -0.9440854 -0.14580703 
0.22387132 -0.9651006 -0.13587727 
0.5937171 -0.5634532 0.5744743 
0.25874108 -0.7631443 0.59216875 
0.2847895 -0.83261365 0.47502583 
-0.28233543 -0.7390756 0.61159956 
-0.11158635 -0.19950135 0.9735234 
0.10442176 -0.7089868 0.69744813 
-0.29289824 -0.8967286 0.33179584 
-0.26402003 -0.78061575 0.56650907 
-0.5786919 -0.6800715 0.45013183 
-0.92777294 -0.1389941 0.34629202 
-0.74406815 -0.66526955 -0.06147342 
-0.47926667 -0.6384972 -0.6021834 
-0.46452966 -0.6488778 -0.60263574 
0.28197238 -0.85911244 -0.42710346 
0.059947643 -0.037103772 -0.9975117 
-0.09684765 -0.45756218 -0.88388777 
-0.746959 -0.0039232955 -0.66485864 
-0.26617977 0.34109467 -0.9015557 
0.04471068 -0.2831577 -0.95803064 
-0.3389721 -0.21846622 -0.91507953 
0.18474801 0.4421979 -0.87768406 
0.12863666 0.8408891 -0.52569777 
0.17431875 0.41745263 -0.89182186 
-0.33012944 -0.2736405 -0.9034022 
0.08567151 -0.20462757 -0.9750836 
-0.024480764 0.43953276 -0.8978929 
0.22915503 0.21103474 -0.9502381 
0.18511589 0.038908668 -0.9819461 
-0.14854313 -0.7581178 -0.63497436 
-0.58905417 -0.7751058 -0.22853065 
-0.7551333 -0.3827702 -0.5322224 
0.113922074 -0.901887 -0.41667944 
0.40270573 -0.85418946 0.32892048 
-0.16332363 -0.96671295 -0.19695553 
-0.028331835 -0.99536604 -0.09189076 
-0.06419258 -0.5802019 -0.8119391 
-0.4737836 -0.59077156 -0.6530835 
-0.036585078 -0.53464484 -0.84428465 
0.33763063 -0.7614553 -0.55334556 
0.018902095 -0.9427465 0.3329744 
-0.20400277 -0.9703669 -0.12950322 
0.16773494 -0.8892152 -0.4256307 
-0.10385862 -0.9726404 -0.20780772 
-0.020089975 -0.9856331 -0.1677016 
-0.041874986 -0.09434341 -0.99465865 
0.088729896 -0.2291051 -0.9693492 
-0.3635009 -0.41607526 -0.8335157 
0.41469127 -0.30937782 -0.8557549 
0.2451389 -0.9362017 -0.2518596 
0.17440748 -0.9834303 0.04946715 
-0.35782886 -0.89424783 0.2688482 
-0.5455834 -0.3514604 -0.76079845 
-0.64354813 -0.08145591 -0.761059 
-0.46726745 -0.53852993 -0.7011753 
-0.41105697 -0.12465098 -0.9030472 
-0.117840506 0.22964628 -0.966114 
-0.905426 -0.090929985 -0.41465104 
-0.22066523 -0.386649 -0.89543813 
-0.07453036 0.123948835 -0.98948574 
0.14493313 0.08940221 -0.9853941 
0.45943117 -0.36462107 -0.80992246 
0.032566436 0.003813219 -0.9994623 
0.029383348 -0.2837093 -0.9584601 
0.32597613 -0.35726917 -0.8752704 
0.6321455 0.123532474 -0.7649392 
0.11506257 -0.29749778 -0.9477635 
0.40765065 0.5606984 -0.7207207 
0.64464337 -0.084930405 -0.75975114 
0.41402724 0.5687308 -0.7107228 
0.58857477 0.052210983 -0.8067551 
-0.3450404 0.58266234 -0.7358341 
-0.72415584 -0.022792296 -0.6892597 
0.21319225 0.45008388 -0.8671641 
-0.17029224 0.4449693 -0.8792058 
-0.0079041105 -0.048111867 -0.99881077 
0.38736045 0.73274547 -0.55949616 
0.10634124 0.96144027 0.253622 
0.30758402 0.950609 -0.041649334 
-0.08434797 0.76492375 -0.63857436 
0.029373247 0.34531116 -0.9380286 
-0.66239965 -0.48926926 -0.5673116 
0.08531149 -0.1851647 -0.9789975 
-0.33713973 -0.30411732 -0.8909823 
-0.5653761 -0.546183 -0.61808914 
-0.4762112 -0.7088668 -0.520318 
-0.17809136 -0.31111285 -0.93353754 
0.4338356 0.42763817 -0.7930399 
0.5462588 -0.27673054 -0.79058313 
0.08077336 0.4693634 -0.87930304 
0.8260979 0.5018883 -0.25626245 
0.3071086 -0.876914 0.36973807 
0.9556905 -0.04065161 0.29155323 
0.8628723 0.27247173 0.42568845 
-0.98778373 -0.0983068 -0.12090914 
-0.5006416 0.07955212 -0.8619917 
0.1298042 -0.11116163 -0.9852888 
0.08036183 -0.17551923 -0.9811906 
-0.2431474 -0.41738424 -0.8755968 
0.2586765 -0.49550357 -0.82919407 
0.6643518 -0.5382539 -0.51857454 
0.71861833 -0.57733756 -0.38764572 
0.014113349 -0.8120595 -0.5834039 
0.052918896 -0.58778757 -0.8072828 
-0.17594306 -0.68979484 -0.7023013 
-0.32553232 -0.6748319 -0.66229194 
0.25909942 -0.83642447 -0.48297188 
-0.35757765 -0.7808515 -0.5122588 
0.38485405 -0.39565992 -0.833871 
0.5444587 0.52077353 -0.65754074 
0.62057173 -0.08789999 -0.7792076 
0.25328475 -0.7841553 -0.56652206 
0.4673647 -0.8808498 -0.07532481 
0.0015555122 -0.24687769 -0.9690454 
0.18194069 -0.62829244 -0.7564035 
-0.0877848 -0.7013984 -0.70734304 
-0.30769804 -0.91268533 -0.26893795 
-0.23251562 -0.4299715 -0.87238824 
0.5330252 -0.42667806 -0.7306367 
0.23585127 0.07998615 -0.9684919 
0.1659098 0.58808887 -0.7915968 
0.5377421 0.8084828 -0.23914222 
-0.19789258 0.91749346 -0.3450278 
0.43074465 0.7521448 0.4987356 
0.52797544 0.05515639 0.8474667 
0.36737686 0.36788756 0.85422075 
-0.21625479 0.32764262 0.9197197 
0.32387292 -0.06948553 0.94354546 
-0.18504062 -0.16613361 0.96858644 
-0.84487486 -0.5348541 0.010850867 
-0.9313153 0.1367753 0.3375566 
-0.96109384 0.13350634 0.2418153 
-0.785952 0.50821745 -0.35212865 
-0.8801521 -0.40015554 0.25535816 
-0.727205 -0.559174 -0.39811733 
-0.8532933 -0.3962985 -0.3388776 
-0.5099769 -0.83802277 -0.19401401 
-0.73357487 -0.63812023 -0.2338174 
-0.22657587 -0.083763845 -0.970385 
-0.1458359 -0.07661297 -0.98633784 
-0.38059112 0.16032405 -0.91073954 
-0.16543119 -0.36044413 -0.9179938 
-0.5737485 -0.6070515 -0.54981923 
0.109200634 -0.34665164 -0.93161577 
-0.36803055 -0.762779 -0.5317158 
-0.47109988 -0.7366392 -0.48520884 
0.31651008 -0.56665945 -0.7607355 
0.75375366 -0.42523646 -0.5010285 
0.088606015 -0.34247416 -0.9353398 
-0.27776632 -0.9572873 -0.08029303 
-0.50341445 0.0042318827 -0.86403483 
-0.16386467 -0.6012609 -0.7820702 
-0.14487913 -0.59541786 -0.7902454 
-0.2029022 -0.7229245 -0.66046274 
-0.51790196 -0.6168781 -0.59265417 
-0.7585014 -0.6444898 -0.09648045 
-0.3998437 -0.45691448 -0.79457814 
-0.37111923 0.89739794 -0.23863657 
-0.04435886 0.059485257 -0.99724317 
0.63385695 -0.3169202 -0.7055402 
0.7306542 0.09155301 -0.6765816 
0.15728292 0.43291935 -0.88760525 
0.43407473 0.7535789 -0.49365768 
0.031785756 -0.08439075 -0.99592566 
0.022346267 -0.7752635 -0.6312425 
0.13077305 -0.20020941 -0.9709865 
0.41138825 0.06820406 -0.9089049 
0.33492744 -0.5851503 -0.7385274 