# OOMMF: rectangular mesh v1.0
# Segment count: 1
# Begin: Segment
# Begin: Header
# Desc: Time (s) :  5.140000000000007e-07
# Title: m
# meshtype: rectangular
# meshunit: m
# xbase: 2e-09
# ybase: 2e-09
# zbase: 5e-10
# xstepsize: 4e-09
# ystepsize: 4e-09
# zstepsize: 1e-09
# xmin: 0
# ymin: 0
# zmin: 0
# xmax: 1.024e-06
# ymax: 1.024e-06
# zmax: 1e-09
# xnodes: 256
# ynodes: 256
# znodes: 1
# ValueRangeMinMag: 1e-08
# ValueRangeMaxMag: 1
# valueunit: 
# valuemultiplier: 1
# End: Header
# Begin: Data Text
-0.54824835 -0.6939036 0.46682072 
-0.66236204 -0.3217455 -0.676577 
-0.54758334 -0.45849228 -0.6999553 
-0.9987835 -0.043599132 0.023033582 
-0.7526573 -0.65689903 0.044618603 
-0.6406169 -0.76028925 -0.10756512 
-0.71281916 -0.59283537 -0.3747467 
-0.1546491 -0.75935626 -0.6320299 
-0.017480398 -0.99901634 0.04075458 
-0.030676365 -0.84371376 -0.53591615 
0.23362222 -0.5681426 -0.78907216 
0.37556195 -0.9266947 0.013791624 
-0.12324638 -0.583234 -0.8029 
0.12861697 -0.057987988 -0.9899975 
0.7322618 -0.66061634 -0.16546564 
-0.047837347 -0.9115643 -0.4083653 
0.5370404 -0.054995224 -0.8417619 
0.60793066 -0.62151766 -0.4941014 
-0.3973897 0.14021473 -0.9068744 
-0.33492216 -0.46717724 -0.8182742 
0.019545643 -0.30313134 -0.9527484 
0.27218568 0.5001103 -0.8220734 
-0.50464356 0.11901676 -0.8550848 
-0.9896943 -0.08007112 -0.11871794 
-0.98919034 -0.023604646 -0.14472519 
-0.81609243 -0.5408135 -0.20374966 
-0.5250964 -0.49355653 -0.6933079 
-0.74418116 -0.38874832 -0.5432028 
-0.056223273 -0.9709316 -0.23266023 
0.474874 -0.86169636 -0.17881295 
-0.31759965 -0.45799303 -0.83028483 
0.27399606 0.14128073 -0.95129704 
0.8648845 0.4122366 -0.28641894 
0.91942 -0.23608163 -0.31453514 
0.6779787 -0.08213689 0.7304782 
-0.34780455 -0.3000053 0.88827306 
-0.76823676 -0.06362426 0.6369963 
-0.89612544 -0.4437617 -0.0059047304 
-0.69162214 -0.69113106 0.20975386 
-0.7044548 -0.6020846 -0.3758159 
-0.31735057 -0.5294721 -0.7867325 
-0.24953191 -0.8160582 -0.5213281 
0.09760881 -0.92666656 -0.36298996 
-0.3426839 -0.86951244 -0.35569066 
0.48287147 -0.8395016 0.2491432 
-0.49078006 -0.6608187 -0.5678501 
-0.47973666 -0.7844998 0.3929538 
-0.18977715 0.16477102 0.9679025 
-0.655322 0.3244072 0.6821386 
-0.33138874 -0.5227434 0.7854432 
-0.8092965 -0.27032182 0.5215031 
-0.19069974 -0.8978237 0.39692104 
-0.24435908 -0.96512467 0.0939316 
0.3255172 -0.93349797 -0.1504002 
0.92186797 0.19758853 0.33334395 
0.30243802 0.5735673 0.76128304 
-0.6960132 0.41808882 0.5837529 
-0.7656921 -0.23337269 -0.59937704 
-0.9503623 -0.21463065 0.22526704 
-0.93696654 -0.24693963 -0.24721377 
-0.7762484 -0.13232318 -0.61638385 
-0.47827125 -0.81265706 -0.33293417 
0.42182678 -0.85653895 -0.29732695 
0.1673203 -0.94291043 0.28796524 
0.4544158 -0.8509859 0.26330465 
0.6539847 -0.7549366 0.048730996 
0.8966365 -0.4359534 -0.07738035 
0.06629182 -0.9921333 -0.10619289 
-0.2732052 -0.78096926 -0.56164587 
-0.82757777 -0.20708135 -0.521759 
-0.39060843 -0.60112333 -0.6971915 
-0.42881766 -0.6022296 -0.67337584 
-0.3436644 -0.15448602 -0.92629856 
-0.6179627 -0.21656758 -0.7557914 
-0.8137378 0.35869023 -0.4573534 
-0.4805733 -0.66641444 -0.57003605 
-0.6219239 -0.7785525 0.08406359 
0.09374218 -0.9944845 0.047042698 
-0.8154784 -0.23129386 -0.5305641 
-0.49048984 -0.62366956 -0.6086511 
-0.01616105 -0.8763438 -0.48141515 
-0.43379226 -0.262737 -0.8618547 
0.46527162 -0.277765 -0.84045756 
-0.16280723 -0.6983069 -0.6970375 
-0.50238436 -0.8613592 -0.07530141 
0.061272852 -0.7935547 -0.6054061 
0.4837575 -0.7030589 -0.5212359 
0.66355646 -0.7031457 0.25549778 
0.6622778 -0.6965252 0.27611738 
0.6654897 -0.63807034 -0.38728508 
0.01701795 -0.97793865 -0.20819828 
0.83959407 -0.54042524 -0.054976203 
0.5886314 -0.8005405 0.112464055 
0.13583143 -0.43170014 0.8917314 
0.18135026 -0.5924397 0.78493774 
-0.3528335 -0.4357644 0.82802045 
-0.78110856 0.42855173 -0.45410663 
-0.26360533 0.90045035 -0.34597898 
-0.91423845 0.29452235 0.27825287 
-0.9105791 0.23695655 0.3386701 
-0.9905395 0.004265615 0.13716191 
-0.36547008 -0.067759916 -0.92835355 
-0.279909 -0.6717957 -0.68581444 
0.43483678 -0.18141344 -0.88204664 
0.5238782 -0.029670974 -0.85127634 
0.49453786 -0.8659959 0.07405044 
0.2760886 -0.41065234 0.86898774 
0.47928187 -0.36390746 0.7986616 
-0.34760234 -0.40236494 0.84692097 
-0.15302369 -0.7395093 0.65552264 
-0.33683792 -0.9403143 0.048468236 
0.0043619657 -0.7396919 -0.6729316 
0.80993754 -0.41343623 -0.41601875 
0.78166676 -0.5815939 -0.22526842 
0.911678 0.27215737 0.30785337 
0.3723321 0.6872505 0.6237432 
0.9431069 -0.29359967 -0.15604028 
0.19510905 -0.20032497 0.9601055 
-0.13004728 0.22616825 0.9653682 
-0.8397086 0.5401319 0.05609806 
-0.9108977 0.2999881 -0.28332415 
-0.5113953 -0.82833785 -0.2287605 
-0.7618467 -0.62493783 -0.17041829 
-0.5257227 -0.85032165 0.023850618 
-0.6229224 -0.705933 -0.33708504 
-0.18373816 -0.61262494 -0.7687204 
-0.3428644 -0.31048262 -0.88659155 
-0.0047494806 -0.7925639 -0.6097705 
0.20909888 -0.790432 -0.5757562 
-0.14024615 -0.9806205 -0.13680103 
0.008383112 -0.9925004 -0.12195376 
0.2680906 -0.9455028 -0.18480246 
0.5730589 -0.818518 0.040398806 
0.9021574 -0.3252025 0.2834701 
0.9462088 -0.28818494 0.14710027 
0.5836997 -0.51798326 0.62529033 
0.3410761 -0.593535 0.7289604 
-0.2254559 -0.76198035 0.6070878 
-0.25407824 -0.89196855 0.3739472 
-0.4492803 -0.8703189 0.20172322 
-0.61576027 -0.6528074 0.4412276 
-0.068289645 -0.5947128 -0.8010326 
-0.09332037 -0.6859731 -0.7216179 
-0.2572714 -0.31706274 -0.9128432 
0.027718518 0.34602007 -0.9378176 
0.51588047 -0.24283482 -0.82152224 
0.2991399 0.42942 -0.8521232 
0.2738871 -0.1141596 -0.9549626 
0.30141073 0.8475334 0.4368508 
0.96067446 -0.20849605 0.1833957 
0.40768525 0.11810582 0.9054522 
0.5764983 -0.26772183 0.77199405 
0.40933168 -0.56283265 0.71809965 
0.4586895 -0.8053089 -0.3756084 
0.3372449 -0.8696344 0.36055773 
0.43132904 -0.57531846 0.69495606 
0.55109686 -0.665648 0.50319487 
0.30973986 -0.7720823 0.55493253 
0.15718432 -0.98415923 0.08199819 
-0.23473202 -0.71093273 0.66292953 
-0.48842263 -0.4921452 0.72058064 
0.0072897277 -0.6293952 0.77705127 
0.43814796 -0.80477935 0.4004455 
0.20234258 -0.66317147 -0.72059774 
-0.12062139 -0.41120407 -0.9035274 
0.67277384 -0.19644465 -0.7132916 
-0.074731246 -0.5707838 0.81769264 
-0.08188045 -0.95450276 0.28674042 
-0.65734184 -0.6117972 0.44000676 
-0.7671404 -0.61567754 -0.18010227 
-0.96313035 -0.19027328 0.1901999 
-0.75606513 -0.4366726 -0.48752707 
0.001089666 -0.7738315 -0.6333906 
0.32216543 -0.9460338 -0.03506419 
0.28418118 -0.9524062 -0.11028871 
0.20947824 -0.8344015 0.50979716 
0.17532222 -0.97121793 0.16123888 
-0.2785684 -0.75770676 0.59015274 
0.09827176 -0.7172198 -0.68988293 
-0.4579596 -0.35435843 -0.8152934 
-0.25673237 -0.13187444 -0.95744336 
0.86472213 -0.35321516 -0.357064 
0.5077142 -0.5972771 -0.6208756 
0.37501827 -0.213432 -0.90211314 
0.4138676 -0.30216774 -0.85872483 
0.17372759 -0.85397035 -0.4904623 
0.6084018 -0.783261 0.12786564 
0.8362007 -0.54835296 -0.0088053 
0.9216693 -0.273531 0.2751484 
0.8732645 0.39206335 -0.28930175 
0.8541246 -0.4701103 0.22241272 
-0.0700087 -0.4580436 0.8861686 
-0.33014408 -0.742381 0.58298844 
0.109211564 -0.99391717 0.014195333 
-0.1226456 -0.79290116 0.5968802 
0.25542343 -0.9396611 0.22758697 
-0.023380741 -0.9813112 0.19100182 
-0.21059147 -0.9697931 -0.123096436 
0.75809085 -0.62350845 -0.19114237 
0.97220784 -0.22494704 -0.064891435 
0.79181135 -0.18269947 0.58280003 
0.9902949 -0.13811809 0.015478252 
0.504259 0.56884575 0.649721 
0.0464115 -0.070373215 0.9964405 
0.107924215 -0.5915921 0.79898137 
-0.31241712 0.04268063 0.94898576 
0.05873532 -0.9917307 -0.11410715 
-3.4304754e-05 -0.5455955 -0.83804876 
0.66868985 -0.7408616 -0.0630723 
-0.35717553 -0.61517155 0.70284396 
-0.6086627 -0.783503 0.12511165 
-0.9936484 -0.11251681 -0.0017022039 
-0.76725703 -0.11649257 -0.6306713 
-0.6422341 -0.009945006 -0.7664441 
0.77144694 0.037515603 -0.6351868 
0.09850083 -0.40683195 -0.9081769 
0.57451814 -0.44231611 -0.6886838 
-0.55970204 -0.77668357 -0.28895733 
-0.09644649 -0.9853287 -0.14080314 
0.5458609 -0.63168913 -0.5504587 
0.35762084 -0.69125825 -0.62790877 
0.54442155 -0.7646519 -0.34483704 
0.87240463 -0.38427857 -0.30205983 
0.5250489 -0.74485976 -0.4117131 
-0.507674 -0.68486 0.52271783 
-0.043788735 -0.37616435 0.92551774 
-0.0693291 -0.69789547 0.7128362 
0.26553202 -0.8210412 0.5053554 
-0.25513393 -0.38963714 0.8849236 
-0.08209476 -0.03579081 0.99598175 
-0.4611545 -0.10145231 0.881501 
0.64967096 -0.22492906 0.7261781 
-0.28655845 -0.677377 0.67752844 
0.033725012 -0.037768327 0.99871737 
-0.7664643 -0.067167774 0.6387653 
-0.8732852 -0.0007095103 -0.48720908 
-0.640414 -0.4419423 -0.6281377 
-0.49193802 -0.11354571 -0.86319435 
-0.7090385 -0.041389305 -0.7039541 
-0.4621326 -0.45797995 -0.7593998 
-0.884186 -0.46420968 -0.052197218 
-0.48865703 -0.18530585 -0.8525703 
-0.83658767 0.25862762 -0.4829418 
-0.07178538 -0.37624916 -0.9237335 
-0.5920709 -0.6711777 -0.44606343 
-0.104965754 -0.9396109 0.32575068 
-0.21842629 -0.45910385 0.86111194 
-0.47054315 -0.08767936 0.8780099 
-0.81975025 -0.53805393 0.19623348 
-0.46196735 -0.88282675 0.08487151 
-0.15225545 -0.8826482 0.44469142 
-0.6253705 -0.4915666 -0.6060315 
0.21713665 -0.09663447 -0.9713462 
0.23005413 -0.61716425 -0.75245154 
-0.8871995 -0.3646159 -0.2827232 
-0.43344653 -0.9011727 0.0034369726 
-0.94172406 -0.30668658 -0.1382 
-0.43400642 -0.41513172 0.79956496 
-0.45783204 -0.81921875 -0.34535557 
-0.6312349 -0.7516634 -0.19116694 
-0.7302753 -0.4876138 -0.47846723 
-0.24123065 -0.16572273 -0.95621324 
-0.6416591 -0.084719874 -0.7622967 
-0.24958716 -0.66446453 -0.70440984 
-0.21062468 -0.83660173 -0.5057022 
-0.089192785 -0.6155474 -0.7830365 
0.15821128 -0.3212381 -0.9336892 
-0.17254911 -0.57299757 -0.8011871 
-0.64517325 -0.35145414 -0.6784037 
-0.22466168 -0.27251378 -0.93555516 
-0.04648094 -0.35794663 -0.9325844 
0.5190507 -0.5523925 -0.6522645 
0.52206284 0.026529046 -0.85249436 
0.66003597 -0.58577937 -0.47033522 
0.28343615 -0.09563255 -0.95421094 
-0.61263686 0.55428874 -0.56341827 
-0.5201505 0.5399896 -0.66170603 
-0.5394795 0.6232927 -0.56609905 
-0.7601808 0.42902902 0.4879133 
-0.9062372 0.3920579 -0.15819286 
-0.85135055 0.26998278 -0.4497907 
-0.42750436 -0.8828469 -0.1944772 
-0.9062848 -0.24765654 -0.3425116 
-0.5875109 -0.66327095 -0.4635759 
0.3842837 -0.7004444 -0.6014181 
0.2854187 -0.5764906 -0.7656335 
-0.3524378 -0.6648227 -0.6586337 
-0.2713541 -0.107063025 -0.9565064 
0.99798423 -0.06334624 -0.003846791 
0.90851384 -0.13871713 0.39415786 
0.550792 -0.40253463 0.7311594 
-0.6641592 -0.5053253 0.5509437 
-0.46474683 -0.6843088 0.5619003 
-0.9825364 -0.055865537 0.17748602 
-0.5327602 -0.5716101 0.62404215 
-0.7094904 -0.380885 -0.5929166 
-0.34109306 0.113775596 -0.9331188 
-0.22667998 -0.1568059 -0.9612638 
0.036469728 -0.5214637 -0.8524937 
-0.025278518 -0.5236182 -0.85157806 
0.5264693 -0.7810216 -0.33590984 
0.24347688 -0.86337054 -0.44193926 
0.61485976 -0.58898544 -0.5244461 
-0.19333449 -0.95338804 0.23167434 
-0.5231746 0.60587496 0.59933627 
-0.9734423 -0.05671875 0.22179487 
-0.48643756 -0.8727689 -0.040657815 
0.16272242 -0.98204696 -0.09542107 
-0.4309637 -0.80620676 -0.40534076 
-0.5461686 -0.83065957 0.10818795 
0.6069724 -0.09296764 0.7892664 
0.7936468 0.32815534 0.51228774 
-0.1614953 0.17653161 0.9709562 
-0.99205476 0.11842039 -0.042473245 
-0.8008091 0.10471134 -0.58969516 
-0.88768566 -0.39192015 -0.24168774 
-0.44815832 -0.53048563 -0.7195409 
-0.14119034 -0.57665443 -0.8046956 
0.38976333 -0.66775435 -0.6341836 
0.6296014 -0.75703937 -0.17462404 
0.9413432 -0.33683333 -0.020408621 
0.22689721 -0.5326653 -0.8153437 
0.40608108 -0.88910884 -0.21114872 
0.24108286 -0.86229074 -0.4453468 
0.0075856554 -0.60106206 -0.7991664 
-0.08607138 0.21405059 -0.9730232 
0.40363967 -0.13002132 -0.90563214 
-0.0034530344 -0.35383993 -0.9352997 
-0.18796718 -0.45214954 -0.8719112 
-0.1570534 -0.26291043 -0.9519519 
-0.6953817 -0.45644954 -0.555066 
-0.55391496 -0.66325265 -0.50326353 
-0.65866566 -0.5268483 -0.5372061 
-0.081701644 -0.11923137 -0.9894992 
-0.75278103 -0.50677305 -0.42012125 
-0.6008328 -0.41320124 -0.6842987 
0.2748364 -0.57695985 -0.769144 
-0.23270713 -0.79992396 -0.5531447 
-0.28312674 -0.6081991 -0.7415748 
-0.29083443 -0.6753214 -0.6777584 
-0.09255057 -0.7933191 -0.60173017 
0.5152839 -0.6612261 -0.54521805 
0.75282496 -0.639301 -0.15668058 
0.14949027 -0.8358353 -0.528235 
0.568187 -0.66936743 -0.47865525 
-0.16605163 -0.18574634 -0.96846545 
0.56516856 -0.36619684 -0.7392459 
0.7718654 -0.4730144 -0.4248309 
0.59167075 -0.4070073 0.6958957 
0.15743777 -0.5581802 0.8146461 
-0.1478533 -0.4186302 0.89604026 
-0.77059156 -0.27115777 0.5767688 
-0.30809575 0.17367546 0.93536836 
-0.024450669 0.59860915 0.800668 
-0.7095786 0.6808875 0.1813576 
-0.9970082 0.05407274 -0.055234082 
-0.9632336 -0.263989 -0.049910232 
-0.5891735 -0.42382687 -0.6879284 
-0.071457885 -0.8522759 -0.5181889 
0.55932236 -0.35763907 -0.74783206 
0.1018379 -0.98357683 -0.14901587 
0.18073508 -0.9830826 0.029722266 
0.26824 -0.89625597 0.3532316 
0.26957768 -0.8587023 0.4358421 
0.7299802 -0.5977932 0.33131915 
0.49976447 -0.7054742 0.5025354 
-0.71626574 -0.6015839 -0.35363877 
0.5891512 -0.20575745 -0.7813864 
0.59600264 -0.7414485 -0.30827743 
0.96832687 -0.20779005 0.13844295 
0.95977134 -0.1359699 0.24566515 
0.6842106 -0.260763 0.68107164 
0.3454943 -0.93708366 0.050078034 
0.40270448 -0.82756025 0.39111784 
-0.41495022 -0.2554867 0.873237 
-0.7172826 -0.4617484 0.5218182 
-0.86472064 -0.09970286 -0.49225777 
-0.9666622 -0.20090806 -0.15874511 
0.25289476 -0.41164517 -0.8755528 
-0.117964365 -0.6614481 -0.7406557 
-0.08337817 -0.30444515 -0.9488737 
-0.12402067 -0.8469848 -0.5169485 
-0.615642 -0.53166306 -0.5816523 
0.18763855 -0.80035067 -0.5694125 
0.44101277 -0.3362032 -0.832151 
-0.39805603 -0.88331234 -0.24760996 
-0.057340182 -0.96115136 -0.2700004 
-0.045948423 -0.9010043 -0.4313699 
0.6465997 -0.5085439 -0.56858766 
0.8954402 -0.38405752 -0.22513688 
0.39599112 -0.795094 0.45936564 
0.59718615 -0.78399837 0.16945599 
0.74406654 -0.6281976 0.2274485 
0.2583667 -0.9655306 0.031583957 
-0.5445489 -0.6645284 -0.51173085 
-0.723427 -0.6538605 0.22163025 
-0.11801002 -0.7855031 0.6075019 
-0.021834105 -0.5663517 -0.8238744 
0.034473594 -0.659783 -0.75066507 
0.43832862 -0.80525017 -0.39929974 
0.22799034 -0.0046448666 -0.9736523 
0.23461553 0.542451 -0.8066614 
0.39170602 0.8710705 -0.2963151 
0.42110944 0.7871141 -0.4506863 
0.7587081 0.3219054 0.5663382 
0.70738685 -0.6986652 -0.10710194 
0.15160687 -0.7181777 0.6791438 
0.26370743 -0.844639 0.46587938 
0.62467664 -0.5111694 0.5903263 
0.31878722 -0.49179915 0.81025195 
0.5477115 -0.6162758 0.56587666 
0.7021831 -0.69007397 0.17531942 
0.906836 -0.39804626 0.13859247 
-0.18158716 -0.98336035 -0.0053475043 
-0.015380899 -0.9279316 -0.37243325 
-0.026766315 -0.9996368 -0.003149843 
0.026694477 -0.9960672 -0.08448402 
0.21131872 -0.97683656 0.03368448 
0.5418982 -0.6944803 0.47333235 
0.42156485 -0.5134234 0.74744874 
-0.344165 -0.89486855 -0.28418434 
-0.9758737 -0.09644533 0.19587968 
-0.81098276 -0.48376507 0.32905698 
-0.6075493 -0.7673716 -0.20499934 
-0.7137076 -0.48632577 0.50409204 
-0.36243945 -0.4878491 -0.7941291 
-0.38502443 -0.6553984 -0.6497763 
0.3065949 -0.026299343 -0.95147675 
0.036775894 -0.5194994 -0.8536791 
0.13477895 -0.82381594 -0.5506015 
-0.21564358 -0.55122256 -0.8060097 
0.013065416 -0.8947685 -0.44633925 
-0.39108437 -0.8613812 -0.32415378 
-0.8978369 -0.41653854 -0.14277416 
-0.5196085 -0.80435723 -0.28812593 
-0.6106033 -0.3034644 -0.73148686 
-0.20026648 -0.40859058 -0.89047575 
-0.032976422 -0.693288 -0.7199058 
0.35610104 -0.7804281 -0.5139299 
-0.0695536 -0.19183156 -0.9789602 
0.52117133 -0.41888234 -0.74358463 
0.6964461 -0.6965987 0.17237505 
0.27302876 -0.9606818 0.05045555 
0.60455775 -0.42759722 -0.67206436 
0.3501047 -0.9321838 0.09197891 
0.36605287 -0.7393936 -0.5650686 
0.5508192 -0.37741077 -0.74441886 
0.50537556 -0.7723377 -0.38482502 
0.35724178 -0.92735976 -0.11127501 
-0.15359002 -0.9214879 -0.35674956 
-0.10020404 -0.84946877 -0.5180366 
-0.0264266 -0.94383746 -0.32935184 
0.21343192 -0.9198902 -0.329012 
0.28716823 -0.9411057 -0.17847835 
0.1375689 -0.91932833 -0.3686602 
0.6497856 -0.29075757 -0.7023096 
0.5902319 -0.22936392 0.773963 
0.39137346 -0.694842 0.6033419 
0.028369574 -0.70473194 0.70890635 
-0.28517222 0.092573136 0.9539953 
-0.11853761 -0.9171474 0.38051215 
0.2729036 -0.93421054 0.22972701 
0.2879627 -0.95731723 0.0249244 
-0.41041782 -0.8090686 0.4206722 
0.27025157 -0.6154046 0.74043316 
-0.26593006 -0.5704669 0.7770771 
-0.69855684 -0.46822187 -0.5410976 
-0.002767998 0.17343587 -0.98484135 
-0.21844159 0.1023856 -0.97046405 
-0.3345802 0.20773521 -0.9191856 
0.43088964 -0.024473757 -0.9020728 
0.27537027 -0.29216653 -0.91586566 
0.61922556 -0.66879725 -0.41142437 
-0.10243113 -0.83693594 -0.53763014 
-0.29791766 -0.95295835 -0.055817887 
-0.5675883 -0.45913714 -0.68340075 
0.2934604 -0.5889931 -0.75297284 
0.98045075 0.12755498 0.14982004 
0.5220302 -0.5643419 -0.63953316 
0.55679005 -0.81018287 -0.18327193 
-0.28857836 -0.8882526 0.35739315 
-0.32017028 -0.7262921 0.60826874 
-0.33579063 -0.5318585 0.77741313 
-0.19630471 -0.45563173 0.8682536 
0.07610413 -0.77935976 0.6219377 
0.090684146 -0.80765206 0.5826445 
-0.13536082 -0.9807256 0.14090694 
-0.46281102 -0.86355305 0.20020483 
-0.4559915 -0.81042624 0.367806 
-0.8306979 0.16550864 0.5315525 
-0.9290508 -0.36932388 0.021554535 
-0.5928336 -0.15019654 -0.7911949 
-0.2730875 -0.33151275 -0.9030629 
-0.45764402 -0.43422335 -0.77589434 
-0.61094964 0.16421697 -0.77445036 
-0.7556698 -0.4883758 -0.43640837 
-0.69918966 -0.2680326 -0.66279143 
-0.7543317 -0.3322926 -0.56618506 
-0.70486724 -0.6928451 -0.15207823 
-0.91676813 -0.37575945 -0.13542916 
-0.49355164 -0.74893767 0.442153 
0.09543245 -0.9721527 0.21403736 
-0.065581635 -0.92321634 0.37864336 
-0.19522426 -0.90255666 0.3837696 
-0.23266342 -0.6606417 0.7137369 
-0.21976386 -0.6919074 -0.6877267 
0.24613424 -0.94581115 -0.2117997 
-0.1823431 -0.78610456 -0.59058505 
-0.45082033 -0.73967886 -0.49963605 
0.124133 -0.76313156 -0.63420933 
-0.62001896 -0.7837273 0.036715437 
-0.71272355 -0.6417707 -0.28311774 
-0.775686 -0.46865657 0.42269632 
-0.83186173 -0.17734893 -0.52588356 
-0.8341306 -0.46047407 -0.3036278 
-0.817589 -0.47528777 -0.3250384 
-0.66462517 0.08429342 -0.7424069 
-0.13237208 -0.18153217 -0.97443515 
-0.27767533 -0.6499269 -0.70745426 
0.16411062 -0.18933143 -0.968102 
0.16178228 -0.32722247 -0.9309951 
-0.680165 -0.5356826 -0.50041974 
-0.5294479 -0.036728933 -0.847547 
0.05294527 -0.3251569 -0.9441768 
0.5134778 -0.5701936 -0.6412644 
0.21856974 -0.52176845 -0.82461196 
0.5450113 -0.5587215 -0.6251344 
0.24386285 -0.06055048 -0.9679176 
0.8903741 0.09012001 -0.44622004 
0.42858312 0.52697086 -0.73390615 
0.3254202 0.67023915 -0.6669942 
-0.19776262 0.95974517 -0.19944741 
0.27573568 0.949109 -0.15219046 
-0.4093551 0.8732635 0.26427147 
-0.8521539 0.46666452 0.23676547 
-0.95570225 -0.24834429 -0.15798236 
-0.70202506 0.071771905 -0.70852643 
-0.76366657 -0.6109231 -0.20877336 
-0.8336364 -0.12154293 -0.5387743 
-0.12793033 -0.091015734 -0.9875981 
0.16746454 -0.0917387 -0.98160064 
0.29657406 -0.15267646 -0.9427268 
-0.09986633 0.056532063 -0.9933936 
-0.048615597 -0.18321154 -0.9818708 
0.8419933 0.024286106 -0.5389413 
0.6176419 -0.5226467 -0.5876724 
0.31759253 -0.7245103 0.61173517 
0.23051454 -0.7417103 0.6298642 
0.36427373 -0.88429254 0.29211518 
-0.47385493 -0.86334103 -0.17350487 
-0.7838667 -0.614084 -0.091945596 
-0.4678174 -0.8591812 -0.2072551 
-0.579082 -0.80985695 0.09378546 
-0.9363378 -0.15959454 -0.31273156 
-0.2697245 -0.33683553 -0.9021034 
0.21069118 0.08078141 -0.9742092 
0.41532266 -0.4363416 -0.79819375 
0.30156308 -0.8131293 -0.4978761 
-0.015850302 -0.894955 -0.44587484 
-0.36252046 -0.9104625 -0.19909048 
-0.42322657 -0.5875721 0.68966544 
-0.63194555 -0.624821 0.45852333 
-0.7294075 -0.68362135 0.025032414 
-0.23619069 -0.9691292 0.0707289 
-0.75603634 -0.46761566 -0.45797879 
-0.40854353 -0.88629013 0.2181332 
0.12084011 -0.99182117 0.041091863 
0.18631689 -0.54965895 0.814347 
-0.2764043 -0.035631806 0.96038073 
-0.82226515 0.27255198 0.4995955 
-0.95375514 0.2548196 -0.15943047 
-0.7551993 0.34852794 -0.55515975 
-0.38486984 -0.91951907 -0.079749055 
-0.2739096 -0.3191197 -0.9072686 
-0.26008394 -0.94295913 -0.20780875 
0.27579537 -0.74105555 -0.61218756 
0.2885568 -0.7190866 -0.63217837 
-0.09334693 -0.5148718 -0.8521699 
0.15826513 -0.5365993 -0.82886267 
0.7521109 -0.5110778 -0.41608736 
0.6721866 -0.15471502 -0.7240363 
0.8870871 -0.13955459 -0.44000113 
0.9535036 -0.30138043 -0.00090506044 
0.30205405 -0.31930932 -0.8982233 
0.3349002 -0.15246245 -0.9298371 
-0.24582517 0.23330905 -0.9408172 
-0.9151581 0.13903952 -0.37835684 
-0.8521638 0.52291024 0.01953815 
-0.94879484 0.22899474 -0.21760017 
-0.5852873 -0.32290456 -0.743755 
-0.8561246 -0.44821668 -0.2572013 
-0.24078359 0.11158392 -0.96414334 
0.329348 -0.27781734 -0.90241206 
0.51389414 -0.7758899 -0.365934 
0.06615485 -0.057062205 -0.9961765 
-0.21892953 -0.5719049 -0.7905661 
-0.030969849 -0.25285494 -0.9670085 
-0.007051545 -0.39385235 -0.9191468 
0.25563005 -0.7821334 -0.5682611 
0.58848536 -0.23848897 -0.7725335 
0.13750175 -0.5660742 -0.81280595 
0.01449686 -0.574541 -0.8183474 
0.117851764 -0.78549075 -0.60754865 
0.25272033 -0.8104268 -0.5285272 
0.28131673 -0.6233513 0.7295849 
0.35094595 -0.5468092 0.76015574 
-0.20383625 -0.5773365 0.7906537 
0.20325348 -0.14725165 0.9679903 
-0.06597287 -0.30444586 0.9502422 
-0.18940765 0.30890316 0.9320428 
-0.4022749 0.63659775 0.6579653 
-0.6803923 0.5499326 0.484397 
-0.890868 0.4022452 -0.21107598 
-0.67834544 -0.10864708 -0.7266659 
0.16039062 -0.43440256 -0.88632345 
0.58882535 -0.240686 -0.7715926 
0.34389123 -0.85001934 -0.39900637 
-0.16222143 -0.7651863 -0.6230362 
0.038565062 -0.8675845 -0.4957922 
0.56594914 -0.6655571 -0.4865547 
0.7643393 -0.6188195 -0.18123983 
0.67871326 -0.6399829 -0.36023647 
0.4937889 -0.7880977 -0.36752483 
0.21566546 -0.30072102 -0.92900765 
0.62034243 -0.39615145 -0.6769339 
0.8839756 -0.2915774 0.3654722 
0.5544711 -0.48452672 0.676606 
-0.0028747425 -0.65090066 0.75915754 
0.2977172 -0.9434276 0.14597519 
0.18420424 -0.7888974 0.5862676 
-0.5185618 0.04493615 0.85385853 
-0.96873355 -0.2481018 -0.00093960203 
-0.8298191 -0.4696105 -0.30144057 
-0.8105013 -0.39845902 -0.4293228 
-0.53669983 -0.06088004 -0.84157413 
0.2628978 -0.4642225 -0.8458028 
-0.80045426 -0.24318393 -0.5478453 
-0.47153455 -0.81353074 -0.3403279 
-0.35602888 -0.6433399 -0.67775905 
0.098099604 -0.4214761 -0.9015179 
0.11893451 -0.60356283 -0.7883949 
0.14003472 -0.8263699 -0.54543835 
0.43158767 -0.30350402 -0.8494807 
0.14086135 0.024724567 -0.9897206 
0.088495225 -0.37288204 -0.9236491 
0.37552366 -0.32969368 -0.8661894 
0.23495239 -0.84755766 -0.47586071 
-0.3246165 -0.43685952 -0.8389147 
0.2026568 -0.97405875 -0.10069706 
0.24177569 -0.9660187 -0.0913921 
0.43335056 -0.71164614 -0.5529621 
0.751915 -0.6592196 0.0073135877 
0.023514703 -0.9720391 0.23363881 
-0.34060785 -0.417391 -0.84247917 
0.12756814 -0.018208139 -0.99166274 
0.15439296 0.029281285 -0.9875756 
0.08263945 0.3488194 -0.9335394 
-0.22708978 0.8859985 -0.40427354 
-0.27439016 0.7823972 -0.559075 
0.8410332 0.51630443 0.16153319 
0.62886393 -0.28109878 0.72492325 
0.69490945 -0.71436346 0.08237532 
0.18765318 -0.7889511 0.58510053 
0.6441225 -0.7639772 0.038014755 
0.74260986 -0.5818482 0.33163738 
0.7591595 -0.65088606 -0.0049124393 
0.53000945 -0.8229986 0.20436096 
0.9725765 -0.12358014 0.19703521 
0.36752418 -0.6086186 0.70321363 
-0.30353832 -0.3711058 0.87757903 
0.3024566 -0.86279213 -0.40510494 
0.5823218 -0.8030623 0.12646048 
0.24690312 -0.8784441 0.40911475 
0.53132623 -0.72955567 -0.43062857 
-0.0639342 -0.79227656 -0.6068033 
-0.059832804 -0.8114918 -0.5812928 
-0.92004156 -0.3095271 -0.24024297 
-0.75885135 -0.30312818 0.5764182 
-0.6029796 -0.73297495 -0.31490234 
-0.2903922 -0.7606302 -0.5806153 
-0.21389754 -0.97491854 0.061496444 
0.0916108 -0.8591576 -0.50344396 
-0.19988278 -0.18282662 -0.9626118 
0.69333804 -0.24887314 -0.67627263 
0.4755948 -0.51244754 -0.7149875 
0.026591597 -0.99908066 -0.033626884 
-0.52779794 -0.83854824 -0.13515308 
-0.14758265 -0.85665786 -0.49432456 
-0.23317628 -0.83598083 -0.49675456 
-0.046734553 -0.92380905 0.37999073 
-0.05085642 -0.9854576 0.16213305 
0.14281566 -0.8149631 -0.56163937 
0.090073355 -0.69826984 -0.7101451 
-0.12321069 -0.6138562 -0.7797435 
-0.24288277 -0.71025354 -0.6607178 
-0.1827243 -0.61622274 -0.7660818 
0.6523829 -0.61716306 -0.43989357 
0.819331 -0.48495477 -0.30580306 
0.6538524 -0.6036359 0.4561807 
-0.3344089 -0.84904873 -0.40900713 
-0.37954274 -0.84439236 -0.37808597 
0.025295168 -0.8861552 -0.46269774 
-0.30112523 -0.26271382 -0.9166815 
0.55031705 -0.53080344 -0.64451444 
-0.44905508 -0.5437294 -0.70901895 
-0.09000335 0.09739255 -0.99116814 
-0.5321515 0.104481 -0.8401776 
-0.0130531 -0.64429927 -0.764662 
0.016818367 -0.9300129 -0.36714178 
0.46335626 -0.6564445 -0.5952997 
0.41121548 -0.9089507 -0.068634264 
0.764892 -0.59500086 -0.2468084 
0.8637358 -0.2798247 0.41911647 
0.7538174 -0.25349295 0.60621834 
-0.073611036 -0.82199836 0.5647124 
0.19396213 -0.798402 0.57002896 
-0.48506433 -0.7141407 0.50469357 
0.60705066 -0.7377737 -0.2952619 
0.2760969 -0.77870893 0.5633675 
-0.39459482 -0.91721576 -0.054864496 
-0.64884144 -0.65440595 0.3882753 
-0.65516424 -0.75508094 -0.024754673 
-0.5914712 -0.2550732 -0.7649179 
-0.45327955 -0.5535769 -0.6986347 
-0.43887648 0.27638438 -0.8549849 
-0.32797036 0.4361293 -0.8379898 
0.45619595 0.12821274 -0.8805946 
-0.10265329 0.43643597 -0.89386016 
0.1390107 -0.97617906 0.16658512 
-0.39076105 -0.9108306 0.13301688 
-0.68426627 -0.50972843 -0.5214946 
-0.5167294 -0.35141087 -0.7807056 
0.41012138 -0.09839539 -0.90670776 
0.700129 -0.5414368 -0.46547362 
0.8257576 -0.1745906 -0.5363233 
0.6463842 -0.55151165 0.52727836 
0.35586706 -0.87019455 0.34076414 
0.28992903 -0.6899305 0.6632776 
-0.03805054 -0.72268224 0.6901323 
-0.004023359 -0.8394541 0.5434158 
0.030316226 -0.9933352 0.11120403 
-0.23266596 -0.80708075 0.54266703 
-0.07871698 -0.9653028 0.2489863 
-0.3546976 -0.8573578 -0.37299758 
-0.5190657 -0.8215252 0.23593871 
-0.7035154 -0.5569204 0.44148132 
-0.8258033 -0.52643377 -0.2022784 
-0.4764236 0.06366597 -0.87690777 
-0.33731118 -0.25328836 -0.9066786 
-0.7048881 -0.34291074 -0.6209227 
-0.72099066 -0.6843047 0.10908562 
-0.39151767 -0.44487184 -0.80548316 
-0.6599169 -0.66507226 -0.34955493 
-0.84757346 -0.20248777 -0.49052823 
-0.7358255 -0.57447445 0.35852486 
-0.361008 -0.89108986 -0.27501288 
-0.8105644 -0.5215279 0.26644704 
-0.65589017 -0.7369106 0.16361804 
-0.59181774 -0.7726472 0.22971337 
0.01499792 -0.9478567 -0.31834364 
0.046911858 -0.9698291 0.23922981 
0.08824621 -0.76289237 -0.6404747 
0.10132681 -0.8437122 -0.52714574 
-0.45257616 -0.490102 -0.7449664 
0.08429465 -0.31256813 -0.94614774 
0.13501853 -0.38709253 -0.9121016 
0.080000795 -0.2685773 -0.9599303 
-0.9131845 -0.37852746 -0.15103333 
-0.55567926 -0.6783881 0.4806352 
-0.42995456 -0.16213839 -0.8881724 
-0.7249011 -0.5445574 -0.4218717 
-0.7122596 -0.055354726 -0.6997301 
-0.69195545 -0.37470302 -0.6170862 
-0.33684683 -0.12498298 -0.93322754 
0.09468413 -0.05214484 -0.99414074 
0.17032637 -0.44331345 -0.8800354 
0.3517881 -0.6059564 -0.7134859 
-0.2533783 -0.5614826 -0.78774154 
-0.22039495 -0.063324824 -0.97335297 
0.01960743 0.73343813 -0.67947334 
0.8520074 0.1934222 -0.4864887 
0.5826595 0.38838792 -0.71390676 
0.73570925 0.21946545 -0.6407549 
0.75586677 0.16739559 -0.63296455 
0.9954499 -0.09432299 0.013516483 
0.568729 0.6619267 -0.48826274 
0.6761299 0.7203633 -0.15467754 
0.8833224 0.46800473 -0.026702322 
0.5952805 0.8020144 -0.04913265 
0.48281884 0.8283461 0.28412798 
-0.24308626 0.9341426 0.26131704 
-0.2660662 0.053602472 -0.9624633 
-0.7762917 -0.32068178 -0.54271024 
-0.7381681 -0.48579922 -0.4680887 
-0.88000816 -0.0054301345 -0.4749275 
-0.7324006 -0.17001584 -0.6593058 
-0.16467284 0.14875478 -0.9750666 
0.37478068 -0.33949494 -0.86271816 
-0.18062711 0.10676405 -0.9777399 
0.28117776 -0.05919985 -0.957828 
0.00906244 -0.6460564 -0.7632359 
0.5220451 -0.059079703 -0.8508693 
-0.10777945 -0.99251 0.057510413 
-0.7984314 -0.5571829 -0.2281548 
-0.40885645 -0.85459775 -0.3201551 
-0.31232813 -0.7089246 -0.6323584 
-0.36407527 -0.4493247 -0.8158166 
-0.21828662 -0.66818106 -0.711256 
-0.8658957 -0.44862822 -0.22126356 
-0.81461066 -0.20021445 -0.54435635 
-0.6519242 -0.15561196 -0.7421454 
-0.25041908 0.08924499 -0.96401536 
-0.6437647 0.071900874 -0.7618382 
-0.5635163 -0.76994276 -0.29939538 
-0.32563338 -0.5872141 -0.7410415 
-0.46518606 -0.48810735 -0.7384803 
-0.71067303 -0.66839904 0.21951452 
-0.20792842 -0.9686662 -0.13583635 
-0.3946518 -0.9117536 0.11382203 
-0.43190658 -0.68868476 -0.5823831 
-0.47250625 -0.49412328 -0.72978085 
0.47827953 -0.7564597 -0.44611365 
0.014025084 -0.57544357 -0.8177213 
-0.5656699 -0.8242499 0.025096327 
-0.4344974 -0.66490424 0.6075479 
-0.6962977 -0.40559584 0.5921668 
-0.593599 0.30333024 0.7454067 
-0.9827379 0.012287337 0.18459487 
-0.7487173 -0.19028106 -0.63499254 
-0.462775 0.36510798 -0.8077968 
0.2648615 -0.04012968 -0.9634511 
0.038945735 -0.089437485 -0.9952308 
-0.079893045 -0.564034 -0.8218776 
0.14572814 0.37059382 -0.91729146 
0.12676206 -0.519777 -0.84484524 
0.6513486 -0.43255362 -0.623412 
0.696807 -0.4055223 -0.59161794 
0.52103275 -0.3911724 -0.7586232 
0.9741017 -0.15555067 -0.16410361 
0.11114332 0.4456551 -0.8882786 
-0.7875801 -0.079697184 -0.61103696 
-0.2729309 0.7206126 -0.6373588 
-0.16894943 0.92302406 -0.34566274 
-0.22612584 0.9740922 -0.0034188104 