# OOMMF: rectangular mesh v1.0
# Segment count: 1
# Begin: Segment
# Begin: Header
# Desc: Time (s) :  5.200000000000007e-07
# Title: m
# meshtype: rectangular
# meshunit: m
# xbase: 2e-09
# ybase: 2e-09
# zbase: 5e-10
# xstepsize: 4e-09
# ystepsize: 4e-09
# zstepsize: 1e-09
# xmin: 0
# ymin: 0
# zmin: 0
# xmax: 1.024e-06
# ymax: 1.024e-06
# zmax: 1e-09
# xnodes: 256
# ynodes: 256
# znodes: 1
# ValueRangeMinMag: 1e-08
# ValueRangeMaxMag: 1
# valueunit: 
# valuemultiplier: 1
# End: Header
# Begin: Data Text
-0.77352583 -0.5876598 -0.23730554 
-0.76122165 0.051039774 -0.6464802 
-0.170808 0.2622649 -0.9497588 
0.623731 0.23826705 -0.7444384 
0.7312915 -0.20983487 -0.64898545 
0.61144656 -0.22330013 -0.75912464 
0.58553743 -0.73051614 -0.35141444 
0.35493097 -0.20933926 -0.91115373 
0.8251456 -0.41162086 -0.38691482 
-0.23722759 -0.9686488 0.07377444 
0.11137284 -0.9613326 0.2518646 
-0.27952176 -0.3353501 0.89967096 
0.25143078 -0.7662632 0.59128964 
0.2731067 -0.6060467 0.7470745 
0.01452874 -0.5705688 0.8211213 
-0.5552735 -0.5602772 0.6146225 
-0.45396265 -0.8551431 0.2502963 
-0.9700191 0.05973912 -0.23557238 
-0.30489525 -0.37537676 -0.8752892 
0.5261576 -0.54498994 -0.6527972 
0.5208581 -0.79929763 -0.29971686 
-0.31566843 -0.30574167 -0.89826256 
-0.24129815 -0.7926095 -0.55995136 
-0.72306985 -0.560157 0.4042204 
-0.03435851 -0.30303437 -0.9523601 
0.33848083 -0.69610274 -0.6331443 
0.81533265 -0.487928 -0.31170312 
0.4575429 -0.82079613 0.34197688 
-0.49715662 -0.8254836 -0.2672306 
0.16142862 -0.8461248 -0.5079504 
-0.4359513 -0.8191372 -0.37277466 
0.56995654 -0.3021957 -0.764086 
0.85725266 -0.318758 -0.4043653 
0.88025236 0.14115448 -0.4530245 
0.8086616 -0.3496976 -0.4730519 
0.57716334 -0.7615044 -0.29494655 
0.68736506 -0.7059439 -0.17079984 
0.8799129 -0.33642605 0.33551586 
0.08091526 -0.72897816 0.6797379 
0.19611844 -0.9804112 0.01820998 
-0.534893 -0.7672444 -0.3538721 
-0.4273647 -0.8888129 0.16544217 
-0.7233109 -0.68994933 -0.028130708 
-0.06675886 -0.96455765 -0.25528753 
-0.094287276 -0.9945118 0.045347385 
-0.4066078 -0.89999586 0.15709133 
-0.5316323 -0.82541096 -0.18990484 
-0.44949487 -0.8841289 0.12755583 
-0.740924 -0.5455777 0.3916333 
-0.08189153 -0.9100861 0.4062476 
-0.37454224 -0.86091197 0.34430894 
-0.23189422 -0.63753575 0.73469263 
-0.42683786 -0.42287412 0.79936653 
-0.2065606 0.2282151 0.9514466 
-0.45231017 -0.24535085 0.8574488 
-0.19952784 -0.97726536 -0.071700834 
-0.23119771 -0.9419142 -0.243609 
-0.68635345 -0.6517778 -0.32265252 
0.016450394 -0.76312906 -0.64603674 
0.61565894 -0.78298426 0.08888104 
0.18854794 -0.9427684 0.275023 
-0.4840458 -0.72297233 0.49296123 
-0.5476476 -0.81486636 -0.18993422 
-0.4264326 -0.78744066 -0.44507596 
0.006937217 -0.8296481 -0.55824363 
0.45806184 -0.54923517 -0.6989422 
-0.24202652 -0.91483426 -0.32326686 
-0.011474564 -0.8533567 -0.5212012 
0.40177628 -0.76309043 0.5062301 
0.3487873 -0.92773086 0.13290253 
0.7654376 -0.6395601 -0.07119116 
-0.08326323 -0.93994087 0.33102635 
0.60558444 0.15271868 0.7809895 
-0.14637762 -0.36640623 -0.9188689 
-0.42891675 -0.26783788 -0.8627244 
-0.24964851 -0.40669444 -0.8787919 
-0.015148165 -0.96492046 -0.26210496 
0.2933476 -0.5413745 -0.78794736 
0.10942611 -0.6895207 -0.715952 
0.79414916 -0.43417868 -0.4252249 
0.72719336 -0.4786952 -0.49197632 
0.8430351 -0.27450883 0.46253294 
0.14101432 -0.41511208 0.8987752 
0.50325334 -0.5253584 0.6861011 
-0.3125856 0.10674142 0.94387317 
-0.34969518 -0.43881303 -0.8277418 
0.29129687 -0.9422662 -0.16516833 
-0.26380712 -0.9629952 -0.055192508 
0.06914502 -0.9822653 0.17428125 
0.022912215 -0.966371 -0.2561292 
-0.48895943 -0.5946448 -0.63821346 
-0.2790766 -0.8411332 -0.4632614 
0.41347945 -0.70516276 -0.5760038 
0.31063944 -0.8596736 -0.4055422 
0.84713817 -0.44942868 0.28349763 
0.9314931 -0.18502657 0.3131867 
0.8628048 0.30136704 0.40588892 
0.50585943 0.12226216 0.8539077 
-0.37198615 -0.30346978 0.87723 
-0.44268888 0.01695322 0.8965151 
-0.51046515 -0.067630574 0.8572348 
0.16737357 -0.478598 0.8619339 
-0.14200959 -0.6187382 0.77265537 
-0.54102236 -0.1269953 0.8313646 
-0.92394584 -0.37946597 0.048267007 
-0.664605 -0.74646825 -0.032945324 
-0.4910023 -0.682547 -0.54133767 
0.20949541 -0.96747357 -0.14179748 
0.6283945 -0.7775745 0.022321695 
-0.3064826 -0.51854867 0.7982329 
-0.9546961 -0.28516418 -0.085069604 
-0.23427026 -0.11362676 -0.9655084 
0.13519359 -0.8513971 -0.50679964 
-0.07448943 -0.51260585 -0.85538685 
-0.95286614 0.274251 0.129741 
-0.89445925 -0.38727704 0.22351553 
-0.8682734 0.39940286 -0.29424265 
-0.920839 0.12474666 -0.36945078 
-0.65007246 -0.5817096 -0.48889655 
-0.51810354 0.037601657 -0.854491 
-0.43009225 -0.82861364 -0.35835776 
0.6586362 -0.13718893 -0.73984975 
-0.30146164 -0.23778592 -0.9233519 
-0.4534901 0.6377531 -0.62258947 
-0.24943623 0.28234845 -0.9263158 
-0.7100794 -0.36864722 -0.5999055 
0.30558026 -0.2220027 -0.9259241 
0.86335427 -0.3766375 -0.33580285 
0.67827165 -0.6985438 -0.2280006 
0.78567904 -0.51153684 -0.3479062 
0.67361224 0.20739563 -0.7093897 
0.30152088 -0.47641486 -0.8259019 
0.44358334 0.63862735 -0.6287996 
0.87518615 0.4284782 0.22462331 
0.38578224 0.36868826 0.8457193 
-0.0014198382 0.7920601 0.6104416 
0.03663843 0.2326365 0.9718734 
-0.114006266 0.114994794 0.9868024 
-0.57313037 -0.80317277 0.16258903 
-0.38216773 -0.8840721 0.26900634 
-0.70888364 -0.6993146 -0.091886945 
-0.012476456 -0.9882564 0.15229473 
-0.19474381 -0.90940654 -0.36749795 
-0.23235139 -0.95911336 -0.16159977 
0.14632034 -0.38021144 -0.91325223 
0.6908611 -0.44806224 -0.56740755 
0.43119243 -0.4877456 -0.7590636 
0.47862548 -0.7460716 -0.4629201 
0.1888538 -0.96262914 -0.1941122 
-0.25656962 -0.5977275 -0.7595353 
-0.25425017 -0.4112902 -0.87532705 
-0.32093748 -0.34936565 -0.88030845 
-0.07802136 -0.33095607 -0.9404152 
0.26911014 -0.8854589 -0.37887 
0.73004556 -0.56280684 -0.38766235 
0.87771624 0.26351732 0.40021607 
0.7596914 -0.64867306 -0.04574221 
0.17616065 -0.8328341 -0.52474254 
0.31580886 -0.9225301 -0.22181763 
0.19337258 -0.9457953 -0.26091838 
0.4589479 0.17669058 -0.87071663 
0.15628558 -0.5811561 -0.7986442 
0.7557809 -0.084414065 -0.64936095 
-0.0073574986 -0.42531097 -0.9050175 
0.09466551 -0.38141862 -0.91954243 
0.85269976 -0.21308936 -0.4769656 
0.527667 -0.51981515 -0.67183316 
0.35575494 -0.7680795 -0.53244 
0.80489564 -0.53912956 -0.24795637 
0.7370174 -0.63936305 -0.21913525 
0.73407775 -0.26323244 -0.6259701 
-0.26484394 0.09301275 -0.959795 
0.7858579 0.0007037511 -0.61840683 
0.8164158 0.5756569 0.045656797 
0.25641638 -0.7016307 0.6648045 
0.37492028 0.05466734 0.9254438 
0.54472524 -0.16348433 0.822525 
-0.12385229 -0.15886214 0.9795016 
-0.3213878 0.77918464 0.5381276 
-0.9686602 -0.20170121 0.14496282 
-0.86565655 -0.5004511 -0.013697842 
-0.4179896 -0.65837455 -0.6259615 
0.4933084 -0.86329293 -0.10664005 
-0.10134701 -0.365022 -0.92546624 
-0.12340908 -0.22344688 -0.9668721 
0.7798356 -0.54860467 -0.30147865 
0.91938925 -0.39334857 -0.0006802174 
0.4323771 -0.41218045 -0.8019709 
0.6855401 -0.43652824 -0.5826474 
-0.07050108 -0.4670453 0.88141835 
-0.4059756 -0.78183943 0.47319236 
-0.13324128 -0.9804937 0.14449508 
-0.28359407 -0.64291126 -0.7115051 
-0.18255593 0.07077723 -0.98064464 
-0.4744693 0.2620956 -0.84034806 
0.51388115 -0.6743715 -0.5302351 
-0.95483804 -0.061042976 -0.2907889 
-0.9950092 0.0059726937 0.09960435 
0.03697336 -0.35388482 -0.9345579 
-0.27754286 -0.92823887 0.2476744 
-0.1996673 -0.10246456 -0.9744917 
-0.32960805 -0.6509688 -0.6838116 
-0.27977762 -0.24476504 -0.9283397 
-0.023007173 -0.91225445 -0.40897754 
-0.15715721 -0.5687803 -0.80733556 
-0.14249511 -0.3910199 -0.90928465 
-0.17116238 -0.7264613 -0.66555053 
-0.43205747 -0.39249942 -0.81195486 
-0.8631569 -0.22721323 -0.4509263 
-0.6645663 0.25230205 0.7033459 
-0.8473884 -0.05916628 -0.52766687 
-0.65412605 -0.298745 -0.6948889 
-0.2422191 0.13979748 -0.9600972 
-0.9262811 0.094764486 -0.3647235 
-0.96664894 0.06622825 0.24739374 
-0.85303265 -0.20100309 -0.48159453 
-0.7679955 0.12453998 -0.6282298 
-0.66731554 0.38527346 -0.63738096 
-0.7813544 -0.5115351 0.3575154 
-0.17227532 -0.3096425 0.93511647 
-0.84378153 -0.26528004 0.46653983 
-0.6005606 -0.51351774 0.61288375 
-0.762794 -0.6370983 0.11068502 
0.37554705 0.01616431 -0.92666245 
0.68478966 -0.32994008 -0.6497712 
0.9984991 -0.05467854 0.0031571486 
0.78437996 -0.37035576 0.49757898 
0.79985064 0.36061543 0.47978705 
0.41827413 0.20465723 0.8849645 
-0.45010835 -0.66163254 0.59970397 
-0.51145566 -0.49179938 0.7046606 
0.053101525 -0.72062373 0.6912899 
-0.5050439 -0.26144493 0.8225432 
-0.054868508 -0.49182326 0.8689646 
-0.052027196 -0.9356629 0.3490388 
0.41022673 -0.8402429 -0.35455033 
0.31841773 -0.789362 -0.52489793 
0.36044803 -0.92262423 -0.13726532 
0.68871146 -0.7179827 -0.1008837 
0.7225393 -0.43554962 0.5368739 
0.9885024 0.14843357 0.02881944 
0.60850483 0.25245413 -0.75232226 
-0.05746684 0.8063684 0.5886149 
-0.2147241 0.771081 0.59943956 
0.22095747 -0.122924015 0.9675059 
0.05901288 0.4853333 0.8723354 
-0.93298763 0.34131548 -0.114183925 
-0.8868929 0.46041426 0.037942857 
-0.27357322 0.442638 -0.8539493 
-0.06487936 0.45823595 -0.8864596 
0.5913136 0.6942345 -0.41034943 
0.8235434 0.55826855 -0.10056143 
0.90535337 -0.2892863 -0.31088394 
0.61675525 -0.18178102 -0.7658778 
0.64825964 -0.39566344 -0.65054584 
0.61876696 -0.5070765 -0.6000008 
-0.9090955 -0.40561557 -0.09498165 
-0.46420178 0.067326166 -0.8831671 
-0.25348416 -0.57029104 -0.7813539 
-0.1307327 -0.48884812 -0.8625175 
0.22012606 0.10927913 -0.969331 
0.9458655 -0.01272972 -0.32430923 
0.5417823 -0.53504837 -0.6482247 
0.52067846 -0.41319385 -0.7471043 
0.7102057 -0.7039759 0.00508918 
-0.017043812 -0.94299 -0.33238462 
0.09327744 -0.91502035 -0.39247584 
0.033151902 -0.9484493 0.31519032 
0.32407942 -0.4094421 0.8528363 
0.00436432 -0.8402685 0.5421529 
0.11831053 -0.7455613 0.6558514 
-0.6167786 -0.67633253 0.40268928 
-0.16184099 -0.97614014 0.14476855 
-0.4467392 -0.75352144 -0.48231706 
-0.044152685 -0.71132386 -0.7014763 
-0.3253848 -0.8675156 -0.3762199 
0.07680515 -0.810037 -0.58132696 
-0.38599387 -0.6020159 -0.6989891 
-0.16021879 -0.98332924 0.08598655 
-0.6747243 -0.6549618 0.3402532 
-0.57355064 -0.42131758 -0.70251775 
0.35361534 -0.4533372 -0.81819415 
0.86383754 0.3044654 -0.4013548 
0.8522954 -0.170162 0.49460843 
0.82656884 -0.49555475 -0.26685098 
0.7915007 -0.5616175 -0.24106553 
0.16281922 -0.8858976 -0.43436775 
0.14737071 -0.02107256 -0.9888569 
0.06864953 -0.05071026 -0.9963513 
0.80225945 0.34381512 -0.48802754 
0.9113435 -0.1620971 -0.37838826 
0.62392193 -0.75197005 0.2127498 
0.83089435 -0.46516258 0.30534977 
0.6070956 -0.7475654 -0.2694087 
-0.20722921 -0.95284534 -0.22167988 
-0.5145774 -0.84821486 -0.1254656 
-0.61333686 -0.70100456 -0.36388257 
-0.4052565 -0.89241225 -0.19841297 
-0.82650405 -0.5618689 -0.034562897 
-0.8001105 -0.53442764 0.27241588 
-0.5774105 -0.81426626 -0.059730038 
-0.17024776 -0.6551528 0.7360642 
-0.6980237 -0.67959857 -0.22562979 
0.119727194 -0.9705731 0.20893396 
-0.1440807 -0.86317897 0.4839037 
-0.8703201 -0.46513197 0.16184908 
-0.35986966 -0.9237464 0.13109739 
-0.62870735 -0.77723247 -0.025236212 
-0.06027331 -0.40707394 0.9114044 
-0.43059888 -0.3424525 0.8350514 
-0.3493146 -0.82610625 0.44218525 
-0.6843084 -0.524132 -0.5069592 
-0.22512263 -0.9604162 -0.16407493 
-0.7129909 -0.60951877 -0.34659925 
0.2836157 -0.5925912 -0.75392157 
-0.0763879 -0.98725843 0.13959128 
-0.07597175 -0.71811193 0.69176847 
-0.31665722 -0.80611455 0.49990764 
0.20575573 -0.9068431 0.3678317 
-0.40209866 -0.9133289 -0.06439822 
-0.5446505 -0.42698836 -0.72182876 
-0.3597784 -0.47025806 -0.8058641 
-0.120371886 -0.45801252 -0.8807583 
0.48751572 -0.807196 -0.33281085 
0.15774058 -0.9816343 0.10729401 
-0.4631892 -0.8854175 0.038623802 
-0.13856058 -0.99027723 -0.012331357 
-0.22344282 -0.9736032 0.046586998 
0.43468937 -0.90054405 0.00809995 
-0.40183017 -0.43591136 -0.8053036 
-0.5128934 -0.233881 -0.8259783 
-0.15625446 -0.7522227 -0.64011383 
-0.030064391 -0.7106742 -0.70287865 
0.3503492 -0.33446845 -0.8748637 
0.6874589 -0.20697153 -0.6961057 
0.8134444 0.039989278 -0.5802665 
0.59784955 -0.7978438 0.07759714 
0.16432689 -0.88332134 0.43902162 
0.33640885 -0.9295658 0.150787 
0.31017193 -0.949265 0.051859215 
-0.049353804 -0.8153542 0.5768552 
-0.29739267 -0.80081165 0.5198639 
-0.8265186 -0.562871 0.006589986 
-0.21288155 -0.8358571 -0.5059885 
-0.12407303 -0.9921246 0.017164422 
-0.066767514 -0.6148108 -0.7858434 
-0.1919422 -0.7295596 -0.65643054 
0.18719715 -0.7782161 -0.59944725 
-0.48823822 -0.4243434 -0.7625982 
0.48690838 -0.23844467 -0.8402765 
0.084776394 -0.9352129 -0.34378746 
0.72299844 -0.6765494 0.13983639 
0.7998357 0.056370765 0.5975662 
0.69270873 -0.039710727 0.72012335 
0.31932205 -0.69121414 0.648272 
-0.45778573 0.21782388 0.86196584 
-0.27543494 -0.017095359 0.96116775 
0.71505564 -0.6980197 -0.038262982 
-0.29134232 0.06761302 0.9542265 
-0.5629094 -0.27362955 0.77991015 
-0.79066974 -0.5775882 -0.20305951 
-0.9993765 -0.00032287507 -0.035306867 
-0.615953 -0.7875023 -0.02102866 
-0.006943853 -0.96012837 0.27947342 
0.12261043 -0.9709422 -0.20551911 
-0.39564973 -0.8700244 -0.2941408 
-0.8648439 -0.34440115 -0.36528465 
-0.898899 -0.024860194 -0.43745014 
-0.28913602 -0.42710066 -0.85672957 
-0.6155735 -0.04821122 -0.7866034 
-0.6325581 0.07479791 -0.77089274 
-0.9091848 0.024980443 -0.41564283 
-0.94400746 0.17973284 -0.2766696 
-0.8792987 -0.11260381 -0.46276814 
-0.54221714 -0.47657824 -0.69200706 
-0.5534966 -0.04094604 -0.8318444 
-0.4975677 -0.097943716 -0.86187786 
-0.13688819 0.76079434 -0.63439244 
0.0031816147 0.24379978 -0.9698204 
-0.080873325 0.45954043 -0.8844672 
-0.25401717 0.581028 -0.77322817 
-0.79765105 -0.13735615 -0.5872702 
0.4189563 -0.59114325 -0.6892208 
0.33184516 -0.87768054 -0.34576842 
0.5977903 -0.62385726 -0.50343704 
-0.1289975 -0.44720444 -0.8850807 
-0.17454305 -0.68251115 -0.7097276 
0.6709495 0.016336985 -0.74132305 
0.39155048 -0.111828245 -0.91333604 
0.73270464 -0.19382091 -0.6523629 
0.94041705 0.18320598 0.2864462 
0.6181229 -0.021724002 0.7857813 
0.16583206 -0.16890018 0.9715825 
-0.06429487 -0.11306561 0.99150515 
-0.8331 -0.5303907 -0.15693998 
-0.38361973 -0.8761908 0.29176325 
-0.4957281 -0.8284049 0.26076615 
-0.09951625 -0.84453416 -0.5261736 
-0.30982625 -0.9448311 0.106311336 
-0.8592558 -0.052192047 -0.50887674 
-0.6320006 -0.6603547 -0.40559447 
0.5804632 -0.474008 -0.6621019 
0.73545927 -0.38383982 -0.55836076 
0.41828462 0.16332603 -0.8935115 
0.31637308 -0.42287654 -0.84916633 
0.1341791 -0.31478247 -0.93963194 
-0.25332892 -0.444828 -0.85904163 
0.087471046 -0.48549873 -0.8698505 
-0.319256 -0.82656646 -0.46353376 
0.090790756 -0.6013142 -0.7938377 
-0.061626878 -0.73941374 -0.6704249 
0.45333865 -0.8170289 -0.35629746 
0.7891984 -0.5997586 -0.13211939 
0.20250031 -0.97647685 0.07407194 
0.22871423 -0.8894194 -0.39575607 
-0.12561263 -0.6472151 -0.75188696 
0.31234252 -0.1765419 -0.9334212 
0.49712995 -0.30757806 -0.8113308 
0.47153065 0.098044656 -0.8763824 
0.67989635 0.35897377 -0.6394363 
0.084072664 0.12598337 -0.98846346 
0.5334028 -0.33484486 -0.77676284 
0.25077322 -0.513058 -0.82090455 
0.013600428 -0.50621355 -0.86230105 
0.3970225 0.13742302 -0.9074625 
0.24426644 -0.83705443 -0.48956493 
0.1760629 -0.27610034 -0.9448653 
0.23701271 -0.07321483 -0.9687438 
0.8272126 -0.27140802 -0.49199286 
0.7712827 0.10150892 -0.62834626 
0.57378364 -0.7169818 0.39586553 
0.5624044 -0.27465022 0.77991587 
0.588413 0.4270026 0.68661416 
-0.20628095 0.36007065 0.90983367 
-0.607165 0.048192877 0.79311305 
-0.7125565 -0.65136725 -0.26073766 
-0.3124085 -0.17000806 -0.93461126 
-0.233943 -0.41923514 -0.87721866 
-0.24825151 -0.15060756 -0.95691615 
-0.62208176 -0.11216356 -0.7748766 
-0.38255534 -0.56805086 -0.7286767 
0.06994483 -0.3836299 -0.92083436 
0.38279885 -0.43323392 -0.8159495 
0.6382532 -0.65956056 -0.3970047 
0.7933778 -0.52440685 0.30911043 
-0.33273578 -0.81437045 0.47548676 
-0.5473668 -0.8215202 0.15966853 
-0.66518176 -0.72108877 -0.19381505 
-0.6635296 -0.47167578 -0.58073264 
0.20895742 0.29730704 -0.93163586 
0.3998687 0.15657541 -0.9030998 
0.45417976 0.31779128 -0.8323037 
-0.34335974 -0.3543078 -0.8698104 
-0.018507514 -0.44201672 -0.89681596 
-0.47461239 0.056674413 -0.87836844 
-0.74224436 -0.5160913 -0.42746142 
-0.5330468 -0.077932864 -0.8424889 
-0.3862622 -0.32877785 -0.86180437 
0.14272337 -0.6567375 -0.7404904 
0.44407785 -0.46746317 -0.76437753 
0.82626987 -0.5430001 -0.14976355 
0.48967117 -0.71427655 -0.5000313 
-0.52396125 -0.40262887 -0.7505696 
-0.6062593 0.75680584 -0.24432479 
-0.9888808 0.10774514 -0.1024982 
-0.9463156 0.22943303 0.22770005 
-0.8129716 0.00036657602 -0.5823033 
-0.8343118 0.29082254 -0.46834418 
-0.74425143 0.32941613 -0.58101195 
-0.8076131 0.042670608 -0.5881671 
-0.664658 0.5591338 -0.4955797 
-0.7749695 0.17175834 -0.6082116 
-0.9403915 0.002823373 -0.3400823 
-0.8762167 -0.23873335 -0.41862965 
-0.89011216 -0.41038585 -0.1982014 
-0.03038894 -0.98403746 -0.17534773 
-0.25049534 -0.83070904 -0.49716645 
-0.37954482 -0.9160157 0.12985018 
-0.62919754 -0.711484 -0.31289136 
0.22853091 -0.030152945 -0.97306967 
0.47524166 -0.45288748 -0.7543463 
0.8525358 -0.5226327 -0.006138664 
0.57729477 -0.816499 0.007754078 
0.65249354 -0.08240492 0.7533005 
0.3007099 -0.032925896 0.9531471 
-0.439093 -0.4717034 0.7646524 
-0.21817385 -0.33130607 0.91795236 
0.5503681 -0.3764592 0.7452339 
-0.5968045 -0.6244793 0.5038353 
-0.458781 -0.8450299 0.27467144 
-0.39544412 -0.6861572 -0.61058354 
0.12262188 -0.37638038 -0.9183146 
-0.2232132 -0.32868287 -0.9176838 
0.16185006 -0.65247667 -0.7403234 
-0.11034347 -0.7502588 -0.65187126 
0.2679158 -0.9093303 0.31833866 
0.9917941 -0.11998647 -0.04413272 
0.5027132 0.81845164 0.278238 
0.30632564 0.94677424 0.09890972 
-0.6834636 0.7062407 0.18466628 
-0.7226255 0.597066 0.34831694 
-0.71174955 0.38833067 0.58533067 
-0.49735492 0.8672786 -0.02158431 
-0.83956975 0.51652455 -0.16830038 
-0.47072873 0.6526703 -0.5936632 
-0.29402047 0.8353161 -0.46454167 
-0.039151028 0.30934367 -0.95014405 
0.95525986 0.2035412 0.21459192 
0.9190018 -0.14161272 -0.36794245 
0.78909117 -0.2579598 -0.5574872 
0.7026969 -0.54981536 -0.45157513 
0.9370048 -0.34826705 -0.027059546 
-0.27412876 0.31589204 -0.9083313 
-0.0013199659 0.028150473 -0.99960285 
0.5800728 -0.07068489 -0.81149197 
0.85488284 -0.28545707 -0.4332317 
0.43386903 0.022144176 -0.90070385 
0.6377178 -0.26250502 -0.7241596 
0.48823917 -0.56811 -0.6624754 
0.48643517 -0.56929016 -0.6627893 
0.34691006 -0.9361415 -0.057382364 
0.33942473 -0.8257667 -0.45044446 
0.22333454 -0.80648905 -0.547446 
0.31567657 -0.94809073 0.03837123 
0.01146183 -0.38640103 0.92225975 
-0.42184684 -0.82202214 0.38252455 
-0.41107106 -0.7395109 0.53305197 
-0.6357822 -0.76393306 -0.11039634 
-0.5619094 -0.82435703 0.0685088 
-0.63078076 -0.76834375 -0.10845966 
-0.8145112 -0.1894982 -0.54832655 
-0.54072857 -0.5304331 -0.6528808 
-0.50322706 -0.5105098 -0.69723904 
-0.17939027 -0.81387407 -0.5526556 
0.49562946 -0.5262817 0.6909262 
0.04471845 -0.69730484 0.7153784 
0.5244759 -0.82401067 -0.21431668 
0.75429153 -0.48256284 -0.44517124 
0.8608581 -0.4642217 0.2083787 
0.538358 -0.82884276 0.15228397 
0.7920186 -0.609815 0.028847158 
0.32286724 -0.9347517 -0.14831044 
0.051559057 -0.760306 -0.6475157 
-0.35216 -0.15178204 -0.92355055 
0.54255193 0.17466494 -0.8216627 
0.61249876 -0.012521264 -0.7903724 
0.57851166 -0.07311927 -0.81239027 
0.6674789 -0.6991003 0.25638017 
0.6604582 -0.75035745 -0.027543565 
0.30173096 -0.87404186 -0.38080072 
-0.31200492 -0.92906463 -0.19872569 
-0.24386339 -0.9607206 0.13246314 
-0.2879924 -0.36905062 -0.883664 
-0.41532 -0.70317024 -0.57711434 
-0.37079144 0.16129673 -0.91460216 
-0.73397183 -0.67150944 -0.10178638 
0.19253454 -0.89623547 -0.39961553 
-0.5663905 -0.5936694 -0.571628 
-0.6146421 -0.7728662 -0.15777485 
-0.022682907 -0.9990623 0.036879804 
-0.08240732 -0.96598566 -0.24511369 
-0.6437429 -0.47120562 -0.60295975 
-0.27048758 -0.8528232 0.4466867 
-0.23939253 -0.9172564 0.31832674 
-0.458018 -0.6703246 0.58385307 
-0.48391357 -0.7903671 0.375696 
-0.14204383 -0.91272295 -0.3830932 
-0.38993257 -0.9182614 -0.06891124 
-0.46361792 -0.8380233 -0.28770697 
0.034893245 -0.8805836 -0.47260445 
0.3730258 -0.34180942 -0.86256486 
0.49863246 -0.8217969 0.27570945 
0.5647946 -0.815613 -0.12562907 
0.115654655 -0.97840095 -0.1713349 
0.0029738836 -0.94972515 -0.31307095 
-0.21718417 -0.6659298 -0.7137007 
-0.83304614 0.43786004 -0.33810174 
-0.69996744 -0.082837254 -0.70935434 
-0.3991632 -0.027770406 -0.9164593 
0.03048124 -0.70381224 -0.7097318 
0.17916846 -0.7342512 -0.65480834 
-0.46582362 -0.84512234 0.2622529 
-0.31188995 -0.7812276 -0.54074776 
-0.37537435 -0.52765805 -0.76201785 
-0.44438437 -0.60608387 -0.65968543 
-0.43424925 -0.17463547 -0.88370246 
0.8654183 0.055005502 -0.49802175 
0.7076789 -0.6235127 -0.33229876 
0.36323366 -0.92378795 -0.121149756 
-0.014565321 -0.8906311 -0.45449322 
0.4331474 -0.4787095 -0.76368874 
0.9776231 -0.100048296 0.18505 
0.60100347 -0.551577 0.5784097 
-0.37458962 -0.8721253 0.31476992 
-0.006290558 -0.9798399 0.19968529 
0.03626291 -0.99563223 0.08603276 
-0.59872055 -0.77537364 0.200822 
-0.7528539 -0.60210186 0.26586562 
-0.37786895 -0.9255875 0.02242702 
-0.636269 -0.54099333 -0.5499892 
-0.63101876 -0.7240805 -0.27842906 
-0.6127398 -0.39333543 -0.68544674 
0.23027486 0.19440411 -0.9535097 
-0.12518474 0.21773523 -0.9679464 
-0.21458207 -0.3189692 -0.923154 
0.4917931 -0.8084542 -0.32332847 
0.5190621 -0.5684965 -0.63826823 
0.6455119 -0.6153315 -0.45241758 
0.33850166 -0.939726 -0.048289057 
-0.11769925 -0.8658688 0.48622847 
0.03991974 -0.8647911 0.50054264 
0.24379596 0.25017923 0.93700266 
0.25297868 -0.47715107 0.8416227 
0.21387789 -0.969409 0.12042638 
0.100167714 -0.8757059 0.47234082 
-0.6129793 -0.3103231 0.7266058 
-0.6485748 -0.7608622 0.020963864 
-0.9885382 -0.14187251 0.051618677 
-0.79864377 -0.57682633 -0.1715799 
-0.090938 -0.7659346 0.6364546 
0.29086027 -0.949258 -0.119623 
0.33659545 -0.69429153 -0.6361311 
-0.47157973 -0.29918647 -0.82951796 
-0.2726891 -0.7025584 -0.657307 
0.267842 -0.07581159 -0.9604756 
-0.99446493 -0.053454425 -0.09045547 
-0.9241589 -0.13282299 -0.35817397 
-0.2862457 -0.3782328 -0.8803428 
-0.09062893 0.5257392 -0.8458042 
0.35709015 0.078784265 -0.93074155 
-0.701252 0.5549115 -0.44757 
-0.5105977 0.5236568 -0.681963 
0.093204714 0.47976014 -0.8724353 
-0.45114526 0.67160153 -0.5877239 
-0.2283633 0.5731299 -0.78700227 
-0.24213967 0.30368525 -0.92149 
0.4124492 -0.26212937 -0.87245286 
0.0326286 -0.73092246 -0.68168014 
0.22742984 -0.30042952 -0.92629254 
0.21169172 -0.15314227 -0.9652638 
0.25700924 -0.26655295 -0.9289219 
-0.076602854 -0.80721754 -0.5852621 
0.15290062 -0.62823945 -0.7628477 
0.4876516 -0.5095754 -0.70889276 
0.8740634 -0.32891554 -0.3575302 
0.7789681 -0.53769094 -0.32264096 
0.80953574 -0.5007522 0.30642974 
0.6249306 0.19550669 0.7558035 
-0.260122 -0.02966539 0.96511996 
-0.80292124 -0.4428054 0.39905024 
-0.8278277 -0.14988728 -0.54058784 
-0.55936706 -0.39033118 -0.73126614 
0.24063212 -0.9288658 -0.2816107 
-0.17017446 -0.9529748 -0.25075853 
-0.27581102 -0.9611463 0.011235293 
-0.94842494 -0.29126975 -0.12510817 
-0.17077377 -0.9851684 0.016722718 
0.16542213 -0.86314297 -0.47709513 
0.26071018 -0.7673223 -0.58587277 
0.84055454 -0.49224433 -0.22619402 
0.8147683 0.093527816 -0.5721934 
0.26010284 -0.16185391 -0.951919 
-0.16182064 -0.60084903 -0.78281194 
0.15643097 -0.5338129 -0.8310074 
0.6119364 -0.57302153 -0.5451425 
0.85670656 -0.48161456 -0.18466537 
0.5577152 -0.17834832 -0.8106452 
0.7268903 0.30168933 -0.61693925 
0.78864527 -0.39619705 -0.4701771 
0.4125885 -0.9048158 -0.105257735 
-0.09318468 -0.48478886 -0.86965305 
0.21601047 -0.46642116 -0.8577825 
0.3485867 -0.20908253 -0.91365856 
0.43280062 -0.16781504 -0.88573235 
0.018602928 -0.613823 -0.78922457 
0.5227303 0.65208167 -0.54912895 
0.6999273 0.289359 -0.65297264 
0.67385495 0.20094794 -0.7110131 
0.44958884 0.43200132 -0.78182137 
0.43836004 -0.20005545 -0.8762524 
-0.008663457 0.09474507 -0.99546397 
0.12792076 -0.1559128 -0.9794526 
0.056962907 -0.38343212 -0.92181075 
0.42929614 0.0009135254 -0.9031633 
0.4659958 0.45298982 -0.76003164 
0.8671269 0.12347067 -0.4825413 
0.72807294 -0.66819406 -0.15305746 
0.9730419 0.08008679 -0.21627659 
0.75443834 -0.11542806 0.64614177 
-0.47905272 -0.52109045 0.7063804 
-0.8523603 -0.48893803 0.18553044 
-0.96067786 -0.10657667 -0.25639713 
0.473267 0.25810972 -0.8422575 
-0.08011599 -0.39053875 -0.9170938 
-0.7022107 -0.45657212 -0.54629856 
-0.012784619 -0.70962566 -0.704463 
0.08132427 -0.37031156 -0.92534095 
0.51856667 -0.5622867 -0.64414465 
0.0030323316 -0.11155503 -0.9937536 
0.59735954 -0.37705684 -0.7078064 
0.35764778 -0.035367034 -0.9331866 
0.19363908 -0.74160755 -0.64227897 
0.021062126 -0.32818317 -0.9443793 
-0.6780799 0.06528414 -0.7320831 
-0.67581946 0.28693298 -0.6789239 
-0.49921277 0.62126976 -0.6039955 
-0.33571202 0.042176217 -0.9410201 
-0.7235664 0.19345269 -0.66259176 
-0.30076212 0.56699276 -0.7668517 
-0.057114515 0.38331804 -0.9218489 
-0.90572745 0.20032285 -0.3735354 
-0.62834346 -0.39382675 -0.6708838 
-0.40353286 -0.12683858 -0.90613097 
-0.24230708 -0.43022737 -0.86959296 
-0.0069449972 -0.40812585 -0.9128993 
0.6362566 -0.73456156 -0.23578995 
0.25346008 0.19521816 -0.94744277 
0.49071863 -0.80635405 -0.330134 
-0.1342414 -0.5797237 -0.8036789 
-0.5542857 0.29165405 -0.77955455 
-0.5529724 -0.04875542 -0.8317719 
-0.5453844 0.4717293 -0.6928401 
-0.1673827 0.9853606 -0.032366496 
-0.16328862 0.9613695 -0.2215977 
-0.38922063 0.8063641 -0.44529122 
-0.90566 0.4069851 -0.118925236 
-0.7988569 0.5189044 -0.30424678 
-0.537453 0.75066906 -0.3842399 
-0.5721916 0.6324725 -0.5220876 
-0.9362429 0.17774223 -0.30307913 
-0.76652825 -0.6073635 0.20867227 
-0.5161465 -0.8352936 -0.18941389 
-0.14683004 -0.71243215 -0.686208 
-0.58777773 -0.7902693 -0.17318155 
0.12857816 -0.8539866 -0.50415736 
0.2767949 -0.23435082 -0.9319143 
0.6745085 0.46844283 -0.5706133 
0.9482417 -0.028946973 0.31622723 
0.6558289 -0.47383517 0.5876809 
0.25351915 -0.05238547 0.9659109 
-0.49619693 -0.65880126 0.56548166 
-0.5890683 -0.6821954 0.43313748 
-0.015313488 -0.86751807 0.49717006 
0.13707945 -0.7622717 0.6325751 
-0.69823503 -0.61350834 0.368884 
0.071472265 -0.979123 -0.1902895 
-0.4979242 -0.5542237 -0.66701394 
0.12748235 -0.46912292 -0.87388325 
-0.14410926 -0.3337261 -0.9315898 
-0.33073092 -0.3511944 -0.87594503 
-0.11286551 -0.33352464 -0.93596095 
0.49587527 0.29366237 -0.81723326 
0.45613128 0.74641436 -0.48457187 
0.47640404 0.7268879 0.49464455 
-0.08648034 0.64473045 0.75950235 
-0.39392647 0.59294707 0.7023074 
-0.70785207 0.026435776 0.70586586 
-0.9025517 0.25842488 -0.34440842 
-0.98802847 0.137512 -0.06992956 
-0.9861079 0.08488104 0.14278162 
-0.5531922 0.419763 -0.71956754 
-0.29661366 0.71393967 -0.6342795 
0.43754423 0.60897887 -0.66158897 
0.6122334 0.09015582 -0.7855203 
0.68572396 0.2677244 -0.67683554 
0.9539545 -0.21909735 -0.20485924 
0.8396207 -0.53118885 0.11347094 
0.7999211 -0.018460086 0.59982115 
-0.77803475 0.3281137 -0.535727 
-0.6471801 0.055149525 -0.76033974 
0.22700039 -0.06042924 -0.9720181 
0.29098982 -0.5323683 -0.79492694 
0.6470703 -0.008354251 -0.76238465 
0.5228639 0.24501106 -0.81644535 
0.7984684 0.30316368 -0.5201346 
0.69676036 -0.7142767 0.06583231 
0.20876004 -0.89609504 0.39170527 
0.47725025 -0.86519575 -0.15384562 
0.35194856 -0.63272405 -0.68977714 
0.45459038 -0.8850715 0.09998119 
0.3532194 -0.7526641 0.5556374 
0.25726664 -0.9654298 0.041942857 
-0.2485874 -0.9611633 0.119873285 
-0.5475181 -0.830394 0.103294164 
-0.8492575 -0.4096948 -0.3330345 
-0.19173677 -0.77997977 -0.5957084 
-0.4557303 -0.8510931 -0.260673 
-0.5821326 -0.7712174 -0.25757596 
-0.6130264 -0.72388995 -0.31651562 
0.14240324 -0.91799754 -0.3701376 
0.78769106 -0.61607033 0.00036684595 
0.7299996 -0.6099672 0.3082866 
0.7617593 -0.51942015 -0.3872022 
0.64055985 -0.31772277 -0.6990961 
0.5624527 -0.80010396 -0.20852004 
0.4399389 -0.65299124 0.616487 
0.8782703 -0.36382 -0.3102843 
0.60047346 -0.45720744 -0.65604347 
0.18344373 -0.3829728 -0.90536195 
0.6753165 -0.33081877 -0.6591711 
0.44168642 -0.099314235 -0.8916557 
0.3198013 0.0798199 -0.9441165 
0.5190839 -0.30650526 -0.7978763 
0.5557218 -0.6930861 0.45913512 
0.7329093 -0.5399609 0.41386744 
-0.2722549 -0.8510835 -0.4489255 
0.41440073 -0.90330905 -0.110927366 
-0.46454182 -0.48535395 -0.74069726 
-0.14339623 -0.67262536 -0.72595644 
0.25390974 -0.53254664 -0.80741817 
0.14223683 -0.36792114 -0.9189139 
0.26947713 -0.43934953 -0.8569447 
0.56069726 -0.5549099 -0.61456794 
-0.20928182 -0.57873183 -0.7882073 
0.12658937 -0.73387325 -0.66738683 
-0.09907704 -0.9550926 -0.27925277 
0.29882932 -0.6765457 -0.6730432 
-0.43407503 -0.7191106 -0.5426406 
-0.026425693 -0.97572356 -0.21740554 
-0.10211544 -0.98816854 0.11443552 
-0.18895952 -0.95892143 0.21157522 
-0.20066088 -0.7672263 0.609179 
-0.72540516 -0.20785 -0.6561904 
-0.014618575 -0.8987556 0.43820646 
-0.7700375 -0.5218793 -0.3669938 
0.21764585 -0.4859629 -0.84644574 
0.17770979 -0.87556714 -0.44922322 
0.07390186 -0.92857695 -0.363708 
-0.055916943 -0.9859801 -0.15721525 
-0.4025288 -0.7897871 -0.46282485 
0.2945016 -0.6003757 -0.7435172 
0.39543098 -0.32470143 -0.85918766 
-0.16738342 -0.91435283 -0.36870268 
0.06483024 -0.91019607 0.40907252 
-0.080010824 -0.82560515 -0.5585467 
0.38053364 -0.5590714 -0.7366365 
0.34803343 -0.73189735 -0.5858319 
-0.7045278 -0.6508942 -0.28280255 
-0.37324658 -0.7196789 -0.5854481 
-0.13474198 -0.3344442 -0.93273354 
-0.30247343 -0.74921817 -0.58922154 
-0.028602406 -0.47156012 -0.88137 
0.46452448 -0.6887655 -0.5566139 
0.3256787 -0.87655306 -0.35438406 