# OOMMF: rectangular mesh v1.0
# Segment count: 1
# Begin: Segment
# Begin: Header
# Desc: Time (s) :  5.260000000000008e-07
# Title: m
# meshtype: rectangular
# meshunit: m
# xbase: 2e-09
# ybase: 2e-09
# zbase: 5e-10
# xstepsize: 4e-09
# ystepsize: 4e-09
# zstepsize: 1e-09
# xmin: 0
# ymin: 0
# zmin: 0
# xmax: 1.024e-06
# ymax: 1.024e-06
# zmax: 1e-09
# xnodes: 256
# ynodes: 256
# znodes: 1
# ValueRangeMinMag: 1e-08
# ValueRangeMaxMag: 1
# valueunit: 
# valuemultiplier: 1
# End: Header
# Begin: Data Text
-0.29651412 -0.4753578 -0.82832015 
-0.18707792 -0.6157444 -0.7654154 
0.7801253 -0.28980273 -0.55445373 
0.4865294 -0.32235643 -0.81201935 
0.87346834 -0.28403226 -0.39544767 
0.9713633 -0.101637214 0.21476352 
0.85102856 -0.52242005 0.05317679 
0.9754863 0.0007574884 0.22005887 
0.81245685 -0.15871468 0.5610023 
0.4457933 -0.4492766 0.7742215 
0.32455024 -0.75358075 0.5716496 
0.057449486 -0.5329957 0.8441654 
-0.45625955 -0.57263595 0.6811133 
-0.3231277 -0.36687103 0.8723498 
-0.10811828 -0.527693 0.8425263 
-0.6286035 -0.7261284 0.27855915 
-0.42762566 -0.8996308 -0.08832212 
0.06406477 -0.26686358 0.9616026 
-0.33653364 -0.5857408 0.73732823 
0.21149245 -0.49629492 0.841999 
-0.9649982 0.070148565 0.25270107 
-0.37964514 -0.8049764 -0.45594156 
0.06824217 -0.9195368 -0.3870336 
-0.043033037 -0.7478306 0.6624934 
-0.4722137 -0.49477282 0.7295301 
-0.7349394 -0.3858098 0.5576872 
-0.28254074 -0.9104416 -0.3021043 
-0.2181061 -0.85939115 -0.46246785 
0.1417879 -0.9883885 -0.054630663 
-0.3213722 -0.9008576 -0.2918484 
0.45403013 -0.8511931 -0.26330036 
0.69798833 -0.55298394 0.4549957 
0.98327965 -0.10671236 -0.14755942 
0.95418936 -0.2752988 0.11718907 
0.497542 -0.59840727 0.6279816 
0.29340556 -0.87122434 -0.39354986 
-0.051661137 -0.80441236 -0.5918208 
-0.21569647 -0.8237356 -0.5243422 
-0.46060646 -0.4912886 -0.73924106 
-0.18269737 -0.976138 -0.11737287 
-0.123999976 -0.2906418 -0.9487631 
0.22389267 -0.18087572 -0.95768267 
0.429413 -0.38171074 -0.8184751 
-0.074944235 -0.16727987 -0.9830569 
0.15561882 -0.19114254 -0.9691478 
-0.12541102 -0.0640405 -0.9900358 
-0.11650548 -0.6932842 -0.7111846 
-0.21949354 -0.60437244 -0.7658698 
-0.33676448 -0.89584607 0.28991315 
-0.83855724 -0.5139157 0.18086556 
-0.6083712 -0.5141911 0.6045595 
-0.48280537 -0.65310687 -0.5833957 
0.39377752 -0.8356425 -0.38293728 
-0.3833042 -0.68668944 -0.6176856 
0.055043034 -0.8872997 -0.45789683 
0.17137893 -0.08698121 -0.981358 
0.7358464 -0.46730813 -0.49005425 
0.3985178 -0.9143045 -0.07232593 
0.2670113 -0.81079274 0.5208839 
0.27911127 -0.8848617 0.37298363 
0.23379725 -0.73756963 0.6335061 
0.34574836 -0.6067507 0.71575946 
-0.47248253 -0.84715194 -0.2430927 
0.39340305 -0.8181443 -0.41937357 
-0.18230076 -0.9781091 0.10034454 
0.16807473 -0.61817336 -0.7678623 
0.76033735 -0.46522456 -0.45326954 
0.11032767 -0.64672923 -0.7546981 
0.2713334 -0.9384445 -0.21377593 
0.32088405 -0.8516504 -0.41439736 
0.5317875 -0.82634157 -0.1853693 
0.31765312 -0.86932594 -0.37864083 
0.520821 -0.56174797 -0.64279455 
0.9496111 0.21810779 0.22509481 
-0.08609948 -0.7562199 -0.648628 
-0.024767218 -0.5511041 -0.83406883 
-0.12382315 -0.32638535 -0.93709147 
-0.52562207 -0.4451828 -0.72493714 
-0.39775386 -0.49577007 -0.7720129 
0.3748086 -0.46565247 -0.80167717 
0.6464124 -0.5957394 -0.47670293 
0.18338685 -0.07458747 -0.9802071 
-0.39509466 -0.6268 -0.67158175 
0.029742857 -0.89703715 -0.44095317 
0.34912232 -0.7797884 -0.5196574 
0.47339037 -0.71573913 -0.51343846 
-0.08925535 -0.4900305 -0.86712384 
0.72379154 -0.6160125 -0.3108929 
0.5362173 -0.8106067 -0.23534633 
-0.3737321 -0.864584 -0.33588538 
-0.03693924 -0.42199337 -0.90584606 
-0.737328 0.26541093 -0.6212122 
-0.19198082 -0.6786958 -0.7088833 
0.059421975 -0.58893126 -0.8059957 
-0.06775956 -0.98821247 -0.13727675 
-0.017539028 -0.9886399 0.14927731 
-0.705959 -0.6795697 -0.19951692 
-0.9409631 -0.21646066 -0.26025623 
-0.8749491 -0.10270067 -0.47319832 
-0.933964 -0.22378908 -0.27862117 
-0.13315444 -0.04498919 -0.9900737 
0.53186166 -0.7062253 -0.46729973 
0.6059398 -0.4618012 -0.6477474 
0.21902595 -0.4438062 -0.86894405 
-0.12739256 -0.88548917 -0.4468558 
-0.66894674 -0.6189756 -0.41155747 
0.42036402 -0.20128138 -0.8847486 
0.15427427 -0.98802793 0.000511677 
0.84315586 -0.5281454 -0.10075056 
0.26015317 -0.8147425 -0.5181844 
-0.2977819 -0.90066916 -0.316419 
0.83645433 0.0025010007 -0.54803103 
0.7802793 0.42068413 -0.46280584 
0.11777028 -0.82511204 -0.55255795 
-0.023268152 -0.3257542 -0.9451682 
0.7208741 -0.14795165 -0.67709005 
0.30749294 0.17219847 -0.9358396 
0.86789775 -0.07853911 -0.49049482 
0.49323067 -0.55570775 -0.66926265 
0.87466085 -0.44400707 0.19448948 
0.91966206 -0.15841976 0.35933968 
0.34039268 0.20184687 0.9183631 
0.0030478123 -0.99623966 0.08658687 
-0.3678175 -0.8652692 0.34061658 
0.8253074 -0.441619 0.35190952 
0.06952374 -0.9516436 0.2992343 
0.23866117 -0.6567865 0.7153128 
-0.28946728 -0.7221336 0.6282768 
-0.48967075 -0.6880913 0.5354933 
-0.2130187 -0.96850586 0.12891686 
-0.16135988 -0.9775645 -0.13539128 
-0.85450244 -0.2648674 -0.4468457 
-0.06649777 -0.7132707 -0.697727 
0.5129163 0.109347396 -0.8514459 
0.0020382246 -0.17828292 -0.9839772 
0.5865971 -0.6707748 -0.45383367 
0.74158615 -0.5034879 0.44333968 
0.52776533 -0.63496614 0.5641647 
0.453015 -0.6443336 -0.6161264 
0.107347354 -0.32336843 -0.9401646 
0.87655044 -0.19081444 -0.4418703 
0.4422688 -0.75545603 -0.48340932 
0.053898245 -0.64305806 -0.76391846 
0.85392547 -0.4968162 -0.1548713 
0.83282614 -0.32947516 -0.44479975 
0.5648206 -0.50449646 0.6530399 
0.13355325 -0.91309524 0.38525385 
-0.71052474 -0.6679653 -0.2213074 
0.44190088 -0.20269267 -0.87386465 
0.14884123 -0.96399206 -0.22037613 
0.61152387 -0.75490856 0.2369634 
-0.43662435 -0.69470644 0.5716136 
-0.46621722 -0.88170624 -0.07235894 
-0.62895215 -0.7774409 -0.0022156197 
-0.4682934 -0.37573835 -0.79970115 
-0.004473123 0.21132238 -0.97740626 
-0.80427504 -0.4896092 -0.33678573 
-0.2645205 0.00075143203 -0.9643798 
0.16772595 -0.7453058 -0.6452808 
0.30324572 -0.9284779 -0.21440847 
0.29171097 -0.9473842 -0.13178788 
-0.21181713 -0.89082277 -0.40195552 
-0.25333405 -0.9086637 -0.33189204 
-0.6219805 -0.7827339 0.021630608 
-0.8952607 -0.42458668 -0.13503529 
0.08506466 -0.82945555 -0.5520576 
0.83449274 -0.49422768 0.24364072 
0.6044161 -0.74806345 0.27401167 
0.4497866 -0.7120141 -0.53919196 
0.31430635 -0.9472121 -0.063252404 
0.7906748 -0.59299517 -0.15228347 
-0.057320938 -0.42282304 0.90439755 
0.18212982 -0.8235414 -0.53722274 
0.617831 -0.33944643 -0.709268 
0.0605578 -0.5317873 -0.8447101 
0.39571533 -0.13727526 -0.9080556 
0.7768326 -0.5873503 -0.22704807 
0.81223094 -0.4967835 -0.30575687 
0.5346709 -0.72840804 0.42842597 
0.62366986 -0.7531943 0.20912766 
0.11830537 -0.54054207 0.8329575 
-0.036925424 -0.6190832 0.78445685 
-0.27001277 -0.7817478 0.5621065 
-0.9667928 -0.22087647 -0.12855032 
-0.76420885 -0.026439395 -0.6444267 
-0.8299421 -0.4579793 -0.31851396 
-0.7306477 -0.07126855 -0.679025 
0.013342281 -0.537189 -0.8433564 
0.26819825 -0.61993086 -0.7373978 
0.14695081 -0.8052272 -0.57446915 
-0.07135501 -0.8239043 -0.56221896 
-0.04567026 -0.44074422 -0.89647025 
-0.42364904 -0.47161585 -0.7733692 
-0.92222875 -0.36642566 -0.12339551 
0.395236 -0.37114945 -0.8402599 
0.05162987 -0.6908141 -0.72118676 
-0.25411633 -0.8569104 -0.44847453 
-0.2751811 -0.92460686 0.26339617 
-0.67588174 -0.6122545 -0.4102783 
-0.35508984 -0.8819952 -0.30983198 
0.0009170099 -0.99997705 0.0067095496 
-0.09709564 -0.7148819 -0.69247127 
-0.21869224 0.17761998 -0.95949197 
0.1580099 -0.22212255 -0.96213025 
-0.1895683 -0.33207384 -0.924008 
0.2318977 0.46758002 -0.85299027 
0.35068807 0.9259359 -0.14021584 
0.68246573 -0.085556336 -0.7258931 
0.099883586 -0.5178116 -0.84964377 
-0.5027949 0.02713008 -0.86397994 
0.21601985 -0.16931222 -0.961597 
0.67532384 -0.66927016 -0.3098634 
0.5594404 -0.81527317 0.14951934 
0.788588 -0.47203162 0.39410037 
0.85979337 -0.5042498 0.08054584 
0.61092675 -0.35964584 0.7052825 
0.5204622 -0.38114765 0.7640979 
0.18933219 -0.71580744 0.6721407 
-0.34747273 -0.8237742 0.44794977 
-0.69037724 -0.68667996 0.2277059 
-0.6517241 -0.7369692 -0.17925458 
-0.7125193 -0.64706737 0.27133024 
-0.51599926 -0.80072826 0.30426812 
-0.28703517 -0.69409835 0.66018057 
-0.5104599 -0.7378717 -0.44156086 
0.4067263 -0.91315264 -0.026947964 
-0.32573155 -0.90281516 0.28075576 
-0.03805197 -0.9950931 -0.09133302 
0.3069489 -0.67659295 -0.6693314 
0.59919715 -0.58997655 0.54119366 
0.6043818 -0.64798295 0.4635093 
0.5777989 -0.37500957 0.7249251 
0.8193665 -0.24000002 0.52061373 
0.65175706 0.35108438 0.6722742 
0.5742138 -0.58111095 0.576705 
0.5054147 -0.85915244 0.08008256 
0.54095936 -0.53489316 0.6490396 
-0.00635912 -0.9378264 0.34704638 
-0.19428481 -0.9301767 0.3114882 
-0.40458646 -0.86096376 0.30830368 
-0.5696457 -0.79504746 0.20833504 
-0.6168505 -0.7847467 -0.06056432 
-0.82318896 -0.13583778 -0.5512787 
0.4226067 -0.88118905 0.21191873 
0.14555922 -0.5120603 0.84652644 
-0.5924091 -0.76248527 0.26013038 
-0.04996642 -0.7942793 0.6054946 
-0.19635585 -0.5060059 0.83988243 
-0.9157541 -0.24537827 -0.3180945 
-0.8745235 -0.24834946 0.41657072 
-0.92365336 0.02283918 -0.38254812 
-0.21398944 -0.6688654 -0.71191835 
-0.052686173 -0.5116215 -0.85759413 
0.2605742 -0.5477122 -0.79505503 
0.025029484 -0.8507357 -0.5249973 
-0.67754453 -0.6422137 0.35846207 
-0.17170385 -0.40189153 -0.89944494 
0.6970949 -0.53391767 0.4785297 
0.86197394 0.23799473 -0.4476153 
0.51283836 0.14514212 -0.84612685 
0.21923107 0.07347072 -0.97290283 
0.9572417 0.04842784 -0.28520715 
0.7841458 0.17482246 0.59544307 
0.84157145 -0.14446604 0.5204683 
0.5228584 -0.6031092 0.6023939 
0.89131624 -0.4501732 0.053848397 
0.0892406 -0.6696845 0.73726445 
-0.12867405 -0.59482574 0.79348934 
-0.45508894 -0.86574167 0.2082915 
0.04510952 -0.5943064 0.8029726 
-0.33212665 -0.864554 0.37714517 
-0.60347116 -0.34711862 0.7178658 
-0.4470425 -0.8943346 0.017848287 
-0.3021466 -0.68739736 0.6604486 
-0.30089787 -0.6936402 0.65446454 
-0.0022883855 -0.23340566 0.97237676 
-0.35454327 -0.7760804 0.52153474 
-0.43279865 -0.8403603 0.3263128 
-0.75256056 -0.64798665 0.11732805 
-0.47863758 -0.8154684 -0.32544947 
-0.5064167 -0.7556921 -0.4152968 
-0.67547643 -0.57083607 -0.46677375 
-0.37769714 -0.5248471 -0.7628109 
0.3170564 -0.69516313 -0.6451538 
-0.25304496 -0.3065491 -0.91760343 
0.3482762 -0.84478706 -0.40624928 
0.51363146 -0.7924059 0.32905263 
0.93771374 -0.3355612 -0.089953914 
0.9907431 -0.13457903 0.01779724 
0.5595725 -0.8279273 -0.03761851 
0.45364693 -0.7640546 -0.4587212 
0.46393153 -0.66547364 -0.5847328 
-0.25289568 -0.94716924 -0.19726667 
-0.46814823 -0.85434526 -0.22568037 
-0.69115704 -0.5159726 -0.5060379 
-0.56008935 -0.5973948 -0.5739507 
0.102947734 -0.47213367 -0.87549514 
-0.14469314 -0.69663125 -0.7026869 
-0.061347853 -0.54342055 -0.837216 
0.56977767 -0.18345743 -0.8010599 
0.4744803 -0.15830794 -0.86591405 
-0.08786636 0.09434512 -0.99165446 
-0.24395171 0.31703565 -0.9165021 
0.524876 -0.4380281 -0.7298196 
0.25993273 -0.58709353 -0.7666526 
-0.23010208 -0.23067355 -0.9454326 
-0.1935836 -0.94278026 0.27146068 
-0.6857317 -0.6933256 -0.22152126 
-0.5264892 -0.7661446 0.36855376 
-0.3556671 -0.7305655 -0.58290225 
-0.40442488 -0.68606216 -0.6047804 
-0.35498968 -0.5452558 -0.7593936 
0.8691314 -0.33314103 -0.36555114 
0.48844364 -0.5908967 -0.64207786 
0.54796946 -0.7258828 -0.41572082 
-0.65673447 -0.44145292 0.6114076 
0.46737498 -0.8414363 0.27119288 
0.6072101 -0.7061884 0.3641344 
0.3201402 -0.3810491 0.8673592 
-0.47824705 -0.8094814 0.34061667 
-0.9942311 -0.106548995 0.0123213865 
-0.8644646 -0.3679445 -0.34251714 
-0.12692592 -0.6858982 -0.7165428 
-0.3618958 -0.13751218 -0.9220206 
0.37884906 -0.5826889 -0.7189903 
0.5207801 -0.37334016 -0.76772743 
0.19056967 -0.44548708 -0.8747711 
0.14480183 -0.2135724 -0.96613634 
0.6400001 -0.6736888 -0.3695177 
0.9754266 -0.22029135 -0.003836249 
0.044153318 -0.69976795 -0.71300447 
0.27204466 0.17781067 -0.9457141 
-0.44386932 -0.44577852 -0.7773427 
0.04735341 -0.86790466 -0.49446875 
0.49138197 -0.49514818 -0.71649987 
0.24315943 -0.5608477 -0.791406 
-0.037484333 -0.48905906 -0.8714449 
-0.22815023 -0.27121773 -0.93508744 
-0.39296186 0.2202836 -0.89277995 
0.18814272 -0.7663792 -0.6142193 
0.5873878 -0.34868777 -0.73033726 
-0.0763713 -0.38336492 -0.92043406 
-0.16709018 -0.52020305 -0.83753794 
-0.18561654 -0.46081704 -0.8678676 
-0.05458371 -0.9380164 -0.3422659 
-0.1532013 -0.4998865 -0.8524335 
-0.05870866 -0.45088902 -0.89064723 
-0.19152556 -0.49527264 -0.8473624 
-0.0498824 -0.5884389 -0.8070015 
0.08903848 -0.5090224 -0.8561358 
-0.17366737 -0.68901163 -0.70363533 
-0.020087749 -0.997383 0.06945268 
0.24227737 -0.918988 -0.3110673 
-0.09658011 -0.9186204 -0.3831565 
-0.6779147 -0.04240558 -0.7339165 
-0.2048002 -0.07924642 -0.9755905 
0.23230913 -0.1308132 -0.9638052 
0.6671023 -0.25935176 -0.6983633 
0.38105914 -0.010097756 -0.9244955 
0.4696224 0.10637416 -0.8764356 
0.7608002 -0.61225724 -0.2152307 
0.32252672 -0.6030224 -0.7296167 
0.28515825 -0.09366547 -0.9538928 
0.47898072 -0.05600204 -0.87603724 
0.407457 -0.6748453 -0.6152745 
-0.5443301 -0.8115463 -0.21236141 
-0.4803755 -0.7236947 -0.49548507 
-0.089726284 -0.5079361 -0.8567089 
0.033235434 0.27310508 -0.9614099 
0.50602114 -0.48250985 -0.71493137 
0.15137519 -0.66704696 -0.7294751 
0.3427475 -0.3165261 -0.88449734 
0.6110248 -0.10435095 -0.78470355 
0.6470209 0.046572626 -0.7610487 
0.38397798 0.042090915 -0.9223825 
0.9964859 -0.030580357 -0.07797966 
0.8733942 -0.077054 0.48087958 
0.13099292 -0.2944878 0.94663495 
0.05584754 -0.92116237 0.38515085 
0.26865906 -0.85674864 0.44023204 
0.7057634 -0.66199476 -0.25231126 
0.74001443 -0.64577436 0.18802695 
0.34153253 -0.9230898 0.17680699 
-0.15638083 -0.64305365 0.74968463 
-0.6140927 -0.6629903 0.42817533 
-0.8788319 -0.1516656 -0.45238486 
-0.51375383 -0.10790397 -0.851125 
-0.73050344 0.066397235 -0.67967355 
-0.56118023 -0.104736835 -0.8210402 
-0.17250788 -0.5948968 -0.7850726 
0.42472103 -0.59439594 -0.68286574 
0.79557014 0.036420405 -0.60476583 
0.33795333 -0.4980659 -0.79857254 
-0.0933778 -0.97417593 -0.20557691 
0.002975163 -0.8889229 -0.45804733 
-0.1743345 -0.90975857 -0.3767583 
-0.5356221 -0.0645356 -0.8419882 
-0.17240937 -0.47395593 -0.863505 
0.6623544 -0.23785739 -0.71042985 
0.4792317 -0.78438044 -0.39380756 
0.9664655 -0.25188878 0.04996619 
0.60758716 -0.7197508 -0.3358521 
0.41034585 -0.8826105 -0.22937977 
0.11719422 -0.7553482 -0.6447595 
0.07662156 -0.36568218 -0.92758065 
-0.08531955 -0.6898345 -0.71892214 
0.21187411 -0.8675945 -0.44987687 
0.54406065 -0.23393856 -0.8057735 
0.0068082074 -0.9906725 -0.13609466 
-0.32043344 -0.93599397 -0.14573221 
0.00044147111 -0.9199915 -0.39193797 
0.4413135 -0.6831367 -0.5818649 
-0.19311617 -0.04039553 -0.980344 
-0.16278397 -0.25421667 -0.95334953 
0.4103318 -0.10109192 -0.9063158 
0.7159865 -0.5090027 -0.4777863 
0.08473206 -0.7997922 -0.59426683 
0.25080875 -0.5997697 -0.75984955 
-0.5602643 -0.75150865 -0.34833705 
-0.7968817 -0.23217417 -0.55774087 
-0.9046447 -0.41906875 -0.077454805 
0.31514034 -0.70067275 -0.6401128 
0.76609886 -0.35364217 -0.53668416 
0.8152508 -0.52537733 -0.24360792 
0.58503425 -0.54399943 -0.60149777 
0.26045153 -0.9341485 -0.2439913 
0.76741934 -0.63431364 0.09334763 
0.5325569 -0.8315912 0.1576052 
0.2862027 -0.931049 0.22635347 
-0.2262028 -0.909153 -0.349676 
-0.565274 -0.44737527 -0.6930518 
-0.20582993 -0.64125603 -0.73920554 
0.7016233 -0.4274546 -0.5700942 
0.9180934 -0.31864336 -0.23573516 
0.16975482 -0.78121954 0.60073245 
0.4493959 -0.8636453 0.22838582 
0.06159831 -0.9595957 -0.2745575 
0.362201 -0.9076765 0.21197607 
0.020947589 -0.9430756 0.33191818 
-0.64967734 -0.57583493 -0.49631998 
-0.27653793 -0.9213143 -0.27332547 
0.12491404 -0.9774509 -0.17025362 
-0.07649967 -0.577365 -0.81289446 
0.1367248 -0.8137402 -0.56491876 
0.12741022 -0.7793028 -0.6135585 
0.2821641 -0.81127644 -0.51206833 
-0.3007682 -0.61869764 -0.7257767 
0.21548831 0.1412462 -0.96623725 
-0.0878324 -0.032223124 -0.99561393 
-0.4755207 -0.550313 -0.68632036 
-0.3504729 -0.48380914 -0.8019335 
-0.42565432 -0.169128 -0.8889399 
-0.015673105 -0.9829205 -0.18336241 
-0.12234571 -0.7724918 -0.6231277 
-0.19645646 -0.3740472 -0.90636283 
-0.6702941 -0.6477117 -0.3621816 
-0.36579058 -0.57991874 -0.72793657 
-0.2619334 -0.22731665 -0.93793285 
-0.32956088 -0.4089798 -0.8509555 
-0.37862626 -0.39422578 -0.8373938 
0.40005878 -0.3309598 -0.8546453 
0.4153547 0.21322058 -0.88431746 
-0.04660281 0.62740976 -0.77729356 
0.07134895 -0.52968377 -0.845189 
-0.19026408 -0.80822724 -0.5572866 
0.24417621 -0.7137175 -0.6564948 
-0.022770325 0.78595483 -0.61786443 
0.84079266 0.4964299 -0.21592867 
0.9804444 -0.07984016 -0.17987339 
0.6134978 -0.08275629 0.7853483 
0.19671303 -0.38909823 0.89994806 
0.6970142 -0.23884256 0.67611057 
0.31348228 -0.84638184 0.43054235 
0.31131834 -0.9464131 0.08592649 
0.108218566 -0.94074833 0.32137445 
-0.2960322 -0.84824324 0.4391452 
-0.41830662 -0.8845666 0.20630457 
-0.94265604 -0.32565677 -0.0731248 
-0.33536592 -0.61261547 -0.7157039 
-0.13776165 -0.98631966 -0.09052829 
-0.42489573 -0.89863384 -0.109183066 
-0.18285449 -0.7695221 -0.6118824 
0.17604923 -0.946452 0.27062023 
0.23695414 -0.96199065 -0.13574569 
0.696087 -0.3954046 -0.5992646 
0.5236009 -0.8188865 0.23508932 
0.6504034 -0.74060404 0.16876376 
0.5460672 -0.77754986 -0.3118122 
0.27012864 -0.8090043 0.5220561 
0.47771055 -0.73644906 0.47899422 
0.03394217 -0.9046743 0.42474985 
0.44317922 -0.77175415 0.4560568 
0.54092413 -0.6139749 0.57483554 
-0.28093827 -0.81591463 0.5053286 
0.067455806 -0.62692505 0.7761538 
-0.20672314 -0.95659256 0.20541728 
-0.26613265 -0.957634 -0.110048585 
0.0045069917 -0.5528061 -0.83329785 
0.021246634 -0.7351401 -0.6775822 
0.54635775 -0.81249166 -0.20334835 
-0.1876731 -0.97344804 0.13106392 
-0.19574982 -0.8857226 0.42092463 
-0.3168816 -0.94110286 -0.117947586 
-0.2728004 -0.76974 0.57713115 
-0.84473646 -0.4619714 0.27019042 
-0.87520885 -0.018696088 -0.48338383 
-0.42650658 0.16180016 -0.88989496 
-0.4867846 -0.24185605 -0.83937263 
0.09558402 0.19798175 -0.97553426 
0.26873523 -0.4858506 -0.83170354 
-0.20788988 -0.9535915 -0.21781898 
-0.092508495 -0.96277845 0.25396824 
-0.088851355 0.0027390078 -0.9960411 
0.7614237 -0.19131222 -0.6193817 
0.8492782 0.15328112 -0.5052044 
0.62533844 0.06452677 -0.77768135 
0.5483751 -0.10002786 -0.8302284 
0.9459615 0.20324986 -0.2526787 
0.92861533 -0.24319518 0.28023145 
0.7903087 -0.11556809 -0.60171103 
0.25819862 -0.9658416 0.021988524 
0.39929524 -0.907612 0.12962943 
-0.037902407 -0.95820373 0.2835651 
-0.42333606 -0.87375677 0.23944911 
-0.25590527 -0.9156719 -0.30993167 
-0.2554453 -0.96001107 0.11457101 
-0.61052865 -0.76952285 0.18732196 
-0.55064297 -0.5045869 0.66496956 
0.30701455 -0.908715 -0.2828057 
-0.04672005 -0.9305687 0.36312434 
-0.21579127 -0.96054316 0.17547385 
-0.11556453 -0.9035404 0.41262534 
0.10147537 -0.671144 0.7343491 
-0.8207067 -0.5606597 -0.110006124 
-0.6362032 -0.56670946 -0.5235321 
-0.47179627 -0.63575923 -0.6109162 
-0.8251657 -0.5096846 -0.24356364 
-0.62010384 0.19932966 -0.75877464 
-0.28567865 -0.5261792 -0.8009515 
-0.4500074 -0.53077066 -0.7181755 
-0.44458413 -0.6158424 -0.6504485 
0.7067334 -0.4813518 -0.5184866 
0.6100677 -0.50879556 -0.6074081 
0.7496501 -0.6583395 0.067926824 
0.70498717 -0.6218202 -0.34107593 
0.7682015 -0.5367233 -0.34899086 
0.58947426 -0.6788991 -0.43773988 
0.4904759 -0.7574489 -0.4309347 
0.13748276 -0.8592723 -0.49269634 
0.02189903 -0.69396055 -0.71967995 
-0.08187975 -0.14427322 -0.9861445 
0.50818604 -0.42307663 -0.75016874 
0.7959497 -0.3149919 -0.5169568 
0.16913053 -0.3849136 -0.90732384 
0.71647745 -0.4749416 -0.5109702 
0.73371917 0.06452328 -0.67638224 
0.4185702 0.5976581 -0.6838157 
0.072185434 0.4532383 -0.88846177 
-0.84414124 0.23321515 -0.48273832 
-0.13871108 -0.39929953 -0.90626657 
-0.41003588 -0.7692201 -0.49007234 
-0.81224215 0.31811064 -0.48894626 
-0.16359952 -0.9854913 0.04519142 
-0.41369015 -0.77803826 -0.47277585 
-0.5157962 -0.8434809 0.14998096 
-0.054841015 -0.8713295 -0.48762435 
0.109961055 -0.68421334 -0.72094434 
0.01919068 -0.6785092 -0.73434126 
-0.14875448 -0.5519704 -0.82048815 
0.45950276 -0.73109293 -0.5043417 
0.2333255 -0.7806837 -0.57973474 
0.35226586 -0.77618295 -0.52292335 
-0.19945022 -0.74881566 0.63205606 
-0.013154837 -0.8877453 0.46014693 
0.08166481 -0.81235546 0.57741624 
-0.7866488 -0.61735374 0.007619727 
-0.94746745 -0.28056782 0.15358117 
-0.31256798 0.12104681 -0.9421513 
-0.24219033 -0.5915731 -0.7690157 
-0.19657302 0.26183295 -0.9448823 
0.35207912 0.12904441 -0.9270317 
0.11633615 0.031443257 -0.9927121 
0.09988253 -0.12772259 -0.9867677 
0.5211221 0.039587352 -0.8525636 
0.6874629 0.065565005 -0.72325385 
0.4861371 -0.40195036 -0.77595544 
0.48552775 0.028878974 -0.87374413 
0.3224281 0.28730586 -0.9019399 
0.003151112 0.37377837 -0.92751276 
0.21657287 -0.3644907 -0.90567255 
-0.07663154 -0.56548154 -0.82119316 
0.2137824 -0.5035738 -0.83708453 
0.050429747 -0.2965568 -0.9536829 
0.11933002 -0.193877 -0.97374123 
0.6248786 -0.32511163 -0.7098093 
0.14439636 -0.025622511 -0.9891882 
0.08213482 -0.096390754 -0.991949 
0.11935469 -0.034651693 -0.99224687 
-0.2754806 0.18818676 -0.9427069 
-0.34731594 0.19099523 -0.9180917 
-0.6487331 -0.7178635 -0.2526212 
-0.49723223 -0.12771915 -0.8581655 
-0.70046073 0.065085426 -0.7107171 
-0.19647469 -0.47853792 -0.85580325 
-0.27898616 -0.08874082 -0.95618606 
0.23562813 -0.794456 -0.559749 
0.22219242 -0.77971816 -0.5853805 
0.1265096 -0.81255025 -0.56899685 
0.13179702 -0.9405173 0.3131404 
-0.13267536 -0.8478668 -0.5133412 
0.4634831 0.02094262 -0.88585836 
-0.23719439 -0.70185506 -0.67166835 
-0.19177371 -0.27634263 -0.9417312 
0.19229317 -0.5247602 -0.8292467 
0.5596028 -0.6723816 -0.48450768 
0.7600418 -0.17189236 -0.62672925 
0.5221092 -0.45292908 -0.7226737 
0.05972757 -0.26060548 -0.96359617 
0.42139813 -0.39415744 -0.81673956 
0.38335738 -0.57528925 -0.7225507 
0.049456526 -0.72006726 -0.6921396 
-0.104110844 -0.3952211 -0.9126672 
-0.056161065 -0.50689286 -0.86017776 
-0.32439077 0.106245816 -0.93993753 
0.164128 -0.012893572 -0.9863548 
0.19259037 -0.2990534 -0.9345994 
0.6645377 -0.25217217 -0.7034194 
0.7956626 -0.25477597 -0.54955477 
0.8294021 -0.37395838 -0.4150269 
0.9844374 0.06304328 -0.1640386 
0.98745596 0.02580441 -0.1557724 
0.9498974 -0.1098373 0.29262745 
0.72803724 -0.63008225 0.2701078 
-0.066404015 -0.9687212 0.23910236 
-0.40439 -0.90644705 0.12174806 
0.20834382 -0.9345117 -0.28858402 
0.5581037 -0.72188914 -0.40914103 
0.76621073 -0.637735 -0.07883697 
0.78970724 -0.60122013 0.12205257 
0.2336641 -0.7291092 0.64327365 
-0.25339526 -0.9041957 0.3438328 
-0.72954696 -0.08075258 -0.6791467 
-0.5144595 0.50202924 -0.6951965 
-0.6823693 0.11506265 -0.7218953 
-0.7253361 0.1358529 -0.6748567 
-0.5983776 -0.23735364 -0.76525 
-0.53981006 -0.6040495 -0.58628446 
-0.91061187 -0.19984713 -0.36172813 
-0.58866 -0.80376124 -0.086297296 
-0.5067104 -0.5798881 -0.6379454 
-0.40958923 -0.6473585 -0.6427781 
-0.47186092 -0.462449 -0.75065863 
0.007730818 -0.24478589 -0.96954644 
-0.5185289 -0.12972414 -0.84516245 
-0.47568768 -0.56132215 -0.6772287 
0.2509599 -0.7083061 -0.6597892 
0.9475262 -0.1386844 -0.28802928 
0.30012187 -0.90816015 0.2918425 
-0.3586606 -0.70138156 0.6159761 
-0.16368474 -0.97582585 0.14481428 
0.25548834 -0.77336234 -0.58020395 
0.0019979896 -0.39975464 -0.9166201 
-0.07513706 -0.34300858 -0.93632245 
0.22535907 -0.17289025 -0.958813 
0.14232141 -0.81490713 -0.56184614 
0.08699472 -0.9262672 -0.3666894 
0.083822295 -0.7554148 -0.6498635 
0.4719576 -0.82231826 -0.31788176 
0.60805935 -0.030570585 -0.79330283 
0.44889563 0.08398765 -0.88962847 
0.76928645 -0.034567773 -0.63796824 
0.622143 -0.23179206 -0.7478039 
0.43490267 -0.027659718 -0.9000526 
0.20672382 -0.3148756 -0.926347 
-0.82926685 -0.3365176 -0.44617546 
-0.7081313 -0.6328157 -0.31320024 
-0.33182386 -0.86323744 -0.3804132 
0.45245698 -0.4795128 -0.75189775 
0.15696342 -0.48606274 -0.8597124 
-0.19924277 -0.71588653 -0.6691852 
0.468474 -0.8402006 -0.27312112 
-0.053055525 -0.8800324 -0.4719408 
0.7959827 -0.2490907 -0.55169326 
0.1262014 -0.98263013 0.13605592 
0.05676526 -0.9930993 -0.10262383 
0.18033609 -0.7836888 -0.5943995 
-0.51645434 -0.10757517 -0.8495308 
0.40105975 0.32663938 -0.85583746 
0.60191494 -0.29317585 -0.7427963 
0.96030825 -0.018243233 -0.27834406 
0.6249441 -0.77934796 0.045406647 
0.23321481 -0.9724231 0.0020345086 
0.10878611 -0.9548469 -0.27646524 
0.3262031 -0.6729082 -0.6639173 
0.17291701 -0.29832903 -0.9386691 
-0.20533644 -0.36369464 -0.9086051 
-0.56264645 -0.2601948 -0.7846832 
-0.20148425 -0.6600257 -0.72371966 
0.17691746 -0.36101937 -0.91562295 
-0.37682015 -0.5827412 -0.7200135 
-0.24601015 -0.36306685 -0.8986999 
-0.38047424 0.00775974 -0.92475903 
-0.65520644 -0.52416974 -0.54401356 
0.56595933 0.16207346 -0.8083454 
0.06444671 -0.14984886 -0.9866063 
0.10327318 -0.411247 -0.90565485 
0.10008471 -0.5798898 -0.8085239 
0.12110573 -0.731347 -0.6711669 
0.11378767 -0.69435185 -0.71058285 
-0.7398688 -0.60429883 -0.29566407 
-0.8445552 -0.33706173 -0.41607198 
-0.09685248 -0.44058412 -0.8924715 
-0.511001 -0.4078164 -0.7566796 
-0.53863466 0.03440714 -0.8418367 
0.14592057 -0.48771283 -0.8607226 
-0.056029286 0.7159276 -0.69592273 
-0.23692985 0.2636988 -0.93505466 
-0.00054286834 0.4641959 -0.8857324 
-0.21119198 0.124961756 -0.9694238 
0.13420813 -0.9541323 -0.2676188 
0.005230456 -0.9639736 -0.26594672 
-0.17413373 -0.83612704 -0.52016264 
0.4425167 -0.19941247 -0.87430763 
0.6098488 -0.449853 -0.65246975 
0.86792916 -0.2635659 -0.4209895 
0.4177305 -0.8254165 -0.37972236 
-0.34701568 -0.9081223 -0.23429486 
-0.7406542 -0.38496682 0.55066514 
-0.4899392 -0.80130947 -0.3433115 
0.17190571 -0.790905 -0.587297 
0.13257235 -0.9459469 0.29598853 
-0.3983 -0.908731 0.12476051 
-0.58102596 -0.795745 0.17087653 
-0.9192718 -0.3922785 -0.03251326 
-0.7129946 -0.46844208 -0.5217287 
0.27422214 -0.96105057 -0.03441077 
-0.25016117 -0.7486773 -0.61392325 
0.049392294 -0.9156359 -0.39896274 
0.278157 -0.45345083 -0.84676504 
0.5343859 -0.5987782 -0.5965705 
0.720838 -0.6664955 -0.19020097 
0.058534607 -0.7559362 -0.65202326 
0.904769 -0.38906574 0.1732652 
0.86422807 -0.44573858 0.233296 
0.43043882 -0.8770402 -0.21336117 
0.24069387 -0.9055984 0.34922504 
-0.73008937 0.008254092 0.683302 
0.10054938 -0.83014816 0.5484013 
-0.15973513 -0.9836928 0.08266272 
-0.92044425 -0.38999492 -0.026199918 
-0.758639 -0.620129 -0.19976765 
-0.70781404 -0.7047705 -0.047935825 
-0.1650802 -0.981544 0.096539706 
-0.741347 -0.6673118 0.07141126 
-0.061292373 -0.69957197 -0.71192867 
0.023029285 -0.6460169 -0.76297575 
0.1337148 -0.85278577 -0.5048531 
-0.67756206 -0.6138142 -0.4051442 
-0.066904485 -0.86644244 -0.49477392 
-0.1397097 -0.98563445 0.09490063 
-0.88865477 -0.4569245 -0.038894955 
-0.97539186 -0.14490093 -0.16617578 
-0.59401953 -0.10213371 -0.79794085 
-0.28211677 0.24927452 -0.9264299 
-0.82214665 -0.29211608 -0.4886135 
0.14368364 -0.33031029 -0.93287206 
-0.024064388 -0.52021545 -0.85369605 
-0.16254474 -0.9682397 -0.18997659 
-0.5608646 -0.39168298 -0.7293939 
0.407236 -0.7500353 -0.5211583 
0.5801872 0.09366976 -0.809079 
0.59463793 0.6684618 -0.44672653 
0.14310588 0.30431992 -0.9417591 
0.85683584 -0.508558 -0.084858805 
0.84454006 -0.5300779 0.075957745 
0.4458563 -0.53293645 -0.7191599 
0.4629553 -0.8561167 -0.2296445 
0.042329684 -0.8514676 -0.52269596 
0.2391224 -0.8829288 -0.40405133 
0.45548537 -0.85524774 -0.24715269 
-0.34628788 -0.90073615 -0.2622195 
-0.45088607 -0.8904958 0.060984127 
-0.6212486 -0.71944785 0.31055588 
-0.81213975 -0.5389932 -0.2234176 
-0.14411414 -0.95562494 -0.2569282 
0.046143148 -0.94236666 -0.33138502 
0.41720003 -0.9068785 0.05929187 
0.09540899 -0.8971179 0.43136597 
-0.66948605 -0.7264746 0.15499404 
-0.18538013 -0.9505242 0.24927521 
-0.43993437 -0.45514232 -0.7741468 
-0.4462683 -0.7531756 -0.48329192 
-0.4954187 -0.7379453 -0.45825437 
-0.27891743 -0.004001243 -0.9603068 
-0.13298137 0.21231286 -0.9681112 
0.20499368 -0.3896116 -0.8978755 
-0.18023825 -0.44164652 -0.87889856 
0.6110666 -0.50730616 -0.6076498 
0.917429 -0.15602921 -0.36603135 
0.49774554 -0.8537224 -0.15299541 
0.33695582 -0.67204505 -0.659406 
0.62783897 -0.66204876 -0.40927967 
0.19183642 -0.8982318 -0.39544722 
-0.047293603 -0.008761649 -0.9988426 
0.65126497 -0.54653776 -0.52645093 
0.26004067 -0.58783585 -0.766047 
-0.014511155 -0.17346013 -0.98473406 
-0.19275583 -0.50351906 -0.8422076 
0.5717138 -0.13502263 -0.8092665 
0.48765108 0.0770609 -0.86963093 
0.31438762 -0.29063985 -0.90370846 
0.5840244 -0.48845392 -0.6483273 
0.9439249 0.10566982 -0.3127933 
-0.22493558 0.47116446 -0.8528822 
-0.081918284 0.31180406 -0.94660854 
-0.20273632 0.65810686 -0.7251162 
-0.18913263 0.34431136 -0.9196078 
0.03487206 -0.51214063 -0.85819346 
-0.10695335 -0.99092966 -0.08136044 
-0.07111012 -0.44437474 -0.89301425 
-0.7162254 -0.55080444 -0.42852733 
-0.009579907 -0.4438266 -0.89606154 
0.11947794 -0.6218074 -0.77400297 
-0.027062744 -0.98538965 -0.16815141 
-0.32123816 -0.80522907 -0.49840978 
-0.27909136 -0.9577669 -0.069214396 
-0.2734366 -0.67443246 -0.6858376 
0.39824587 -0.90661305 -0.13947389 
-0.2509199 -0.90495265 0.34365696 
-0.09279838 -0.58191794 0.8079358 
-0.6664529 -0.60119206 0.440918 
-0.5928669 -0.75472724 0.28088394 
-0.753547 -0.24407479 -0.61040515 
-0.19679174 0.6386478 -0.74390996 
-0.32817551 -0.25417045 -0.90977925 
-0.4634768 -0.34384796 -0.8166749 
0.16674967 -0.07054587 -0.98347235 
0.14590453 0.1324403 -0.9803935 
-0.037798703 0.71094495 -0.7022312 
-0.28821355 0.038504325 -0.9567917 
0.5541771 0.011089202 -0.832325 
0.5139103 -0.22578864 -0.8275965 