# OOMMF: rectangular mesh v1.0
# Segment count: 1
# Begin: Segment
# Begin: Header
# Desc: Time (s) :  5.74000000000001e-07
# Title: m
# meshtype: rectangular
# meshunit: m
# xbase: 2e-09
# ybase: 2e-09
# zbase: 5e-10
# xstepsize: 4e-09
# ystepsize: 4e-09
# zstepsize: 1e-09
# xmin: 0
# ymin: 0
# zmin: 0
# xmax: 1.024e-06
# ymax: 1.024e-06
# zmax: 1e-09
# xnodes: 256
# ynodes: 256
# znodes: 1
# ValueRangeMinMag: 1e-08
# ValueRangeMaxMag: 1
# valueunit: 
# valuemultiplier: 1
# End: Header
# Begin: Data Text
-0.42988953 -0.7419747 0.51445955 
-0.5916582 -0.79370314 0.14133662 
-0.3134346 -0.91968256 0.23652214 
-0.7881779 -0.5306096 -0.3118159 
-0.67515796 -0.59796077 0.43197763 
-0.8257524 -0.23687853 -0.5118806 
-0.83522975 0.10169278 -0.54041654 
-0.51390153 -0.085207894 -0.85360694 
0.52895254 -0.10240677 -0.84245014 
-0.047274306 -0.6972656 -0.71525234 
-0.49322546 -0.69888896 -0.51796037 
-0.19220419 -0.9353977 0.29679748 
0.035364054 -0.9696097 -0.24208774 
-0.26567593 -0.6817724 -0.68161774 
-0.7412225 -0.430028 -0.5154273 
-0.44937646 -0.4858257 -0.7496894 
-0.13993855 -0.8455782 -0.51518416 
-0.1596275 -0.9810581 -0.10974509 
0.08403346 -0.9883113 -0.1271979 
0.2215124 -0.9564761 -0.18996243 
0.26727977 -0.94584423 -0.18422902 
0.50655395 -0.6320677 -0.5864244 
0.5480505 -0.20159265 -0.81178874 
0.36084536 -0.53928804 -0.76089364 
0.4259674 -0.5268209 -0.73553485 
0.5951742 -0.29442438 -0.7477179 
0.83546126 -0.54674643 -0.055433735 
-0.06464 0.07491032 0.9950931 
0.08639821 -0.32740462 0.940926 
0.23468038 -0.31490743 0.91965127 
-0.3478034 -0.28604847 0.8928657 
0.18876664 -0.5167468 0.8350689 
-0.39252993 -0.9186992 -0.043727662 
-0.3730745 -0.4174358 -0.8285909 
0.33582318 -0.14456241 -0.93076557 
-0.36929965 -0.92312473 -0.107044965 
-0.5236139 -0.7271064 -0.4440099 
0.3002879 0.18017201 -0.9366779 
0.1176345 -0.5363996 -0.8357258 
0.76177454 -0.48533624 0.42912486 
0.99014354 -0.1301539 -0.051728398 
0.9639581 -0.26416826 -0.03162346 
0.8788984 -0.09279826 -0.46789548 
0.28938794 -0.9571967 -0.005406129 
0.38438335 -0.9213465 0.058052562 
-0.12601723 -0.87483585 -0.46774152 
-0.062985405 -0.77705145 -0.6262778 
-0.81341994 0.5713157 -0.10929989 
-0.7731161 0.27236888 -0.5728059 
0.17742075 -0.34870642 -0.92028576 
0.0067960755 0.18852851 -0.9820443 
0.1401978 -0.87068564 -0.47143528 
-0.07337359 -0.88266385 -0.46424237 
0.8876977 -0.2471196 -0.38849047 
0.49675697 -0.8647409 -0.07386369 
-0.16220252 -0.77367824 -0.6124642 
-0.39258063 0.059910927 -0.9177642 
0.33871695 -0.44853362 -0.82709634 
0.38678783 -0.29644537 -0.87322134 
0.3026314 0.31684288 -0.89890206 
0.53706455 -0.6129532 -0.5795258 
0.83335817 -0.20111252 -0.5148475 
0.6573938 -0.5141898 0.55085605 
0.6740034 -0.47474393 -0.5659838 
-0.0751194 0.010617678 -0.997118 
0.60419846 0.48577723 -0.6316366 
0.5802044 -0.23473345 -0.77991223 
0.40260366 -0.76331925 -0.5052268 
0.30434626 -0.49333414 -0.8148588 
0.059744515 -0.71839017 -0.6930702 
-0.22594903 -0.2171725 -0.94962263 
0.4047585 0.6040468 -0.6865115 
-0.28088465 0.8464518 -0.45235282 
-0.4007511 0.048844747 -0.9148841 
0.22394471 -0.7116629 -0.66587144 
0.2141613 -0.77769256 -0.59104097 
0.4102641 -0.9105248 0.051263936 
-0.7493563 -0.6399121 0.17022811 
-0.71413827 -0.68264085 0.15494561 
0.12058817 -0.5107088 0.85125506 
-0.40803486 -0.8952923 0.17877173 
-0.91262776 -0.36939433 0.17509574 
-0.20309061 -0.92133695 -0.3315005 
0.3174597 -0.9464795 -0.05827591 
-0.40532 -0.87650913 -0.25970668 
-0.59342337 -0.7682624 -0.24004515 
0.0464015 -0.3635038 -0.93043643 
0.6462161 -0.06297601 -0.7605517 
-0.6484407 0.31776756 -0.69177204 
0.9312625 -0.35573894 -0.07874053 
0.8879515 -0.45961377 0.017248945 
0.448546 -0.17582008 0.8762956 
-0.18153952 0.2534527 0.9501606 
-0.56995845 -0.17220083 0.8034267 
-0.3596414 0.2019991 0.9109635 
-0.22663859 0.11696653 0.9669301 
0.06926625 0.6994838 0.7112838 
-0.5545004 0.7847828 0.2768489 
-0.84136724 -0.039874617 0.538991 
-0.8652968 0.060607683 0.49758247 
-0.38445827 0.35597005 -0.85174954 
0.07665561 0.21561792 -0.97346437 
0.17276494 0.591057 -0.7879111 
0.64764637 0.2704373 -0.7123328 
-0.05428817 0.089170985 -0.99453574 
0.048033692 -0.61338866 -0.7883193 
-0.24413015 -0.26647514 -0.9324117 
-0.32189095 0.8051509 -0.49811456 
-0.42124104 0.84362346 -0.33294964 
0.18837619 -0.20307828 -0.9608714 
0.09477735 0.7184609 -0.68908 
0.5927487 -0.4038256 -0.69683135 
-0.33691287 -0.4295026 -0.83786464 
-0.49526674 0.037079964 -0.86794925 
0.3770235 -0.6966497 -0.6103544 
-0.04191457 -0.19866475 -0.97917086 
0.26710197 -0.7766193 -0.57054275 
0.85678816 -0.41224986 -0.30978087 
0.67229354 -0.735965 -0.07985529 
0.44627663 -0.5510226 -0.7051322 
-0.12041858 -0.9888503 -0.087603696 
0.19184573 -0.87569 0.44312796 
0.64704645 -0.72907984 0.22309989 
-0.20776755 -0.7466545 -0.63193333 
0.0535244 -0.84118557 -0.53809106 
-0.6696749 -0.62380946 0.40298566 
0.38845205 -0.33485264 0.85847473 
-0.36997807 -0.2247833 0.9014371 
-0.5591166 -0.38996136 0.7316549 
-0.3982557 -0.64553285 -0.6516747 
-0.1775238 -0.18416047 -0.9667318 
0.20871378 -0.7544269 -0.6223172 
0.3186262 -0.57838434 -0.7509654 
0.765188 -0.64334 -0.024518285 
0.26630056 -0.82217634 0.50310045 
0.2223683 -0.79046714 0.57071364 
-0.3918708 -0.30928373 0.8664761 
-0.7455843 -0.5052493 0.43454248 
-0.8546021 -0.49490535 0.15723868 
-0.2511643 -0.9253103 0.284108 
-0.3802783 -0.65667605 -0.6512796 
-0.524503 -0.5698087 -0.6326252 
-0.25913873 -0.2870416 -0.9222008 
-0.7411851 -0.50752515 -0.43938923 
0.33605015 -0.6324002 -0.6979544 
0.29402432 -0.6659317 -0.6856273 
0.853237 -0.4720637 -0.22168106 
0.5158369 -0.18577763 -0.83630085 
0.739729 -0.47841758 -0.47319934 
0.94229263 -0.19746342 0.27035722 
0.9189259 -0.061270874 -0.38964245 
0.43363658 -0.85169375 0.2942397 
0.66215515 -0.22594024 0.714494 
0.18762587 -0.30124262 0.9349062 
0.20121208 -0.44682768 0.87169874 
0.4203027 -0.80907387 0.41078624 
-0.55929995 -0.6580901 -0.50408447 
0.37423912 -0.6467587 -0.6645663 
0.43097425 -0.77567506 -0.4610741 
-0.13184002 -0.96810466 0.21305303 
0.5925424 -0.4443416 0.6719034 
0.030259762 -0.677472 0.7349259 
-0.85894287 -0.21952516 0.46262944 
-0.3683992 -0.027645577 0.92925656 
-0.91218716 0.15137139 0.38079062 
-0.96317184 -0.2394646 0.122298196 
-0.8367376 0.41230533 0.36038145 
-0.8050812 0.5928963 0.017841006 
-0.36775476 0.5200031 -0.7709431 
-0.7479273 0.11784904 -0.65323526 
-0.6574385 0.7488486 0.08366839 
0.31228974 -0.6368909 -0.7048725 
0.04166978 -0.99912316 -0.0040827836 
-0.4514658 -0.6559255 -0.60493016 
-0.6338144 -0.30780616 -0.7096019 
-0.32170817 -0.58652157 -0.743301 
0.2902269 -0.685857 -0.6673594 
0.4812456 0.07947162 -0.872976 
0.2800027 0.25645337 -0.9251109 
0.9263389 -0.29365835 -0.23592609 
0.38979807 -0.8496449 -0.35519165 
0.97949576 -0.18573235 0.0780492 
0.16048722 -0.97557354 -0.1500004 
-0.5474257 -0.59126675 -0.5922236 
-0.17772962 -0.7718182 -0.6104989 
-0.22117846 -0.89223593 -0.39369425 
-0.24695528 -0.7892087 -0.56228346 
0.2411649 -0.25730357 -0.93575346 
-0.3233996 -0.68228304 -0.65566957 
-0.07644775 -0.9881787 0.13288641 
-0.22903022 -0.9731868 -0.021275252 
-0.2977082 -0.8717011 0.3892389 
-0.16671966 -0.9785424 0.12107605 
-0.7183448 -0.24122205 0.652528 
-0.26279902 -0.8367026 0.48048478 
-0.50048006 -0.85314965 0.14715768 
-0.4458124 -0.7956736 -0.4100668 
0.01483243 -0.18290707 -0.98301834 
-0.27696225 0.3266525 -0.90365374 
-0.6809064 -0.25225726 -0.68755573 
0.093111105 -0.84765816 -0.52230835 
-0.15099727 -0.20042363 -0.9680033 
0.034897678 -0.7838259 -0.6199994 
-0.29972833 -0.3949339 -0.8684413 
0.019683728 -0.24295728 -0.9698373 
-0.23936492 0.11170222 -0.96448284 
-0.27033448 -0.8286985 -0.49007976 
-0.5835954 -0.32338017 -0.744877 
-0.2916652 0.1077922 -0.9504275 
0.4064295 0.13399327 -0.9038035 
-0.2638702 0.28342357 -0.9219781 
0.09659657 -0.48954022 -0.86661386 
-0.73746765 -0.48257935 -0.47250253 
-0.8466146 -0.5164077 0.1287117 
-0.5075272 -0.7375722 -0.44542518 
0.4108419 -0.2748182 -0.86930084 
0.5006791 -0.0018800024 -0.865631 
0.87425727 -0.33255413 -0.35366952 
0.24950305 0.23413803 -0.93964237 
0.6471519 0.28725258 -0.70617306 
-0.30722034 0.41887006 -0.8544962 
0.279931 0.3167054 -0.9062761 
-0.3536157 -0.32806802 -0.8759722 
-0.23514545 -0.36194935 -0.9020529 
-0.27941638 0.16876076 -0.9452229 
0.19455734 -0.10063293 -0.9757154 
0.69434714 -0.2776051 -0.66394097 
-0.037292622 -0.5164281 -0.8555181 
-0.20805493 -0.10711106 -0.9722348 
-0.07679736 -0.106919214 -0.9912974 
0.6902216 -0.6492688 -0.31944364 
0.2101923 -0.45399305 -0.86585766 
0.6479358 -0.7090533 0.2782492 
-0.008800784 -0.7197749 0.6941518 
-0.10010592 -0.97564983 0.19515674 
-0.48200706 -0.79590005 0.3663502 
-0.84579116 -0.1321044 -0.51690006 
-0.47188288 -0.12923273 -0.8721385 
-0.69680434 0.3255734 -0.6391132 
-0.5803255 0.46682218 -0.66730756 
-0.61200315 0.31248692 -0.7265013 
-0.5361134 -0.0218796 -0.8438624 
0.077826716 -0.77064484 -0.6324948 
0.61566746 -0.32438913 -0.7181402 
0.94083095 0.32715717 -0.0883479 
0.27306545 -0.8611771 -0.42872974 
0.22102395 -0.8725653 -0.43563563 
0.14523864 -0.87163204 -0.4681489 
-0.23593137 -0.7774784 -0.5829784 
0.4773652 -0.7422652 -0.47028178 
0.17544113 -0.98394793 -0.03266265 
0.96552825 -0.25042832 -0.070998415 
-0.09930695 -0.9450941 -0.31134436 
0.7176176 -0.6100667 -0.33592215 
0.4834314 -0.66196793 0.5727936 
0.16890733 -0.90904075 0.38094008 
0.10836809 -0.38412824 0.91689795 
-0.61403036 -0.7757662 0.14544265 
-0.5125361 -0.8260914 -0.23426455 
-0.59077334 -0.5803863 -0.5604807 
-0.7778376 -0.5984443 -0.19191994 
-0.9404647 0.32695538 0.09287857 
-0.7804252 -0.2682174 -0.5647974 
-0.7543794 -0.36056152 -0.54855007 
0.30627957 -0.5982195 -0.7404906 
-0.44137457 -0.8941113 0.075852476 
-0.6714091 -0.7407831 -0.021220528 
-0.6303841 -0.51062596 -0.58470255 
-0.14772172 -0.054606605 -0.98752034 
-0.5339097 -0.015094535 -0.84540683 
-0.1918501 0.08257318 -0.9779444 
-0.5700187 -0.6127048 -0.5474227 
0.5398657 -0.38790402 -0.7470445 
0.79613775 -0.16207112 -0.5830074 
0.02100449 -0.80142826 -0.597722 
-0.04259912 -0.89928365 -0.43528646 
0.65745914 -0.7430138 -0.12521188 
0.5881116 -0.79752576 0.13445282 
0.68679744 -0.6952921 0.21184485 
0.6673645 -0.72971183 0.14881316 
0.6028657 -0.7183618 -0.34714466 
0.521293 -0.7213801 -0.45592153 
0.7552224 -0.56992656 -0.32376364 
0.523295 -0.40846992 0.7478734 
0.20573412 -0.38849273 0.898191 
0.28182015 -0.5495679 0.7864812 
-0.04703086 -0.73184204 0.67984945 
-0.06800507 -0.83439666 0.546953 
-0.44274265 -0.8927517 0.08350788 
-0.5849076 -0.45404184 -0.672108 
-0.3731677 -0.73744553 -0.5629565 
-0.6102022 -0.11897585 -0.78326124 
0.13798371 0.039441228 -0.9896489 
0.70391697 0.19454737 -0.6831196 
0.43004787 0.21605153 -0.87657326 
0.3719781 -0.49405447 -0.7858388 
0.935934 0.33420905 0.11104924 
0.7860114 -0.49443045 0.37111285 
0.64109755 -0.69205177 0.33175057 
0.62371093 -0.778529 0.069838285 
0.6566152 -0.667481 -0.3511775 
0.41164938 -0.85791093 -0.30746317 
0.77844787 -0.4146098 -0.47129378 
0.4841479 -0.73098505 -0.48089677 
-0.4505913 0.004521471 -0.8927189 
0.06944247 -0.12015249 -0.9903238 
-0.355033 -0.90614575 -0.22989427 
-0.6681919 -0.71795887 -0.19507629 
0.46240667 -0.5195081 -0.7185343 
0.6448161 -0.3394979 -0.68480176 
0.70285493 -0.71131593 0.0049617924 
0.19545698 -0.5520512 -0.8105777 
-0.5792914 -0.0017361338 -0.8151187 
-0.32635006 -0.2421173 -0.91371495 
-0.44909927 -0.17088708 -0.87698776 
0.3522428 0.6296063 -0.69247454 
-0.36967382 -0.41658822 -0.8305393 
-0.27965665 0.2299256 -0.9321623 
-0.088167384 0.10408542 -0.9906527 
0.90993816 -0.006887372 -0.4146869 
0.46246508 0.2950236 -0.83611435 
0.5584703 -0.1569588 -0.8145397 
0.33963647 -0.28234187 -0.897179 
0.51266056 -0.1515677 -0.8451074 
-0.5201016 -0.06552735 -0.8515871 
-0.511535 -0.27480134 -0.8141353 
-0.0395556 0.24467754 -0.9687974 
0.14998569 0.44881535 -0.8809478 
-0.04064236 0.7310766 -0.6810839 
-0.2256855 -0.48136145 -0.84696937 
0.1096039 -0.34297225 -0.93292934 
0.6495001 -0.7498214 -0.12616487 
0.07251685 -0.98614013 -0.14922835 
-0.59194005 -0.61528665 -0.5206049 
0.13377123 -0.98338425 -0.122722074 
0.0034610517 -0.90256745 0.4305347 
0.48332512 -0.6496868 0.5867743 
-0.87190926 -0.37608713 0.31358054 
-0.6724208 -0.5141279 -0.5324687 
-0.16196953 -0.52293116 -0.83684456 
-0.33796036 -0.61478615 -0.7126155 
-0.29082602 -0.84595305 -0.44697186 
-0.36169013 -0.32419914 -0.874114 
-0.2621135 -0.264982 -0.92794454 
-0.5391204 -0.23731966 -0.8081019 
0.31896037 -0.40167886 -0.8584395 
0.6600092 -0.63776326 -0.39704645 
0.5937403 -0.44162333 0.6726376 
0.66391337 -0.06989093 0.74453634 
0.030721994 -0.549325 0.83504385 
0.19703862 -0.44855568 0.8717648 
-0.011430364 -0.29734048 0.9547031 
0.06431886 -0.17465894 0.982526 
-0.03359386 -0.14428575 0.9889657 
-0.73381644 -0.11767141 0.6690791 
-0.42535022 0.11192967 0.89808077 
-0.90314704 0.3609955 -0.23239546 
-0.34682667 0.061831493 -0.93588895 
0.25805798 0.31273177 -0.9141143 
0.15907429 0.11907707 -0.9800592 
-0.2169967 0.015454148 -0.97605 
-0.5399275 0.52540773 -0.6575904 
-0.4254251 0.6126086 -0.6661263 
-0.6979628 0.6099192 -0.3752952 
-0.1375719 0.96230125 -0.2346281 
0.27467412 0.08245975 -0.9579951 
0.7300129 0.6331687 0.25725222 
-0.84829324 -0.5245394 -0.07250615 
-0.75214064 -0.38246664 -0.5366597 
-0.38925663 -0.41571897 -0.8219835 
0.5087416 -0.7191032 -0.47336307 
-0.2882217 -0.6448188 -0.70791036 
-0.91453487 -0.29125613 -0.28070596 
0.4702938 -0.7087059 -0.52588946 
0.47778353 -0.81990474 -0.3154035 
-0.019907886 -0.49296963 -0.8698187 
-0.2502257 -0.8992032 -0.35891613 
0.58780926 -0.7475073 -0.30937564 
0.25779474 -0.1278297 -0.95770633 
0.5477791 -0.5324799 -0.6452931 
-0.05167512 -0.8373341 -0.5442437 
0.71588993 -0.6478962 -0.26025432 
0.07813431 -0.65945005 0.74767685 
0.68200034 -0.16907088 0.71154106 
0.21180461 -0.44641966 0.8693954 
-0.5310202 -0.73792636 -0.41651195 
-0.35775048 -0.34427366 -0.86803824 
0.34403604 -0.8955674 -0.28213152 
0.12914997 -0.94613814 -0.2968888 
0.6998475 -0.52168465 -0.48791245 
-0.29211676 -0.95335776 -0.07600596 
-0.1375424 -0.7746458 -0.6172568 
0.21645871 -0.97251755 -0.08576296 
0.20984372 -0.9382779 -0.27495477 
-0.3876206 -0.91769713 -0.087076895 
-0.29411814 -0.95379865 -0.06134099 
-0.5373197 -0.8429537 -0.026770057 
0.026567899 -0.78245085 -0.6221454 
-0.05800985 -0.75527954 -0.65283054 
0.069010094 -0.64933795 -0.7573625 
0.5500533 -0.4687448 -0.69117266 
0.3685416 -0.2200369 -0.9031948 
0.79323936 0.063026346 -0.6056394 
0.9760536 -0.07427075 -0.20445852 
0.83937 0.28022546 -0.4657593 
0.8072674 -0.27221137 -0.5236604 
0.89990824 -0.31496543 -0.30159914 
0.3682104 -0.9068096 0.20522556 
0.87251234 -0.27403566 0.40450802 
0.70962477 -0.29612237 0.63933116 
0.30207345 -0.93202555 -0.20020005 
-0.13605665 -0.9340522 -0.33020473 
-0.35456735 -0.7223372 -0.5937264 
-0.23580934 -0.8398144 -0.48898432 
0.16616401 -0.9529653 -0.25346938 
0.2787955 -0.9278998 0.24753821 
0.71103585 -0.5959303 -0.37322265 
0.4842453 -0.5292008 0.6967447 
-0.41243613 -0.28655815 0.8647433 
-0.63074183 -0.41148522 0.6579093 
-0.9370742 0.34689277 0.039464343 
-0.9248265 -0.31908524 -0.20707645 
-0.8255427 -0.5279929 0.19925582 
-0.81322277 0.5639686 -0.14355578 
-0.099140085 0.5625499 -0.8207978 
-0.7173455 0.52270395 -0.46064743 
-0.71061563 0.48865002 -0.5062081 
0.47856525 -0.5683416 -0.6693005 
0.7574468 -0.46956277 -0.45363563 
-0.25063732 -0.8020008 -0.5421953 
-0.44226068 -0.80221796 -0.40106368 
-0.2815276 -0.49112216 -0.82434297 
0.6287726 -0.43398324 -0.6452159 
0.89150655 0.26368862 -0.3683536 
0.40250698 0.065683 -0.9130575 
0.898789 0.38316226 -0.21299066 
0.2736471 -0.1936151 -0.9421414 
0.4896914 -0.3753705 -0.7869558 
0.40870073 -0.49527228 -0.7665957 
-0.33639657 -0.50225973 -0.79660064 
-0.9062176 -0.3043433 -0.29350474 
-0.30756116 -0.76936907 -0.5598906 
0.2725783 -0.7573115 -0.5934479 
0.09804504 -0.3182836 -0.9429118 
-0.15382092 -0.7557272 -0.63656557 
-0.241472 -0.31139308 -0.91908956 
0.17291182 -0.8587869 -0.48227257 
-0.12966673 -0.4452765 -0.88595456 
-0.27236816 -0.7429333 -0.61144567 
0.22895882 -0.59393466 0.77124536 
-0.6477685 -0.72591 0.2311941 
-0.729759 -0.64204526 0.23501036 
-0.6030188 -0.74727505 -0.27919236 
0.35748112 -0.5494939 -0.75515807 
0.17716216 -0.2714458 -0.94600785 
-0.5452017 -0.32626334 -0.7722094 
-0.5745565 -0.32339197 -0.7518659 
-0.68339866 -0.13373241 -0.7176921 
-0.36808732 -0.33913285 -0.8657371 
-0.76178926 -0.5900134 -0.26750982 
-0.12176882 -0.209537 -0.970189 
-0.20141646 -0.10487198 -0.9738754 
-0.21930788 0.041554563 -0.97477037 
-0.033802263 -0.46169955 -0.8863922 
-0.45770657 -0.5226185 -0.71928763 
-0.52966005 0.43523055 -0.72803485 
-0.55246675 0.14137484 -0.8214582 
-0.43471366 -0.43488458 -0.78860617 
-0.38235116 -0.5269657 -0.7590223 
-0.1301357 -0.44340265 -0.8868252 
-0.42243168 -0.5974849 -0.6815888 
-0.15474726 0.32553634 -0.93278056 
0.58416843 0.37590528 -0.7193347 
0.07463016 -0.5479391 -0.83318245 
-0.41211617 -0.32111016 -0.8526715 
-0.17103954 -0.44537637 -0.87885463 
0.09891543 0.35301903 -0.9303727 
0.3582487 0.47979617 -0.8009079 
0.38976547 -0.20028786 -0.8988703 
-0.12300462 0.7528384 -0.64660984 
-0.33221227 0.22886999 -0.91501564 
-0.52869165 0.6362315 -0.5618672 
0.06838375 -0.6255204 -0.7772052 
-0.5242903 -0.1856079 -0.8310652 
-0.92653203 0.20128879 -0.31783864 
-0.45827216 -0.39942428 -0.7940069 
-0.6204954 -0.62848485 -0.4690334 
-0.19106105 -0.7605516 -0.62052965 
0.31724983 -0.850213 0.42010766 
-0.4952153 -0.7204043 0.48557138 
-0.86533326 -0.50119436 0.0015939529 
-0.8420994 -0.4098293 -0.35058334 
-0.69216365 0.4542939 -0.56082666 
-0.37352687 0.3835263 -0.8446214 
-0.5220224 -0.109769545 -0.8458388 
0.05351524 0.501438 -0.86353695 
-0.68135273 0.623256 -0.38381055 
-0.08479451 0.83641994 -0.54149014 
0.1931841 0.04349115 -0.9801982 
0.124678865 -0.23453133 -0.96408 
-0.4548564 0.82295316 -0.34037286 
0.3174487 0.7217567 -0.61505586 
0.47984666 -0.09742116 -0.8719268 
0.34620875 0.060827453 -0.93618345 
0.2996951 -0.058029957 -0.9522686 
-0.15797278 -0.6076325 -0.7783492 
-0.42078292 -0.730459 -0.53793263 
0.39757475 -0.9095992 -0.12068063 
0.2513264 -0.9660135 0.060439426 
0.0043369685 -0.9999876 0.0024378197 
0.11235228 -0.75434214 0.64679605 
-0.4517374 -0.17541291 0.8747364 
-0.009535503 -0.64957064 0.76024157 
-0.25238615 -0.965956 0.05683582 
-0.53644013 -0.7878954 -0.3024119 
-0.38055512 -0.770453 -0.5114489 
-0.51063466 -0.84531796 -0.15713015 
-0.9709723 0.16590609 0.1723024 
-0.8537168 -0.021843702 -0.5202794 
-0.3999656 -0.5554206 -0.7290648 
-0.14267512 -0.57860714 -0.80303025 
-0.39154026 -0.8271746 -0.40308595 
-0.50903016 -0.77667713 -0.3710269 
-0.9391276 0.09574631 -0.32995746 
-0.35783586 -0.37895462 -0.8534325 
0.3144267 0.32598516 -0.8915546 
-0.13070677 0.16061859 -0.9783238 
-0.00818371 -0.85138005 -0.52448547 
0.8966179 -0.41720566 0.14837779 
0.3878843 -0.13910554 -0.9111507 
0.47453785 -0.09673323 -0.8749038 
0.72910225 -0.65963817 -0.18244858 
0.7410741 -0.6194781 -0.25895196 
0.6110295 -0.7217487 -0.32514906 
0.79862964 -0.572209 -0.18646055 
0.59272844 -0.38884026 -0.70532 
0.8613232 0.011795399 -0.50792044 
0.6553537 -0.57766914 -0.48663124 
0.72839606 -0.68068147 -0.07817891 
0.42630807 -0.8245031 0.372097 
0.17545481 -0.08551208 0.9807668 
0.09163201 -0.30161896 0.949015 
-0.1580212 -0.9815728 -0.107443325 
-0.34062132 -0.7216707 -0.60263467 
-0.78040034 -0.5104984 0.36106324 
-0.8553027 -0.46341613 -0.23173863 
-0.4570777 0.14765856 -0.8770844 
-0.5263514 -0.28166485 -0.80225885 
-0.7181644 -0.12963542 -0.6836919 
-0.5514082 0.032220952 -0.8336132 
0.074645154 0.0837954 -0.99368334 
-0.016630441 -0.6353365 -0.77205634 
0.47738415 -0.78725266 -0.3903045 
0.9036152 -0.4232906 0.06561087 
0.78232527 -0.22401226 -0.58119327 
-0.07067882 -0.92108375 -0.3828958 
0.5514621 -0.8316614 -0.06503074 
0.39806575 -0.70013183 -0.5927556 
0.12308087 -0.9829171 -0.13683975 
0.32956436 -0.9025527 -0.2771031 
-0.9286488 -0.12940247 -0.3476584 
-0.45711705 -0.429401 -0.77888304 
-0.2980997 -0.5692492 -0.7662193 
-0.12296464 -0.5392076 -0.83314764 
0.50760657 -0.44055787 -0.7404353 
0.39724988 0.074111134 -0.9147132 
0.17723778 -0.5933123 -0.7852181 
0.1877752 -0.26738206 -0.9451177 
0.22054937 -0.31040135 -0.92466694 
0.28402752 0.2546288 -0.9243877 
-0.50327575 -0.19114004 -0.8427213 
0.15894167 0.38158765 -0.9105649 
-0.5986416 0.19356962 -0.7772767 
0.060619902 0.20161884 -0.9775864 
0.60497266 0.079327986 -0.7922848 
0.64062285 0.68864065 -0.33967102 
0.45645672 0.072396055 -0.8867955 
0.5344343 -0.0650333 -0.8427044 
-0.15235782 -0.47205803 -0.86830205 
-0.17679511 -0.4038502 -0.8975794 
0.0641911 0.19498235 -0.97870404 
-0.2612633 0.13593291 -0.95564836 
0.21590714 -0.45147422 -0.8657686 
-0.5033553 0.003778403 -0.86407125 
0.76308393 -0.29317597 -0.5759781 
0.23947851 -0.6152952 -0.75104064 
0.6748672 -0.53437966 -0.50891316 
-0.06964904 -0.45055988 -0.89002526 
-0.41918874 -0.5725711 -0.7045873 
-0.46323657 -0.10700129 -0.87975144 
0.036540166 -0.4952277 -0.8679945 
0.02400847 -0.9729042 0.22995868 
0.29955813 -0.93383855 -0.19547516 
0.2832698 -0.9456947 -0.15943608 
0.461562 -0.8869782 -0.015174355 
-0.34494847 -0.11959114 -0.9309719 
-0.5202257 -0.49700254 -0.69451696 
-0.7445195 0.042929042 -0.6662192 
-0.42542148 -0.05177319 -0.90351325 
-0.48231468 -0.12379484 -0.86720663 
-0.34152815 -0.8788533 -0.33312955 
-0.050023973 -0.64334124 -0.7639435 
0.8520254 -0.40645194 -0.32992378 
0.6931875 -0.7187459 -0.053810436 
0.21667524 0.09737262 0.9713756 
0.37910783 -0.3275262 0.8654501 
-0.038104504 -0.525764 0.8497766 
0.04836847 -0.06347947 0.99681044 
-0.79478544 0.116095506 0.5956828 
-0.28392807 0.13122071 0.9498242 
-0.29141727 0.47075197 0.8327477 
-0.67764866 -0.19594035 0.70880157 
-0.6155308 -0.29618084 0.7303416 
-0.7402051 -0.12142294 -0.6613267 
-0.31347135 -0.03907879 -0.9487933 
0.6700798 0.13896355 -0.72916543 
0.36601093 -0.0836825 -0.92684054 
0.68632185 0.33958897 -0.6431498 
-0.13952757 0.8314191 -0.5378423 
-0.247734 0.9680606 -0.038554825 
-0.30404308 0.35915416 -0.88236403 
0.34534165 0.77059346 -0.53565377 
0.9152963 -0.11505107 0.38600004 
-0.2869921 -0.81368977 -0.50551426 
-0.36383674 -0.9233593 -0.122599564 
-0.20556454 -0.34809756 -0.9146428 
-0.27799064 -0.5068321 -0.81599164 
0.012243358 -0.3366183 -0.94156164 
-0.12672022 0.13191424 -0.9831281 
0.06480267 -0.4841159 -0.87260103 
0.6039348 -0.5688146 -0.55831254 
0.3709589 -0.21584275 -0.9032173 
-0.18996118 -0.34778228 -0.9181298 
0.32127523 -0.59601253 -0.7359017 
0.3939946 -0.38237453 -0.83579785 
-0.09680526 -0.894922 -0.43559548 
-0.34486496 -0.37059212 -0.86239773 
0.634433 -0.7722915 -0.032570615 
0.13642333 -0.9821633 0.12939812 
0.079589516 -0.98673576 0.14148493 
-0.417149 -0.90820503 -0.033915453 
-0.5211719 -0.14911461 -0.8403241 
-0.3741816 -0.205243 -0.9043581 
0.26181895 -0.6684081 -0.69619066 
0.12167723 -0.9925583 -0.004778991 
0.18262658 -0.6284928 0.7560717 
-0.25864464 -0.9632437 -0.07255735 
0.010795351 -0.74873793 -0.6627782 
0.24504633 -0.8823355 -0.40179154 
-0.27341756 -0.66817087 -0.691947 
0.040656153 -0.69069314 -0.7220043 
-0.051034886 -0.9166028 -0.39652863 
-0.27346414 -0.959927 0.061298203 
-0.5181942 -0.7648733 -0.38267964 
0.3049686 -0.93755364 -0.16729428 
0.7158871 -0.24681604 -0.65313673 
0.5721028 -0.5771031 -0.5827954 
0.6046193 -0.7964145 0.012633978 
0.6783418 -0.13017662 -0.7231227 
0.8389863 -0.5423524 -0.044225328 
0.5946616 -0.46930397 -0.6527875 
0.57273144 -0.11995733 -0.81091857 
0.25283614 -0.35075468 -0.9016902 
0.6823515 -0.6284447 -0.37343505 
0.85682666 -0.40088478 0.3242522 
0.6344176 -0.6974006 -0.3333869 
0.42889908 -0.8530283 -0.297302 
-0.17025883 -0.9164365 -0.3621549 
-0.36358082 -0.23443106 -0.9015826 
-0.1540489 -0.8483266 -0.5065679 
0.06002044 -0.59925985 -0.79830146 
0.29983392 -0.8085818 -0.506256 
0.36934945 -0.9217877 0.11784952 
0.13106686 -0.9802138 0.1483317 
-0.3867435 -0.8548578 0.34590098 
-0.8115836 -0.5836229 0.026770372 
-0.8174859 0.52256024 0.24217257 
-0.84088266 -0.28882504 0.45770797 
-0.9955658 0.06346525 0.06943328 
-0.9972193 0.019896159 0.07181903 
-0.67001885 0.2120252 -0.71142125 
-0.87160933 -0.073591694 -0.48464566 
-0.96034944 -0.22712457 -0.16168931 
-0.64489335 -0.60570174 -0.4660881 
-0.20388079 -0.74474216 -0.63544613 
-0.16107285 -0.7114255 -0.6840536 
-0.3309825 -0.80416876 -0.49372387 
-0.34714428 -0.5697713 -0.74488366 
0.08827831 -0.2961711 -0.95104665 
0.28082126 0.6645387 -0.69247943 
0.6627966 0.008167496 -0.748755 
0.6312299 0.7281025 -0.267237 
-0.030626921 0.8048826 -0.59264326 
-0.49640197 -0.28309926 -0.8206339 
-0.74143165 -0.33972192 -0.578678 
-0.38592106 -0.6762445 -0.6275018 
-0.53173167 -0.23296313 -0.81424177 
-0.59573877 -0.67977804 -0.42778167 
-0.026437158 -0.5805414 -0.81380147 
0.52517134 -0.56614524 -0.63535404 
-0.019137347 -0.52348083 -0.8518226 
-0.60653543 -0.79257715 -0.062739246 
0.36574966 0.029271822 -0.93025285 
0.091327086 0.050312065 -0.9945493 
-0.29217207 -0.054851096 -0.9547916 
-0.40202913 -0.33715805 -0.85129136 
-0.43458945 -0.7991349 -0.41534978 
-0.58002925 -0.6763172 -0.45404977 
-0.10622536 -0.46583244 -0.8784739 
0.118795425 -0.098565385 -0.9880145 
-0.42424905 -0.21171373 -0.88044876 
0.0950374 -0.17142874 -0.9806019 
0.18344466 -0.15908483 -0.9700722 
-0.45142853 -0.15322797 -0.87905264 
-0.35127658 -0.5583859 -0.75153834 
-0.12710658 -0.92366976 -0.36149427 
0.25223416 -0.001490964 -0.96766514 
0.28273642 -0.024699727 -0.95887965 
-0.16971372 -0.9128816 -0.37127402 
0.0046814685 -0.5216668 -0.85313654 
0.33103746 -0.67849 -0.6557939 
-0.48424336 -0.7218629 -0.4943909 
-0.6601939 -0.15154716 -0.73564774 
-0.3155336 -0.18789227 -0.9301264 
-0.040129386 -0.74011374 -0.6712834 
-0.09088976 0.3681077 -0.9253301 
0.1767866 0.25019205 -0.9519194 
0.12416184 -0.02394983 -0.991973 
0.67998224 0.09890379 -0.7265275 
0.39886734 -0.62680304 -0.66934514 
0.4921551 -0.16611512 -0.854511 
-0.47661626 -0.7736518 -0.41749236 
-0.33767036 -0.22965497 -0.91281843 
-0.09818384 -0.42044646 -0.9019894 
-0.10222304 0.58055156 -0.8077811 
0.36191884 0.24272715 -0.90005463 
-0.17800109 0.6116248 -0.7708637 
-0.92621636 0.29367396 -0.23638713 
-0.8341292 -0.048313256 -0.5494491 
-0.49924842 0.09439451 -0.86130184 
-0.4230092 -0.29771957 -0.8558191 
-0.15622902 -0.5691718 -0.80723983 
0.3421746 -0.626387 -0.700397 
-0.1273008 -0.94237965 -0.30937877 
-0.024634384 -0.9971379 -0.07147866 
-0.78186005 -0.6205389 0.060219243 
-0.8317874 -0.46013328 -0.31049487 
-0.8219891 -0.44336882 -0.35743254 
-0.6368456 -0.012570453 -0.770889 
0.011984624 -0.076529965 -0.9969953 
-0.7031717 -0.5569787 -0.44195512 
-0.6163428 -0.03491267 -0.78670365 
-0.17675528 -0.024939459 -0.9839388 
0.017226756 0.18478994 -0.9826271 
-0.02198118 -0.16696374 -0.98571795 
0.38383457 -0.2711698 -0.8826879 
-0.53326833 -0.38345137 -0.754049 
-0.30605027 0.6189927 -0.7233128 
-0.056411643 0.038432926 -0.9976676 
0.26376846 0.6397402 -0.72191316 
-0.5219135 0.039331708 -0.8520912 
-0.24220546 -0.29473996 -0.92437273 
0.361234 -0.32054096 -0.87565035 
0.7267154 -0.47395417 -0.4972447 
0.5544658 -0.8311045 0.04281249 
-0.115601465 -0.87950474 -0.461636 
-0.11202269 -0.86928594 -0.4814487 
-0.48125088 -0.8745424 -0.059776418 
-0.15686363 -0.9457805 -0.28441712 
-0.0983177 -0.8662001 -0.48992977 
-0.42707548 -0.50116974 -0.75261915 
-0.473874 -0.7556651 -0.45212126 
-0.45446968 -0.6666514 -0.59079045 
-0.8834473 -0.06902988 -0.46341768 
-0.23264305 -0.4310878 -0.8718031 
0.4182409 -0.3378756 -0.84315753 
-0.14846748 -0.39319468 -0.9073894 
-0.83417076 -0.27157903 -0.4800041 
-0.6990881 -0.099806264 -0.70803577 
-0.49414614 0.5571696 -0.66736925 
-0.10347826 -0.25205705 -0.962164 
-0.10477619 -0.46927646 -0.87681335 
-0.20973979 -0.3415643 -0.91615665 
0.39231765 -0.33271846 -0.85754603 
0.7103034 -0.34408465 -0.61406416 
0.785091 0.4046187 -0.46895197 
0.5601725 0.2886667 -0.7764524 
0.6176756 -0.4367463 -0.6540104 
0.57226443 -0.79789084 -0.18943028 
0.6287818 -0.76693475 0.12823652 
0.7150107 -0.017470367 -0.6988953 
0.99730074 -0.07280942 -0.009492044 
0.6759663 0.43912652 -0.5918086 
0.7590765 -0.4256426 -0.49257624 
0.7379042 -0.5905312 0.32675752 
0.7049705 -0.5730246 -0.4179229 
0.26655006 -0.95334256 0.1417364 
-0.14689545 -0.926659 0.34601286 
0.13470964 -0.8734386 -0.46792984 
-0.8678114 -0.48173186 -0.12181084 
-0.8865564 -0.012957307 -0.46243924 
-0.64183515 -0.03885907 -0.7658576 
-0.2718215 -0.26496327 -0.9251528 
-0.19067511 0.09369983 -0.97717106 
-0.4305816 0.45248163 -0.7809353 
-0.9180561 -0.04288861 -0.3941239 
-0.70980906 0.24714793 -0.6596129 
-0.29493943 -0.50637054 -0.8103084 
0.41894794 -0.5097692 -0.7514107 
0.41871375 -0.6674458 -0.6157881 
0.61147267 -0.3694948 -0.69969624 
-0.39235815 -0.7633674 -0.51315236 
0.37225947 -0.35031137 -0.8594794 
0.03278385 -0.82343405 -0.5664642 
0.4199294 -0.8811933 -0.2171588 
-0.025985824 -0.7080983 -0.7056356 
-0.32345366 -0.16373311 -0.93197066 
-0.1464446 -0.45992318 -0.87579954 
-0.10042305 -0.80287963 -0.5876219 
-0.059932332 -0.94096583 -0.33315384 
-0.19086815 -0.57265437 -0.79726815 
0.33575523 0.34020218 -0.8783684 
0.094384596 -0.098735385 -0.9906275 
-0.026082389 0.5189631 -0.8543987 
-0.20023924 0.21106485 -0.9567424 
0.280786 0.32525003 -0.9029793 
0.54585004 -0.24985632 -0.7997622 
-0.30168498 0.083295055 -0.94976217 
0.23616019 0.6301722 -0.7396698 
0.15806496 -0.30062807 -0.9405521 
0.35125223 -0.10142352 -0.93077135 
0.6427187 0.5408535 -0.5425775 
0.5354651 0.28248546 -0.79591405 
0.49997538 0.189161 -0.8451289 
-0.4810768 0.16292039 -0.86140716 
-0.23311764 -0.43955868 -0.8674356 
-0.36411604 0.20760626 -0.9079203 
0.20161839 0.54225385 -0.81566596 
-0.453933 0.3795886 -0.8061373 
-0.4014474 -0.22432803 -0.8879848 
-0.35225427 -0.91752476 -0.18456826 
-0.29070005 -0.6660698 -0.6869095 
0.041851405 -0.672711 -0.73872083 