# OOMMF: rectangular mesh v1.0
# Segment count: 1
# Begin: Segment
# Begin: Header
# Desc: Time (s) :  5.77000000000001e-07
# Title: m
# meshtype: rectangular
# meshunit: m
# xbase: 2e-09
# ybase: 2e-09
# zbase: 5e-10
# xstepsize: 4e-09
# ystepsize: 4e-09
# zstepsize: 1e-09
# xmin: 0
# ymin: 0
# zmin: 0
# xmax: 1.024e-06
# ymax: 1.024e-06
# zmax: 1e-09
# xnodes: 256
# ynodes: 256
# znodes: 1
# ValueRangeMinMag: 1e-08
# ValueRangeMaxMag: 1
# valueunit: 
# valuemultiplier: 1
# End: Header
# Begin: Data Text
0.2827035 -0.8525544 0.43957898 
0.040173754 -0.9449247 0.3248131 
0.5084703 -0.8569958 0.08376222 
-0.25700548 -0.9025871 0.34537628 
0.0659434 -0.8987728 -0.4334272 
0.26202086 -0.37349296 -0.88985854 
0.55119604 -0.37323382 -0.74624366 
0.6230201 -0.78220505 -0.0012048066 
0.9034673 0.07051121 -0.42281818 
0.354608 -0.93387175 0.046225794 
-0.67648363 -0.1362844 -0.7237379 
-0.70561785 -0.006171377 -0.7085658 
-0.4828363 -0.39444485 -0.7818456 
-0.33916667 -0.39642057 -0.8531217 
0.17175472 -0.008352097 -0.9851043 
-0.704114 -0.6609229 0.25962362 
-0.03477983 -0.6980754 -0.7151791 
-0.5105038 -0.5900245 -0.6255055 
-0.1485826 -0.20572911 -0.9672636 
0.5918596 -0.6474443 -0.48012307 
-0.09082718 -0.22837691 -0.9693268 
0.09495741 0.2114371 -0.97276795 
0.55142194 -0.17592987 -0.81546474 
0.9493532 -0.26252082 0.17265958 
0.93239284 -0.07643503 0.35327253 
0.5157296 -0.64232373 0.5669596 
-0.1627828 -0.875994 0.45402238 
0.38767248 -0.9198382 0.06006539 
0.06416578 -0.9889054 -0.13397357 
0.039095856 -0.7985586 -0.60064626 
0.770862 -0.5974146 0.22106048 
0.58473223 -0.8022672 0.120231085 
0.49149936 -0.81770104 -0.29965547 
0.922659 -0.36588556 -0.12177098 
0.9130013 0.28289112 -0.29394084 
0.9663801 -0.2558544 -0.025457224 
0.41285327 -0.38790557 0.8240641 
-0.5087857 -0.0126642035 0.8608001 
-0.688487 -0.16652437 0.70587206 
-0.93613 -0.09868753 0.33752266 
-0.8489557 -0.3152407 0.42414334 
-0.41578436 -0.58993894 0.6921672 
-0.62213683 -0.64769155 0.43981984 
-0.89269847 -0.36605954 0.2628493 
-0.58103144 -0.80206645 -0.13817327 
-0.36891752 -0.91264695 -0.17599894 
-0.10759246 -0.4659874 -0.8782253 
0.35368556 -0.8976031 -0.26308814 
0.25623938 -0.80797315 -0.5305854 
0.08009782 -0.9649137 -0.25005174 
-0.055302773 -0.70855767 -0.7034826 
0.032968093 -0.9356982 0.3512577 
-0.91003424 -0.37307775 -0.18069533 
-0.018371671 -0.15135697 -0.9883085 
0.42908692 -0.89715314 -0.10488477 
-0.5508556 -0.83371353 -0.038469695 
0.07154561 -0.9665814 0.24617404 
0.9241773 -0.04056778 -0.37980357 
-0.33566374 0.64108145 -0.6901771 
-0.8929659 0.44870022 -0.035779033 
-0.80596346 -0.5792952 0.12182007 
-0.8094445 -0.099727966 0.5786657 
-0.93276006 -0.29275435 -0.21036515 
-0.27016017 -0.12960853 -0.954052 
-0.05579834 0.41474587 -0.9082249 
-0.38503 0.91234505 -0.13920687 
-0.5605403 0.2768028 0.7804965 
-0.9556282 -0.18858337 0.22629838 
-0.5579478 -0.4161439 0.71799624 
-0.8208899 -0.23455259 0.5206966 
-0.96633255 -0.20313187 -0.15792033 
-0.8781642 0.4350084 0.19898593 
-0.8970427 -0.015615684 -0.44166812 
-0.88249856 0.092072144 -0.4612149 
-0.44071382 0.4279888 -0.7890482 
-0.55518466 0.7829963 0.28051195 
-0.9824268 0.16107889 -0.09429329 
-0.79353684 -0.31525832 -0.5204918 
-0.69967806 -0.61677873 -0.3606033 
-0.04664196 -0.33142298 -0.94232875 
-0.722799 -0.41844475 -0.54996884 
-0.36838698 -0.9067635 -0.20511253 
-0.08407039 -0.9813716 0.1727481 
-0.08893066 -0.8890054 -0.44917783 
0.24875014 -0.22054525 -0.9431241 
0.0910829 0.074712634 -0.9930368 
0.54176646 0.07082671 -0.83753973 
0.4646601 -0.7778956 -0.4230479 
0.5477289 -0.7451107 -0.38053027 
0.7619077 -0.6474363 -0.017970031 
0.0030453529 -0.6637836 0.74791855 
-0.1214088 -0.99180484 0.039786898 
0.061040867 -0.7542811 -0.6537079 
0.635126 -0.49070224 0.5965118 
0.552431 -0.43316358 0.71217227 
0.20714554 -0.32685363 0.92209405 
0.56842613 -0.64766014 0.5073737 
-0.026757117 -0.44773808 -0.89376444 
-0.05578257 -0.9865282 -0.15378669 
-0.8053981 -0.42198926 0.41624394 
-0.48806542 -0.079044074 -0.86922055 
-0.38748646 0.45431915 -0.8021524 
0.19256419 -0.14411104 -0.9706447 
-0.041209564 0.30962825 -0.9499643 
0.12805988 -0.73568654 -0.66510606 
-0.12275975 -0.99048346 -0.0622315 
0.6879225 -0.5480888 -0.47577462 
0.4466769 -0.7706627 -0.45448735 
0.79674923 -0.27572697 -0.53774107 
0.5547935 -0.78461695 0.2767319 
0.314545 -0.457841 0.83153063 
-0.5255064 -0.65390575 0.5442888 
-0.065476276 -0.9679889 0.24230254 
-0.26002774 -0.81023055 -0.5252733 
-0.24030006 -0.9706937 0.0031173339 
-0.14205095 0.33050182 -0.9330542 
-0.35120934 -0.10366471 -0.93054056 
-0.6761919 0.66434586 -0.31844792 
-0.7723406 -0.28047898 -0.56993127 
-0.21407442 -0.5765009 -0.78855497 
0.4440581 -0.1931616 -0.8749292 
-0.29451808 -0.27366722 -0.91562295 
0.06627766 0.26455036 -0.9620917 
0.40278983 0.23089634 -0.88569033 
0.36114237 -0.08763565 -0.9283837 
0.49950108 -0.68971574 -0.52420515 
0.7713916 -0.5195609 -0.36743912 
0.55025274 -0.62269604 0.5563018 
-0.098094374 -0.21445507 0.9717955 
-0.96305466 0.25029978 0.0993774 
-0.008246327 -0.73024297 -0.6831378 
0.24614404 -0.027172513 -0.96885234 
0.25412983 -0.18575747 -0.9491639 
-0.16927296 0.40622887 -0.8979559 
0.29955974 -0.3846735 -0.8730924 
-0.7017039 -0.70305574 -0.1154311 
-0.50206727 -0.6673388 -0.5500796 
-0.49079812 -0.25726688 -0.8324249 
-0.2217656 -0.8457264 -0.4853524 
0.76329726 -0.5490359 -0.3404952 
0.119814016 -0.88781816 -0.44432384 
0.38980466 -0.55497277 -0.7348861 
0.57873726 -0.43521455 -0.6896749 
-0.3450167 -0.29333618 -0.8915815 
-0.16552068 -0.4254434 -0.8897196 
0.0405809 -0.00012234488 -0.99917626 
0.7866319 0.11055484 -0.60744375 
0.8387928 -0.5012363 -0.21257667 
0.58966845 -0.72302556 -0.3598962 
0.2760727 -0.75056785 0.60035986 
0.023219509 -0.91137165 0.41092923 
-0.44752672 -0.3890203 0.8052224 
-0.58909404 -0.7226926 0.361502 
-0.7246415 -0.65224326 0.22242656 
-0.8830174 -0.32450956 0.33907804 
-0.6868445 -0.722343 -0.08040664 
-0.13775282 -0.9904474 -0.006173189 
0.48745507 -0.87259185 -0.03116474 
0.15373674 -0.79304147 -0.5894493 
0.7047996 -0.36984694 -0.6053684 
0.7949913 0.26416597 -0.5460817 
-0.44168797 -0.36787063 -0.81828046 
0.065057784 -0.82002115 -0.56862354 
-0.4342017 -0.8983608 0.066459365 
-0.6575778 -0.68363583 -0.31659678 
-0.5918495 -0.8009651 0.09038361 
-0.9620713 -0.21204403 0.1716283 
-0.6976186 -0.069758326 -0.7130653 
-0.51898056 -0.22134496 -0.8256305 
-0.05239892 -0.6221312 -0.7811575 
0.65214926 -0.5968802 -0.46737084 
0.9410247 -0.26115108 -0.21511094 
0.21116035 -0.036490913 -0.97677004 
0.31541398 0.51013786 -0.80017084 
0.22992499 0.4743886 -0.8497588 
-0.020970954 0.576955 -0.8165067 
0.16708232 0.09117967 -0.9817178 
-0.68828064 0.013791653 -0.7253135 
-0.5393299 -0.37978074 -0.75159156 
-0.358562 -0.078683175 -0.93018407 
-0.8199493 -0.54431707 -0.17720632 
-0.36338043 -0.9285006 -0.07642845 
-0.79802006 -0.41602278 -0.43599218 
-0.7979001 -0.5842835 -0.14821708 
-0.62910235 -0.76300895 -0.14848475 
-0.35399547 -0.6156642 -0.7040205 
-0.1412223 -0.67052245 -0.72832406 
-0.57016915 -0.7762842 -0.26886803 
-0.17935549 -0.9731143 -0.14449987 
0.2937951 -0.4742412 -0.82992756 
-0.24681081 0.107859105 -0.96304256 
-0.5449444 -0.09076429 -0.8335452 
0.48027238 -0.36490718 -0.7976097 
0.8933931 -0.3002782 -0.33418822 
0.88108534 -0.16507767 0.44321316 
0.5030849 -0.8474824 0.16934924 
0.43602183 -0.8855857 0.16007207 
0.14109294 -0.9121476 -0.384811 
-0.7664197 -0.424062 0.48246482 
-0.5328519 -0.5985477 0.59817183 
-0.86787367 -0.47787973 0.13574414 
-0.1872186 -0.7436357 -0.6418374 
0.23700798 -0.6763662 -0.6973923 
-0.10585822 -0.4720742 -0.87518 
-0.18279313 0.13519223 -0.97381204 
0.33688712 -0.171357 -0.92582065 
-0.33729547 -0.4438793 -0.83018255 
0.005745036 -0.92109746 -0.3892899 
-0.09579429 -0.2560752 -0.9618987 
0.38793656 -0.2917332 -0.87429804 
0.6893652 0.21941075 -0.6903873 
0.66670644 0.591013 -0.45409945 
0.4115993 0.9111978 0.017457692 
-0.3480626 0.22443716 -0.910209 
-0.43976092 0.28252473 -0.85251987 
-0.5158888 0.6246548 -0.58622956 
-0.52009183 0.7173011 -0.4636634 
-0.85887367 -0.14072888 0.4924749 
-0.5060385 -0.8066597 -0.3053281 
-0.5955201 -0.12135949 -0.7941208 
-0.65424633 0.44202268 -0.6136593 
0.090296924 -0.08166304 -0.99256116 
-0.13228072 -0.25445217 -0.95799583 
0.054706357 -0.05172392 -0.9971619 
-0.67267555 -0.5260677 -0.5203465 
-0.124149054 -0.7916921 -0.5981729 
-0.3437513 -0.57618505 -0.74151593 
0.07514088 -0.9794673 0.18707667 
0.115893014 -0.9919407 -0.051210288 
0.13396889 -0.8285129 -0.5437084 
0.11091908 -0.5685178 -0.81515926 
0.76977825 -0.2967659 -0.56512964 
0.93357134 -0.07021125 0.3514469 
0.6886774 -0.72450626 -0.02853534 
0.17030771 0.19659007 -0.9655816 
0.3865388 0.43557352 -0.81293523 
0.27954936 0.04205451 -0.9592099 
0.4078533 -0.46454382 -0.7860374 
0.26596305 -0.50174665 -0.82311237 
-0.5315126 -0.47837475 -0.69903654 
0.03492991 -0.6524662 -0.7570124 
-0.37680474 0.06835782 -0.923767 
0.15141357 -0.31981668 -0.93530285 
-0.07657141 -0.8921885 -0.4451253 
-0.36741793 -0.51061374 -0.77735305 
-0.82293326 -0.37859687 -0.4236099 
-0.07028227 -0.50563806 -0.8598783 
-0.82392985 -0.073521994 -0.56190217 
-0.478097 0.12358236 -0.86956924 
0.16427691 -0.7386538 -0.6537612 
0.63689905 0.1449824 -0.75719196 
-0.17450099 -0.11053002 -0.9784337 
-0.44626486 -0.044246323 -0.89380646 
0.34981132 -0.35555744 -0.8667243 
0.11580691 0.30529484 -0.94518983 
0.78195554 -0.010009745 -0.6232538 
0.5441256 -0.8302221 -0.12107261 
0.16007613 -0.8525313 -0.49756017 
0.64024186 -0.7624016 0.093990095 
-0.3423974 -0.88104063 -0.32639176 
-0.17492568 -0.84476167 -0.50574577 
0.254819 -0.69954205 -0.6676139 
-0.32180712 -0.6966901 -0.6411421 
0.26735443 -0.5265052 -0.8070402 
0.40532684 -0.56845635 -0.71593827 
0.002839505 -0.97224015 -0.23396812 
-0.4240376 0.2265859 -0.8768415 
-0.035921026 0.47693035 -0.87820685 
-0.287961 0.029139828 -0.95719874 
-0.1413928 -0.29268426 -0.94569767 
-0.20186098 -0.5041931 -0.8396675 
-0.16026889 -0.13919865 -0.97720915 
0.5476594 -0.59754086 -0.5856742 
-0.12489839 -0.5873876 -0.79961014 
-0.16644341 -0.81223977 -0.5590736 
0.304874 -0.17283085 -0.9365797 
0.34464276 -0.46531856 -0.81529135 
0.075180285 0.18707393 -0.9794648 
0.35245144 -0.6589994 -0.6644531 
0.87893444 -0.47143865 -0.07224992 
0.5690457 -0.7661002 -0.29879358 
0.7879054 -0.5139403 -0.33922058 
0.11124201 -0.99193364 0.060768537 
0.4705746 -0.88155913 0.03759204 
0.29283735 -0.7096003 -0.64086956 
0.41883206 -0.681763 -0.5998158 
0.49749509 -0.77047914 0.3985733 
0.8048058 -0.5530797 0.21538433 
0.9649062 -0.14850868 -0.21656716 
0.68982524 -0.7057077 -0.16160995 
0.91440946 -0.30642486 0.26449817 
0.84899724 -0.2289012 -0.47624356 
0.829527 -0.48233956 0.28148478 
0.06807753 -0.78532374 0.6153309 
-0.45760405 -0.69516695 0.554384 
-0.72239774 -0.69136775 -0.012339343 
-0.011129535 -0.8800224 -0.47480184 
-0.90516114 -0.3749499 0.20023982 
-0.5572576 -0.78214437 0.27877265 
-0.8475796 -0.5275789 0.05717968 
-0.43457535 -0.8115568 0.39053807 
-0.91230315 -0.3037301 -0.27468348 
-0.45422104 -0.15623598 -0.87708247 
-0.6940662 -0.5001393 -0.5178154 
0.2531458 -0.75320756 -0.6071207 
0.7171164 -0.043864034 -0.6955718 
0.7235295 -0.12730376 -0.6784533 
0.90573716 -0.37146497 -0.20409334 
-0.39985216 -0.81513023 0.4191432 
-0.17643823 -0.6317794 -0.75480103 
-0.35396644 -0.4837377 -0.8004409 
-0.62496537 0.3073739 -0.7175929 
-0.42468858 -0.38167742 -0.8209519 
-0.2841929 -0.46975297 -0.835803 
-0.49425936 0.5850378 -0.6429918 
-0.20207722 0.71838796 -0.66564524 
-0.6880771 -0.7008104 -0.1881882 
0.4929747 -0.79396015 -0.35581338 
0.44487795 -0.7420756 -0.5014054 
-0.20002168 -0.6527519 -0.7306889 
0.47454807 -0.14359808 -0.86843765 
0.4607593 0.8222272 0.3341305 
-0.5061228 0.31915602 0.80123603 
-0.7313973 0.13094164 0.6692626 
-0.32258642 -0.71014684 0.6258032 
-0.740525 -0.497469 0.45182678 
-0.28426996 -0.94885886 0.13732298 
-0.77695197 0.12927654 -0.61614376 
-0.4541758 -0.07250577 -0.8879569 
-0.24851578 -0.31278968 -0.91673476 
-0.34810337 0.932598 -0.09531567 
-0.3363155 0.7970975 -0.50152516 
-0.79428375 0.5517149 -0.25440952 
-0.66246426 -0.40023294 -0.63320994 
-0.2208689 0.11800213 -0.9681387 
0.28129908 -0.42987734 -0.85794896 
0.14158368 -0.7664183 -0.62654394 
0.5204093 -0.7884536 -0.32789505 
0.687151 -0.6476945 -0.32911292 
0.24185674 -0.528754 -0.8135875 
0.63828194 -0.087763265 -0.7647836 
0.6790313 -0.62009615 -0.39293432 
0.7616371 -0.6437485 -0.07414037 
0.2680827 -0.8683701 0.417211 
0.20342557 -0.9780036 0.046119437 
-0.06498252 -0.99480975 -0.078300186 
-0.037752528 -0.9790502 -0.20008849 
-0.09775 -0.86247796 -0.4965652 
-0.11911536 -0.9819904 -0.14665054 
0.6466591 -0.72171503 0.24689972 
0.5574294 -0.76915187 -0.31253502 
0.25091088 -0.956062 0.15162238 
-0.10467157 -0.930636 -0.3506573 
-0.15479425 -0.39262268 -0.90657943 
0.030271668 0.1290737 -0.99117285 
0.5615031 0.6246923 -0.5426544 
0.54054034 0.06569928 -0.8387489 
0.32131356 -0.18540499 -0.9286456 
0.5166118 -0.079839654 -0.85248923 
0.49081987 0.0973838 -0.86580163 
0.5662336 -0.03616959 -0.8234508 
-0.018826187 -0.6585545 -0.7522976 
0.6382825 -0.7455075 -0.19187014 
0.23704278 -0.093219906 -0.96701646 
0.23877358 -0.47771683 -0.845443 
-0.24894957 -0.92201847 -0.29648966 
0.39253664 -0.8464071 -0.3598749 
-0.38097212 -0.8378137 0.39106083 
-0.5876458 -0.7454132 0.31469306 
-0.6803637 -0.5809926 -0.44671345 
-0.81090176 -0.16770208 -0.5606375 
-0.38608778 0.4569682 -0.8013216 
-0.6076987 0.48045737 -0.6323472 
-0.5827727 -0.5076812 -0.6345359 
-0.42904818 -0.05577834 -0.9015578 
-0.6320997 0.026181195 -0.77444464 
-0.06057535 -0.27951083 -0.95822984 
0.011216001 -0.11962067 -0.99275637 
0.18104361 -0.2219917 -0.95809346 
0.71291775 0.07309478 -0.6974278 
0.5755493 -0.27639866 -0.7696407 
0.37970898 -0.3227244 -0.8669891 
0.71548253 -0.13735577 -0.6849951 
0.5521844 -0.72436285 -0.4127843 
0.09955012 -0.9319962 -0.34852943 
-0.08412006 -0.9032469 -0.42079574 
0.2425672 -0.62296027 -0.7436946 
-0.124815345 -0.2793488 -0.95204276 
-0.07001901 0.40693003 -0.91077185 
0.19582874 0.6894859 -0.69732374 
0.2989525 0.2791994 -0.9125104 
0.044154566 -0.20040473 -0.97871774 
0.06568072 -0.19492486 -0.9786166 
-0.21398598 -0.3881314 -0.8964174 
-0.07342675 0.104165874 -0.99184585 
0.22918572 -0.93562263 -0.26848537 
-0.46552163 -0.4753995 -0.7465153 
-0.49356 -0.8156278 -0.30191064 
-0.5818825 -0.5050939 -0.63741124 
-0.65671706 -0.052352224 -0.7523178 
-0.09099738 -0.55451715 -0.8271821 
-0.35293457 -0.5649928 -0.7458019 
-0.22212085 -0.7427086 -0.6317011 
-0.38958806 -0.920725 -0.022063285 
0.1864339 -0.7941786 -0.57837945 
-0.6919204 -0.44942516 0.5650339 
0.15637092 -0.79279035 0.58909386 
0.046105217 -0.94622594 -0.32020444 
-0.4080597 -0.9004421 -0.15063666 
-0.19803935 -0.77124995 -0.6049413 
-0.49883288 -0.8223516 -0.27368525 
-0.666079 -0.61855143 0.4168129 
-0.028176809 -0.9843786 0.17379604 
-0.10765854 -0.95947194 -0.26042905 
0.0111743165 -0.6550539 -0.7554996 
0.24082519 -0.17804283 -0.9540986 
0.2763605 -0.3879807 -0.8792588 
-0.4635022 -0.8530532 -0.2397207 
-0.4865838 -0.6967887 -0.5269931 
-0.17509459 -0.81062394 -0.55877614 
-0.6758762 -0.61121845 -0.41182947 
-0.51712793 -0.8558749 0.00755154 
-0.84327626 -0.5242575 -0.118487336 
-0.49896196 0.051735397 -0.8650784 
0.084456936 0.41635445 -0.90527135 
-0.2115819 -0.30028683 -0.9300865 
0.10605578 -0.409545 -0.9061044 
0.5474385 0.202729 -0.8119188 
0.5115007 0.42610204 -0.74619305 
0.45752713 0.49361098 -0.7396061 
0.010937057 0.43025908 -0.90263915 
0.49978617 0.4178009 -0.7587201 
0.5883491 0.35878608 -0.7246502 
0.554465 0.2872661 -0.781055 
0.5629378 0.06241025 -0.82413954 
0.26442963 0.20795901 -0.9417165 
-0.039193437 -0.5122024 -0.8579701 
-0.21618927 -0.25379717 -0.942788 
-0.67246205 -0.37394312 -0.6387186 
-0.09418109 -0.95729923 -0.27332786 
0.3450967 0.41882694 -0.83993596 
-0.41312355 -0.39234066 -0.821826 
0.018263096 -0.09929527 -0.99489045 
-0.50254714 -0.7954059 -0.33878568 
-0.5083083 -0.8221481 -0.2563111 
0.39694864 0.003388378 -0.9178346 
-0.40983012 -0.59409463 -0.6921639 
-0.71200866 -0.4024004 -0.5754283 
0.29070964 -0.22834006 -0.92916566 
0.599484 -0.65942675 -0.45362455 
0.81903076 -0.39925674 -0.41204706 
0.6811164 -0.6448408 0.3467864 
0.2504628 -0.96523005 0.07482969 
-0.37910458 -0.84334517 -0.38085255 
-0.3942506 -0.8220777 -0.41079783 
-0.8051061 -0.5742651 -0.14840393 
-0.5838906 -0.8011581 0.1312151 
-0.6638176 -0.6240426 -0.4122101 
-0.37363485 -0.59357285 -0.7127891 
-0.6406062 -0.5433292 -0.5426023 
-0.31227136 -0.30842653 -0.89853203 
-0.72577614 -0.4970245 -0.47562146 
-0.15594402 -0.57136375 -0.805745 
-0.74104273 -0.32229012 -0.58905417 
-0.43509483 0.017915182 -0.90020645 
0.55773836 -0.53891414 -0.6312682 
0.56235176 -0.57469845 -0.59454376 
0.8103621 0.38694903 -0.4399814 
0.63878703 0.32712418 -0.6963771 
0.54507905 0.7626326 -0.34825337 
0.2237885 0.96905166 0.10420093 
-0.7445769 0.6575389 -0.11509985 
-0.9726741 0.2305836 -0.027136056 
-0.72855216 -0.5796905 0.36492574 
0.11466149 -0.99178654 0.056677476 
-0.6155709 -0.7780722 -0.12520482 
-0.78201216 -0.47388443 -0.404834 
-0.38462478 -0.33572498 -0.8598562 
0.28081614 -0.48245603 -0.82968587 
0.12887633 0.2552945 -0.9582357 
-0.07919326 -0.14259805 -0.9866075 
-0.098436974 -0.8152843 -0.5706327 
-0.15566279 -0.54197216 -0.82585436 
0.39305618 -0.6446745 -0.6556689 
0.23101541 -0.67151976 -0.70405483 
0.16968916 -0.64582926 -0.7443858 
0.3047522 -0.027114047 -0.9520457 
0.44010276 -0.81631905 -0.37407616 
0.69696915 -0.68380976 -0.2159589 
0.86155605 -0.39741334 -0.315886 
0.051845 0.06506019 -0.9965337 
0.45397934 -0.11622867 -0.8833989 
-0.49666902 -0.030644223 -0.867399 
0.03343567 -0.013498182 -0.9993498 
-0.368493 -0.20433655 -0.9068955 
-0.3084842 0.08089202 -0.9477838 
-0.44369 -0.28479767 -0.8497232 
-0.4475122 -0.17454295 -0.877079 
0.14550398 0.088627055 -0.9853801 
0.5174767 -0.21429294 -0.82843006 
-0.26037428 -0.25796506 -0.9304082 
-0.35471392 -0.3775517 -0.85535544 
-0.44369757 -0.1659062 -0.8806859 
-0.1641507 -0.61448765 -0.77166015 
0.18004836 -0.887425 -0.4243342 
-0.039035406 -0.86247635 -0.5045898 
0.053179577 -0.68279904 -0.72866833 
-0.3714422 -0.3866341 -0.8441238 
-0.15147178 -0.32479793 -0.9335752 
-0.258445 -0.61674446 -0.7435271 
0.46481577 0.28717297 -0.83754283 
0.6506871 0.48275027 -0.5861386 
-0.5007282 -0.18396568 -0.8458297 
-0.0065701343 -0.42535126 -0.90500456 
-0.16419487 -0.98356444 -0.075106636 
0.15516892 -0.9743184 -0.16317584 
0.11094285 -0.98601496 -0.12436306 
-0.08434193 -0.39213157 -0.9160346 
-0.013306651 -0.08197108 -0.99654585 
-0.034086008 -0.4479823 -0.8933924 
0.6072911 -0.58108854 -0.54178745 
0.16286556 -0.16807722 -0.97222686 
-0.35917753 0.536793 -0.7634427 
-0.021812484 0.80226743 -0.5965664 
0.23198363 0.86824214 -0.4385649 
-0.13429569 0.38396564 -0.913529 
-0.24031201 0.17871714 -0.95410186 
0.16308075 -0.108113855 -0.9806712 
0.29211468 -0.062343914 -0.95434916 
0.3755641 -0.26794285 -0.8872194 
-0.03863159 0.03394861 -0.99867666 
0.4749241 -0.4944193 -0.72800875 
0.05163475 -0.3038091 -0.9513327 
0.23142938 -0.21426445 -0.9489632 
0.5247758 -0.8478531 -0.07586431 
0.39639136 -0.81311077 -0.42629212 
0.4440652 -0.8271289 -0.3444765 
0.7247981 -0.65690523 -0.20770992 
0.19058365 -0.85278845 -0.4862406 
0.4818954 -0.13379192 -0.8659542 
0.7691197 -0.43942475 -0.4640698 
0.13636725 -0.7291218 -0.67066044 
0.58962846 -0.6989731 -0.4046911 
0.4868214 -0.84150386 -0.23425703 
0.42169446 -0.5038761 -0.75384533 
0.9105464 -0.15994279 -0.3812135 
0.9512107 0.30445528 0.05005316 
0.9666705 -0.023777952 -0.25491732 
-0.2557152 -0.9449045 -0.20436555 
0.38473475 -0.8917637 0.23819487 
-0.26213115 -0.8945863 -0.36194283 
0.06637581 -0.9835543 0.16797416 
-0.16707663 -0.62856406 -0.7596003 
-0.80595094 -0.5288501 -0.26600885 
-0.5247091 -0.8474202 -0.08099068 
-0.4430597 -0.865859 -0.23234972 
-0.37940276 -0.8761307 0.2974032 
-0.9009085 -0.37419733 0.21986446 
-0.5411748 -0.37822902 -0.7510476 
0.0549299 -0.4055413 -0.9124248 
-0.055170376 -0.13082485 -0.9898693 
-0.06010564 -0.39121088 -0.9183362 
0.28344396 -0.19721149 -0.938492 
0.28532293 -0.26595086 -0.9207938 
0.21880671 -0.8782829 -0.42513874 
0.34847963 -0.42883316 -0.83346516 
-0.7915568 -0.16550365 -0.5882573 
-0.6125837 -0.21119896 -0.76166683 
-0.8521769 -0.5161877 0.08570104 
-0.37614912 -0.039972503 -0.92569655 
-0.6194871 -0.038217563 -0.784076 
0.34140337 -0.06062707 -0.93795955 
-0.2782149 -0.95883805 -0.056798052 
-0.43696246 -0.89662445 0.07161427 
0.62505484 -0.6914582 -0.36220455 
0.23839292 -0.44644648 -0.86247 
0.9333386 0.12741202 -0.3356268 
0.746834 0.38178855 0.54449666 
-0.021106811 -0.5206967 0.8534808 
-0.23313183 -0.56076294 0.7944775 
-0.5313147 -0.565571 0.630741 
-0.83571106 0.10960662 0.5381203 
-0.45636636 -0.4124459 0.78842765 
-0.99941945 0.022639986 -0.02545954 
-0.55237323 -0.55565035 -0.6213988 
-0.050520312 -0.6467827 -0.7609992 
-0.78326225 0.2632508 -0.5632045 
-0.6300868 0.22356637 -0.74364555 
-0.971859 0.056272328 -0.22874355 
-0.2298475 -0.28369588 -0.9309601 
0.105338186 0.39687282 -0.91180915 
0.20349486 -0.36012292 -0.9104402 
0.6843994 -0.58127856 -0.440128 
0.84515584 0.177094 -0.50433064 
0.88913226 0.36472976 -0.27643445 
0.3905743 -0.4509236 -0.80257064 
0.83171606 -0.21288809 -0.51276416 
0.56148887 -0.796897 0.22290221 
0.40725645 -0.9132996 0.005096065 
0.12165926 -0.9827894 0.13901143 
0.05826833 -0.52457345 -0.84936893 
0.15612529 -0.64318013 -0.74962944 
-0.09604216 -0.6503474 -0.7535411 
0.12360353 -0.33065236 -0.9356235 
0.6206817 -0.75133234 -0.2241745 
0.3947404 -0.8379064 -0.3769523 
0.21701834 -0.5927327 -0.77561 
0.64093155 -0.2154997 -0.73672706 
-0.68301994 -0.3184082 -0.65734327 
0.09943137 -0.056211054 -0.9934555 
0.8782717 -0.022692068 -0.47762328 
0.7253381 0.5328352 -0.43585694 
0.6646658 0.002114772 -0.7471378 
0.048698656 -0.30865252 -0.94992745 
0.15038224 -0.6401736 -0.7533678 
-0.09739564 0.100026876 -0.9902065 
0.47385845 0.44484437 -0.75998145 
-0.3704196 -0.37142482 -0.8513713 
0.035471134 -0.85038096 -0.5249706 
0.11329323 -0.24928278 -0.961781 
-0.24804892 0.10601194 -0.96292955 
-0.88146937 -0.3788748 -0.2818966 
-0.8590529 -0.49570912 -0.12767364 
-0.8804222 -0.1893909 -0.43472734 
-0.35372034 -0.18466772 -0.91694045 
-0.7123095 0.11670358 -0.6920949 
-0.72858435 0.28025422 -0.624998 
-0.4637928 0.6577119 -0.5935582 
-0.32510656 0.6243533 -0.71027374 
-0.7329069 -0.38778 -0.558994 
-0.45892888 0.06885575 -0.88580084 
0.17895241 -0.3174265 -0.9312446 
0.44472012 -0.8869457 -0.12470548 
0.7361551 -0.47584978 -0.48129278 
-0.08417971 -0.5003838 -0.86170185 
-0.018456904 -0.5413283 -0.84060866 
-0.10106233 -0.8809777 -0.46223882 
-0.10196474 -0.7692225 -0.63079304 
0.39562732 -0.87475544 -0.27978918 
0.44109333 -0.7849602 -0.43505657 
-0.48703745 -0.10379804 -0.8671912 
0.11487242 -0.2506448 -0.9612396 
0.42017087 -0.18855286 -0.88763976 
0.79202604 -0.025710516 -0.6099458 
0.13379303 0.26082075 -0.9560711 
0.6411904 0.19118144 -0.74318546 
-0.3766409 0.4429221 -0.8136104 
0.4597534 0.47581652 -0.74981695 
0.47402194 0.13871098 -0.8695186 
0.3560606 -0.45212436 -0.81780463 
-0.014727387 -0.44391525 -0.8959478 
0.08901074 -0.7848353 -0.6132786 
-0.13699459 -0.7832294 -0.6064521 
-0.56826997 -0.52724415 -0.6317301 
0.080276415 -0.6390902 -0.76493114 
-0.3500028 -0.4208045 -0.836912 
0.13204157 -0.98396164 -0.11993564 
-0.71862704 -0.45392388 -0.5268096 
0.5342711 -0.26783723 -0.8017592 
-0.1754116 -0.8577612 -0.48319408 
0.42483577 -0.8231869 -0.3766671 
0.040162407 -0.99317 -0.10954637 
-0.86026853 -0.49985075 0.10043511 
-0.64078027 -0.76707333 0.031611126 
0.09079263 -0.92513645 -0.36861807 
0.19198272 -0.9542244 -0.22934352 
-0.69451326 -0.5097478 -0.5077485 
-0.51173025 -0.85336566 -0.09949419 
-0.330916 -0.91122806 0.2452716 
-0.49203083 -0.61451894 0.61666214 
-0.49315554 -0.6281895 -0.60181034 
-0.19229092 -0.2945264 -0.9360975 
0.006068966 -0.3203857 -0.9472678 
0.0073496248 -0.22392356 -0.974579 
-0.15026812 -0.61953664 -0.7704505 
-0.24909943 -0.60402966 -0.7570322 
0.14572577 -0.840442 -0.5219399 
-0.4540578 -0.60449296 -0.65453786 
-0.942756 -0.2903012 0.164123 
-0.8426684 0.24746796 -0.4781941 
-0.65221924 0.5132697 -0.5578211 
-0.7371685 0.3596169 -0.57206494 
-0.47138137 0.073832326 -0.8788336 
-0.20029731 0.50625247 -0.83880246 
0.11145118 0.4119361 -0.9043712 
0.0050439825 0.52919173 -0.8484873 
-0.25764176 0.2354159 -0.93712336 
0.65104514 0.5669716 -0.50466174 
0.3869909 0.45007783 -0.8047782 
0.5600773 0.07366858 -0.8251584 
0.31069118 0.03566291 -0.94984174 
-0.10328149 -0.121213235 -0.9872388 
-0.3894476 -0.47827893 -0.7871339 
-0.5143358 -0.549906 -0.6580746 
0.015488942 -0.7361472 -0.67664427 
0.57088536 -0.45033807 -0.6865024 
-0.23703952 0.39452025 -0.8877872 
-0.12955147 -0.22673197 -0.96530265 
0.50887674 -0.23630206 -0.82777166 
-0.23761915 -0.46714085 -0.8516552 
-0.21192582 -0.4499594 -0.8675391 
-0.18097006 -0.28122097 -0.9424249 
-0.17853546 -0.2807619 -0.9430259 
-0.14835228 -0.08506146 -0.98526967 
0.2548785 -0.22664155 -0.94003755 
0.51384324 -0.82560974 -0.23309611 
0.7109203 -0.5142833 -0.47969273 
0.7713009 -0.18694805 -0.60839576 
0.6325722 -0.3511188 -0.6903391 
0.35613966 -0.45898184 -0.8139411 
-0.4518533 -0.4816076 -0.75092125 
-0.024554793 -0.10400293 -0.99427384 
-0.4720428 0.45048395 -0.75778615 
-0.73750395 0.18955801 -0.64819425 
-0.3482348 -0.63106173 -0.69317645 
-0.7212237 -0.6681798 -0.1826803 
0.2587361 0.1892334 -0.9472309 
-0.5134779 -0.14130087 -0.8463892 
-0.06178436 -0.4901909 -0.8694226 
-0.3140539 -0.5554691 -0.76995087 
0.06737688 -0.23473762 -0.96972096 
0.7859271 -0.38290095 -0.48549512 
0.8059941 -0.24786696 -0.5375272 
0.9371469 0.29283488 0.18974559 
0.65150195 0.5951106 0.47051963 
0.24476248 0.8581137 0.4513672 
0.0040671723 0.14698438 0.98913056 
-0.5166069 -0.14304996 0.8441884 
-0.94965047 -0.041325927 0.31057382 
-0.9258097 -0.23289894 0.29771572 
-0.75322163 -0.6494137 -0.10449425 
-0.7471363 -0.21194074 -0.629975 
-0.61973125 0.21892883 -0.7536601 
-0.32914641 -0.4082254 -0.85147804 
-0.7590208 0.013489948 -0.65092677 
-0.5299286 -0.3333258 -0.77978826 
-0.15211022 0.107430086 -0.9825077 
0.22838923 -0.40067387 -0.88729864 
-0.7316289 -0.1572299 -0.66332346 
0.40166715 -0.37270513 -0.8365133 
0.8077281 -0.5412435 -0.2337326 
0.09069991 -0.08706503 -0.99206513 
-0.21301861 -0.6287091 -0.7478957 
0.24016234 -0.14809024 -0.9593703 
0.81152153 -0.055723008 -0.5816595 
0.49674195 -0.12736799 -0.8585016 
0.0982129 0.108182475 -0.9892678 
0.54757714 0.105755515 -0.83004534 
-0.21945533 0.48051816 -0.8490828 
0.2433304 0.058798254 -0.96815974 
0.34315693 0.54486054 -0.7650951 
-0.24162278 0.35679966 -0.9023926 
-0.51731026 0.23447171 -0.82305115 
-0.73906136 0.31304643 -0.59648156 
0.14870207 0.6655039 -0.73143166 
0.072444476 0.3668066 -0.92747223 
-0.17551254 -0.4521502 -0.8745031 
0.14997762 -0.38117024 -0.91225874 
0.5715269 -0.3592675 -0.737756 
0.4122882 -0.65023416 -0.6381333 
0.46450338 -0.6913815 -0.553379 
0.055773135 -0.84232444 -0.5360774 
0.5356043 -0.78987205 -0.29871434 
0.5198769 -0.3186401 -0.79258853 
-0.3085266 -0.6271957 -0.7151482 
0.27983627 0.28060538 -0.9181244 
0.40423086 0.45776594 -0.7918636 
0.5185997 0.7767644 -0.35733944 
-0.4156606 0.27188388 -0.8679318 
-0.674408 -0.44797587 -0.58693403 
-0.12832162 -0.86463296 -0.48574004 
0.5173418 -0.7237059 -0.45673558 
0.8027005 -0.45140043 -0.3897558 
0.3728998 0.25297952 -0.892719 
0.3188594 -0.4455602 -0.8365434 
0.15640159 -0.62007034 -0.7687986 
0.38322148 -0.25985506 -0.8863503 
0.55018485 0.20404853 -0.8097289 
-0.18782331 0.32450393 -0.9270489 
0.042301163 0.96837956 0.24586907 
-0.16718827 0.9857441 -0.018885136 
-0.38131565 0.25702715 -0.8879953 
-0.49176076 0.4094831 -0.7684367 
0.7062648 0.37834612 -0.59836805 
-0.119115554 0.12403229 -0.98510283 
-0.011125103 0.34483078 -0.93859893 
-0.08750173 0.021441506 -0.9959336 
-0.27744368 -0.2757057 -0.9203323 
0.40838 -0.4111797 -0.81495833 
0.5094437 0.11025337 -0.8534116 
0.055660937 -0.8288244 -0.5567334 
0.7169086 -0.6808791 -0.14981894 
0.47845206 -0.60201806 -0.6392637 
0.34637192 -0.36835134 -0.8627536 
-0.2921622 -0.16472414 -0.9420761 
0.17626983 -0.25381887 -0.95105475 
0.23250066 -0.86420345 -0.44620147 
0.18888406 -0.8462994 -0.49809656 
0.41674832 -0.90880066 -0.020057129 
0.44407475 -0.6679465 -0.5971977 
0.85443187 -0.49665937 0.15256333 
0.87217253 0.47584492 -0.11351911 
0.5260039 0.8446335 0.099570595 
0.3997575 0.85714734 0.324796 
-0.33823174 -0.331624 -0.8806957 
-0.2673856 -0.7569964 -0.59620595 
-0.6240704 -0.41814205 -0.6600708 
0.17467898 -0.5644682 -0.8067607 
-0.5733199 -0.58469766 -0.5739626 
-0.62056696 -0.66971743 -0.4078912 
-0.42854002 -0.61313707 -0.66363883 
-0.11447827 -0.9802789 0.16108367 
-0.47786865 -0.85074246 0.2188125 
-0.5027271 -0.7065982 0.49798042 
-0.7925767 -0.2500611 -0.55613995 
-0.24188747 -0.663957 -0.7075674 
-0.14921801 -0.00060470926 -0.9888042 
-0.18207349 -0.47022226 -0.86356264 
-0.013191211 -0.44865757 -0.89360636 
0.3281488 -0.6844154 -0.65107137 
0.30100223 -0.62939984 -0.7164172 
0.64758503 -0.6958904 0.31043565 
-0.69550633 -0.68300706 -0.22309709 
-0.50834185 -0.29263502 -0.80990946 
-0.17718291 -0.89074033 -0.41855472 
-0.5533663 -0.68443847 -0.47468904 
-0.5805705 0.035089426 -0.8134535 
-0.2617467 -0.34109148 -0.90285397 
0.040610142 -0.6894047 -0.72323716 
-0.101009876 -0.8604924 -0.49934942 
0.327008 -0.6127888 -0.7194135 
0.41858977 -0.722445 -0.5503234 
0.9460585 -0.06490537 -0.31742817 
0.6522896 0.025636898 0.7575361 
-0.4900502 -0.734284 0.46976367 
-0.31185704 -0.7596132 0.5707303 
-0.4659201 -0.74700975 0.47423083 
-0.6009325 -0.5359669 0.5929753 
-0.7091061 -0.68621117 0.16211976 
-0.90842086 -0.3096307 -0.2808923 
-0.65172124 -0.12506095 -0.74807703 
-0.1427339 -0.083766095 -0.98621005 
-0.8171322 -0.119641386 -0.56389797 