# OOMMF: rectangular mesh v1.0
# Segment count: 1
# Begin: Segment
# Begin: Header
# Desc: Time (s) :  5.89000000000001e-07
# Title: m
# meshtype: rectangular
# meshunit: m
# xbase: 2e-09
# ybase: 2e-09
# zbase: 5e-10
# xstepsize: 4e-09
# ystepsize: 4e-09
# zstepsize: 1e-09
# xmin: 0
# ymin: 0
# zmin: 0
# xmax: 1.024e-06
# ymax: 1.024e-06
# zmax: 1e-09
# xnodes: 256
# ynodes: 256
# znodes: 1
# ValueRangeMinMag: 1e-08
# ValueRangeMaxMag: 1
# valueunit: 
# valuemultiplier: 1
# End: Header
# Begin: Data Text
0.7762345 -0.33006766 0.53713626 
0.6656003 -0.65976876 0.3488288 
-0.3432966 -0.9159967 -0.20760003 
-0.82044065 -0.56253177 -0.102153644 
-0.49499518 -0.8245797 -0.2739493 
-0.3787552 -0.7898834 -0.4823162 
0.36968476 -0.46807283 -0.80264634 
-0.050585795 -0.07680313 -0.9957622 
0.26281562 -0.71737456 -0.64521444 
0.4018116 -0.5133866 -0.7582755 
0.9589861 -0.28205094 -0.028158914 
0.895165 -0.43093365 0.11391117 
0.8913979 -0.15957804 0.42419901 
0.5736329 -0.37911853 0.7260953 
0.88798475 -0.43850738 0.13854386 
0.017474286 -0.9378821 0.34651357 
-0.4426889 -0.15562427 0.88306713 
-0.7950179 -0.53605145 0.2838934 
-0.8043973 -0.45467952 -0.38237646 
-0.67800915 -0.6231917 -0.38978928 
0.1686797 -0.4553339 -0.8741959 
0.58610874 -0.78611434 0.19621603 
0.29153684 -0.9429616 0.16071668 
0.5701335 -0.8011466 -0.181967 
0.36242643 -0.3941627 0.8445607 
0.05052129 -0.15623435 0.9864271 
-0.8959397 -0.09737511 0.43337053 
-0.9385385 0.0024799977 -0.34516573 
-0.82981753 0.50764924 -0.2317221 
-0.363284 -0.64246964 -0.6747278 
-0.5674138 -0.5241834 -0.6350382 
-0.17951475 -0.97243655 -0.1488007 
-0.4825527 -0.80826056 -0.33742833 
0.04314064 -0.33396888 -0.9415964 
0.24770875 -0.5868909 -0.77084345 
0.0067835725 -0.33643404 -0.9416827 
0.7179041 -0.6953893 -0.032365315 
0.21144496 -0.9538625 0.21316075 
0.3043153 -0.44531775 -0.8420715 
-0.049835775 -0.911623 -0.40799507 
0.1503508 -0.46696332 -0.87140113 
-0.053977877 0.079311274 -0.9953875 
0.60809124 -0.634322 0.4773477 
0.006735697 -0.89622533 -0.44354808 
0.07320283 0.3299745 -0.94114727 
0.26885435 -0.49128193 -0.82846814 
0.55009973 -0.78525794 -0.28418362 
-0.03602196 -0.6270892 -0.77811414 
-0.47246268 -0.07904666 -0.87779874 
-0.28445637 -0.6689973 -0.68667847 
-0.90170044 0.07421474 -0.4259442 
-0.21086906 -0.2794608 -0.93671554 
-0.32601562 -0.4641348 -0.8235853 
-0.20423175 -0.37112597 -0.90584487 
0.14369544 -0.45424893 -0.87920964 
0.6083587 -0.5032085 -0.6137434 
0.7193982 -0.09563127 0.68798333 
0.31605425 -0.918449 -0.23782621 
0.06803189 -0.9975563 -0.01590854 
0.14099164 -0.9483297 -0.28423983 
-0.44618288 -0.89493597 0.0032513505 
-0.13880958 -0.97228616 -0.18812639 
-0.66205835 -0.7490704 -0.023923116 
-0.46182933 -0.84567773 0.26747507 
-0.52256316 -0.85055184 0.059071176 
0.58086044 -0.5465559 -0.60322297 
0.5558388 -0.34985992 -0.75408316 
-0.36259046 0.5609471 -0.7442221 
-0.4411928 0.5922038 -0.6742727 
0.16288811 0.47155425 -0.86666256 
-0.31453508 0.93748325 -0.14897275 
-0.88615537 -0.23060432 -0.4019335 
-0.12475509 -0.8775717 -0.46292982 
0.35773116 -0.84546304 -0.3965107 
0.334148 -0.9064535 -0.25823882 
0.1341 -0.8420599 -0.52244854 
-0.051925067 -0.99543625 0.08006671 
0.26026437 -0.96552324 0.0052295984 
-0.49661067 -0.20292138 0.84391993 
-0.06985991 -0.63971436 -0.7654314 
0.19195704 -0.49363115 -0.84822214 
0.1451368 -0.906464 -0.39655814 
0.1750303 -0.9561664 -0.23475559 
0.09898013 -0.7673368 -0.63355935 
0.3052395 -0.9031679 -0.30185515 
0.7954097 -0.31873932 -0.5154888 
0.8339937 -0.34959283 -0.426895 
0.43183032 -0.58515507 0.686379 
-0.22841074 -0.8403089 0.49163958 
-0.61542565 -0.75326765 -0.23203279 
-0.61543953 -0.43080494 -0.66003126 
-0.31553873 -0.43561417 -0.8430158 
-0.36706913 -0.89841455 -0.24106343 
0.06532134 -0.26261264 -0.9626878 
-0.24727425 -0.21972497 -0.94370353 
0.007999757 -0.8595395 -0.51100683 
0.64019877 -0.7136164 -0.2844245 
0.7372765 -0.435 -0.5169124 
0.9801279 -0.17944719 0.084546916 
0.5229971 -0.76691353 0.37191093 
0.15563674 -0.9668343 -0.20250605 
0.1193778 -0.85926884 0.49739924 
0.041067615 -0.94460005 0.32564455 
0.6410657 -0.63653535 -0.42878607 
0.51491696 -0.44461045 -0.73292714 
0.7776974 -0.2597298 -0.5724747 
0.38976395 -0.8760944 -0.28380045 
0.7029284 -0.64467305 -0.30048034 
0.34690282 -0.9350984 0.072453976 
0.45988545 -0.44994727 -0.76554096 
0.62554836 -0.77825725 0.054818448 
0.31239638 -0.94836736 -0.0548446 
-0.26318136 -0.8787509 -0.39816117 
-0.2636101 -0.9641456 0.030548109 
-0.35174492 -0.88673484 0.29996175 
-0.83386445 -0.54377735 0.09474271 
-0.9895157 -0.020612946 -0.14294663 
-0.37202537 -0.6035659 -0.7051988 
-0.965087 0.2606203 -0.026157897 
0.34646687 -0.03431416 -0.9374344 
0.6387393 -0.3627899 -0.6785246 
0.6431071 -0.47330764 -0.601991 
0.16292073 -0.1909396 -0.9679871 
0.53986174 -0.5899111 -0.6004618 
-0.33128595 -0.8227364 0.46190324 
-0.86790323 -0.31624672 0.3830564 
-0.4259256 -0.46868673 -0.77389926 
0.52010417 -0.67921776 -0.5178368 
0.049521223 -0.73486793 -0.67639995 
-0.27717528 -0.119213246 -0.95339507 
-0.15307182 -0.6713724 -0.7251401 
0.10533389 -0.75717354 -0.6446651 
0.6769597 -0.61336994 -0.4068205 
0.9621113 -0.27125785 0.027588062 
0.5363537 -0.8277258 0.16490775 
-0.28453344 -0.6876711 0.6679441 
0.342446 -0.92421126 -0.16900973 
-0.18897279 -0.93025315 -0.3145128 
-0.73787904 -0.6341168 -0.23115043 
-0.79823357 -0.5658896 -0.2063788 
-0.5145538 -0.028965853 -0.8569688 
0.114728324 -0.058887806 -0.99165 
0.6596695 -0.280184 -0.6973759 
0.92554575 -0.2976917 -0.2339758 
0.65758824 -0.73239225 -0.17657685 
0.8034577 -0.18839628 -0.56476766 
-0.6181396 -0.35231248 -0.7026944 
-0.59656155 -0.7827776 -0.17712638 
-0.6509827 -0.73022825 0.20733617 
-0.69220114 -0.5785227 -0.43147337 
-0.4097725 -0.9082585 -0.08457497 
-0.87141615 -0.49040258 0.011806287 
-0.7074735 -0.70324343 -0.070213675 
0.0075118607 -0.8833897 0.46857893 
-0.39469552 -0.7622421 -0.51303273 
-0.83439267 -0.54947567 -0.043192144 
-0.18214972 -0.96567893 -0.18516402 
-0.20289156 -0.9033496 -0.37788185 
-0.06815726 -0.94226485 -0.32785904 
-0.4024056 -0.607053 -0.6852419 
0.40589562 -0.86920065 -0.2823809 
-0.042006265 -0.97793573 0.20463899 
0.18844321 -0.7466518 -0.6379657 
-0.89864933 -0.43690833 -0.03925035 
-0.5707686 -0.7541795 -0.32470998 
-0.5853988 0.04254244 -0.80962855 
-0.81832725 -0.036591273 -0.5735867 
-0.4083153 -0.72390616 -0.5560922 
-0.8991217 0.03458196 -0.43633056 
-0.7182551 -0.46397397 -0.51849586 
0.239626 -0.8751825 -0.42027953 
0.687231 -0.24685346 -0.6832108 
0.3138381 -0.9472259 -0.0653364 
-0.038819026 -0.86741114 -0.4960756 
0.8422463 -0.2677607 -0.46789473 
0.47318965 -0.71646684 -0.51260793 
0.30293268 -0.9350712 0.1840483 
-0.011529875 -0.66773933 0.7443059 
-0.96569556 -0.25953007 -0.008736955 
-0.93090314 -0.14336835 -0.33595365 
-0.056547374 -0.801006 -0.5959796 
-0.32623354 -0.86325866 0.3851704 
0.057194483 -0.99174106 0.11479785 
-0.0673574 -0.4176542 -0.906106 
0.004716118 -0.5658664 -0.8244836 
-0.08128799 -0.073258124 -0.9939947 
0.23905471 -0.19501625 -0.95122105 
0.68507344 -0.66231585 -0.30333513 
0.37707254 -0.28546384 -0.88109404 
0.42198044 0.092250064 -0.9018994 
0.69415766 -0.45551258 -0.5573629 
-0.8359454 -0.448925 -0.31569237 
-0.4813337 -0.85048085 0.21213298 
-0.30969846 -0.7486572 0.5861734 
0.0769635 -0.84960085 -0.52178055 
0.21067381 -0.2382125 -0.9480882 
0.69893223 -0.6540333 -0.2893687 
0.7735202 -0.49551317 -0.3951372 
0.30847624 -0.93148845 0.19279945 
-0.0940878 -0.879378 -0.46673533 
0.14204016 -0.9869822 0.075437054 
-0.08187623 -0.979862 0.1821173 
-0.8033866 -0.58821696 0.092578955 
-0.88822937 -0.45812178 -0.034248974 
-0.59355146 -0.38769838 -0.70525646 
0.24260603 0.2785061 -0.9292883 
0.6307592 -0.20315309 -0.74891376 
0.56109685 -0.3487225 -0.75070834 
0.6015866 -0.3571792 -0.71450454 
-0.23651853 -0.58040684 -0.779222 
0.32781008 -0.7136353 -0.6190843 
-0.09279228 0.19336826 -0.97672844 
0.0648242 -0.016226277 -0.99776477 
0.17136495 -0.7592134 -0.6278766 
0.2003346 -0.5716344 -0.79567593 
-0.05846167 -0.7745979 -0.6297463 
-0.56938726 -0.6998142 -0.4313447 
-0.59916735 -0.7501423 -0.27979496 
-0.40349737 -0.5499601 -0.731255 
0.25061473 -0.7648267 -0.5934917 
0.67835516 -0.36590666 -0.6371395 
0.34711426 0.014234925 -0.9377149 
-0.83939445 0.32199812 -0.43787485 
-0.76498663 -0.065125845 -0.64074504 
-0.79033613 0.15170623 -0.5935941 
-0.29186857 -0.2453138 -0.92446417 
0.5489524 -0.5287098 -0.6473927 
0.08798327 -0.85163164 -0.51670355 
-0.27868322 -0.31210056 -0.90825605 
-0.74003726 -0.23260021 -0.6310642 
-0.1253716 -0.47273403 -0.87224114 
-0.061784226 -0.019994345 -0.99788934 
-0.077450246 -0.25987208 -0.96253216 
0.033942822 -0.57958186 -0.8142069 
-0.7499233 -0.36388722 -0.5524503 
-0.45374396 -0.6432512 -0.61672074 
-0.007982953 -0.8144092 -0.5802361 
-0.43977085 -0.8938555 -0.08731544 
-0.05011253 -0.97387433 0.22148985 
-0.44574386 -0.7431873 0.49898398 
0.18341258 -0.5472559 0.8166216 
-0.19051468 -0.7535755 -0.6291487 
-0.6502576 -0.6619003 -0.37289834 
0.28384683 -0.7361191 -0.61445886 
-0.5855051 -0.33956474 0.73612475 
-0.5661698 -0.10693365 0.817323 
-0.19758786 -0.88582057 0.4198582 
0.12636055 -0.98465824 0.12033787 
0.08786798 -0.45737204 -0.8849238 
0.07476897 0.080086164 -0.9939798 
0.16717839 -0.7053459 -0.68886757 
0.24504395 -0.8754207 -0.41664395 
0.36796626 -0.7737822 -0.5156179 
0.42600513 -0.7802249 -0.45800522 
0.31945035 -0.47764754 0.81841576 
0.21945027 -0.43776134 0.87189835 
0.5628814 -0.8210165 0.09537666 
0.053652734 -0.99848896 -0.011886096 
-0.541989 -0.6430329 -0.54107 
-0.3288547 -0.64676416 -0.6881502 
0.27462956 -0.73508805 -0.6198582 
-0.41360247 -0.866444 -0.27965695 
-0.08569725 -0.44219765 -0.8928143 
-0.042087175 -0.107084654 -0.99335873 
0.15486631 -0.35650268 -0.9213698 
-0.15965334 -0.16225687 -0.9737472 
0.65974087 -0.6463767 -0.38332656 
0.49131048 -0.82970434 -0.2649618 
0.92678046 -0.35511178 0.12236702 
0.74501526 -0.5092168 0.43087196 
0.48841968 -0.7842207 0.38268045 
0.34971276 -0.9192385 0.18083577 
-0.5055824 -0.6357608 0.58326215 
-0.58964753 -0.48099068 0.6488173 
-0.65923595 -0.7185791 -0.22147702 
-0.4020356 -0.47413528 -0.7833027 
-0.59045714 -0.65428317 -0.4725187 
0.12761202 -0.6070092 -0.7843819 
0.56107306 -0.5008129 -0.65907776 
0.52377945 -0.7022226 0.48222268 
0.55031097 -0.44136924 0.7087673 
-0.6973782 -0.031025771 0.71603143 
-0.7558085 0.03518293 0.65384686 
-0.98057103 -0.14939614 -0.12712713 
-0.77686226 0.056892343 0.6270953 
-0.5904638 -0.7060733 0.3909132 
-0.6851389 -0.2607714 -0.68013453 
-0.6744379 -0.712084 -0.19511524 
-0.41615814 -0.5856577 -0.6955699 
-0.1833803 0.05883683 -0.98127973 
-0.09648282 -0.15883906 -0.9825789 
-0.08122053 0.07418905 -0.9939312 
0.8721491 -0.10710073 -0.47737357 
0.28688025 -0.40013623 -0.8703969 
0.33453116 -0.45902693 -0.8230329 
0.34189805 -0.8106128 -0.47540793 
0.51495945 -0.32794252 -0.79200405 
-0.5282199 -0.18022077 -0.8297615 
-0.34818548 -0.46369693 -0.8147099 
-0.05702059 -0.2682551 -0.961659 
-0.7106571 -0.0585513 -0.7010979 
-0.40371573 -0.36250365 -0.8400029 
-0.45982462 -0.5357035 -0.70822537 
-0.39286876 -0.100502275 -0.9140861 
-0.42209762 0.6075155 -0.6728734 
-0.57965267 0.6810828 -0.4473579 
-0.49044684 0.27788588 -0.82597905 
-0.19581811 0.024781656 -0.9803271 
-0.733359 -0.27511534 -0.6216881 
0.26192418 -0.88451284 -0.38604763 
-0.10894607 -0.6259304 -0.77223176 
0.560145 -0.58121854 -0.59027326 
0.5906574 -0.73750794 -0.3274231 
0.1459555 -0.73346424 -0.6638729 
0.22953956 -0.85107946 -0.47220272 
0.21543525 -0.8834726 -0.4160093 
-0.16655603 -0.8998229 -0.4032094 
-0.29295498 -0.5470294 -0.78417873 
-0.17376707 -0.007919725 -0.9847549 
-0.046795208 -0.57143486 -0.81931216 
-0.80117816 -0.5745759 0.16726041 
-0.41570768 -0.4965262 -0.76200324 
-0.7123108 -0.08702353 -0.6964484 
-0.75948054 0.16576906 -0.6290549 
-0.7139911 0.40886965 -0.5683681 
-0.68698364 0.26128066 -0.6780752 
-0.40940505 0.61301523 -0.6757218 
-0.09750172 0.103003986 -0.98989075 
0.5194672 -0.20516558 -0.8294944 
0.8513873 0.09401604 -0.51604337 
0.93695825 -0.20488368 -0.28307602 
0.62499887 -0.2353323 -0.74430853 
0.3501057 -0.5968995 -0.72189826 
0.42758232 -0.86994797 -0.24569112 
0.18851797 -0.93909186 0.2873457 
0.4358365 -0.86553824 -0.24675919 
0.274079 -0.0588758 -0.95990336 
0.07072741 -0.30117214 -0.9509433 
0.82238966 -0.5166908 -0.23812991 
0.6226403 -0.50104487 -0.60106003 
-0.20225468 -0.8208345 -0.53415716 
0.017692959 -0.20485218 -0.9786331 
-0.3939579 -0.5607753 -0.72823644 
-0.5871707 -0.48551017 -0.64769626 
0.11822061 -0.9873286 -0.10585958 
-0.111562334 -0.948077 -0.2978318 
-0.4327464 -0.0827079 -0.8977137 
-0.14123084 -0.37569842 -0.9159174 
-0.6871863 -0.69352746 -0.21632071 
-0.99634504 0.03489668 0.07796746 
-0.545154 -0.55810314 -0.62556225 
0.2368415 -0.55949354 -0.7942753 
0.16886164 -0.65831965 -0.73355377 
0.20564853 -0.66859025 -0.7146299 
0.3845685 -0.3616078 -0.84932154 
0.6740417 -0.7125752 -0.19469069 
0.7964353 -0.5502791 0.25076628 
0.25352857 -0.9585113 -0.1303051 
-0.22767536 -0.9630638 -0.14377771 
-0.24121572 -0.51440763 -0.8229216 
0.46875358 -0.46152171 -0.75317186 
0.56827104 -0.036702365 -0.82202244 
0.31113186 -0.82527757 -0.47128972 
0.44037685 -0.8974324 0.026140912 
-0.3696311 -0.88428354 -0.28533435 
-0.14209755 -0.7947454 -0.5900748 
0.31791127 -0.9072667 0.27531716 
0.10758529 -0.90639436 0.40850282 
-0.10895605 -0.9924849 -0.055698685 
0.32010755 -0.84603375 -0.4263309 
-0.67814755 -0.71637243 0.16409288 
-0.522369 -0.81067795 0.26444638 
-0.9258357 -0.23640491 0.29485747 
-0.16801356 -0.87837136 -0.4474767 
-0.65165424 -0.3365133 -0.67978346 
-0.14586826 -0.003492374 -0.98929787 
0.5295118 -0.2614122 -0.8070198 
0.65228695 -0.4767687 -0.58924824 
0.19599023 -0.58198273 -0.78923005 
0.31491175 -0.47432294 -0.82210004 
-0.2206429 -0.9403286 -0.25903448 
-0.5889825 -0.7371095 -0.33131465 
-0.09181917 -0.5830544 -0.8072279 
-0.34045446 -0.69266975 -0.6358455 
-0.12773193 -0.4229704 -0.8970956 
-0.34692454 0.13675933 -0.92786866 
0.56342673 -0.45375562 -0.690403 
0.11168198 -0.18294626 -0.97675884 
0.6088386 -0.7840863 -0.120516874 
0.94418055 -0.2780902 -0.17660367 
0.48298144 -0.7779707 0.40185896 
0.36680958 -0.56021875 0.7427017 
0.50975233 -0.8529649 0.11226514 
0.3426685 -0.9389412 -0.031110588 
-0.5791351 -0.8124502 0.067286246 
-0.61756694 -0.56272846 -0.5494978 
-0.5502196 0.083778754 -0.8308066 
-0.33591783 -0.1229479 -0.9338325 
-0.43095636 -0.5453854 -0.7189099 
-0.1415869 -0.67706436 -0.7221752 
-0.29554448 -0.6844763 -0.66644263 
-0.21488947 -0.962056 -0.1681391 
-0.61800146 -0.7245506 -0.3051239 
0.06619649 -0.8503301 -0.5220698 
-0.31306237 -0.54201424 -0.7798799 
-0.3660911 -0.6982561 -0.6151551 
-0.35045734 -0.17354348 -0.92035997 
-0.31311145 -0.51315236 -0.79914695 
-0.41114742 -0.8666188 -0.28271827 
0.10055562 -0.94765866 -0.3030376 
-0.2822924 -0.5228568 -0.80432075 
-0.23946129 -0.95202404 -0.19054838 
0.0387647 -0.6713047 -0.74016714 
-0.30628633 -0.4248456 -0.8518772 
-0.5351012 -0.75608253 -0.37683678 
-0.76086634 -0.56062263 -0.32677913 
0.11340904 -0.4027488 -0.90825754 
-0.13178137 -0.86965716 -0.47574183 
0.23884584 -0.95586 0.17112648 
-0.72484434 -0.6847303 0.07579724 
0.08041166 -0.92277324 -0.3768603 
-0.44649315 -0.5975975 -0.6659739 
-0.6595928 -0.36616066 -0.65640205 
-0.7264832 -0.51032466 -0.46020743 
-0.32339975 0.12522236 -0.9379403 
0.022857815 0.008504846 -0.99970263 
-0.14768891 -0.4850676 -0.86191493 
0.13124318 -0.39659992 -0.90856135 
-0.430987 -0.12341306 -0.8938788 
0.16421348 -0.57512635 -0.80141354 
-0.27500927 -0.6264077 -0.72937196 
0.6156371 -0.50621974 -0.6039309 
-0.34333143 -0.79298663 -0.5032849 
-0.11394707 -0.9681154 0.22308904 
-0.616165 -0.69394225 0.37253866 
-0.76136255 -0.24247465 0.6012762 
-0.193054 -0.54370487 -0.8167712 
-0.7295377 -0.43835294 -0.5249966 
-0.3703529 -0.43243334 -0.8220951 
-0.24846211 -0.29306394 -0.92324436 
-0.01846051 -0.46951997 -0.88272893 
-0.008074421 -0.7717061 -0.63592803 
-0.06274782 -0.47695616 -0.87668437 
0.23121095 -0.57101107 -0.78771055 
0.18478191 -0.5825843 -0.7914868 
0.7823488 -0.25681525 -0.5674296 
0.8468312 -0.04044468 -0.5303217 
-0.65850747 -0.7408926 0.13208386 
-0.043707095 -0.8673056 -0.4958535 
0.37689057 -0.8337264 -0.40355158 
0.2153351 -0.92041856 -0.32628274 
-0.12201122 -0.52735984 -0.8408359 
0.20686907 -0.8111386 -0.54704607 
0.3492819 -0.7931655 -0.49888945 
0.09232172 -0.9858903 0.13963158 
0.72313416 -0.6001448 0.34191132 
-0.037271935 -0.99571025 -0.08468774 
0.371117 -0.72877413 -0.5754655 
0.19270115 -0.8716363 -0.45068446 
-0.4370769 -0.6066301 -0.66405106 
-0.50409436 -0.70442337 -0.49967647 
-0.24330775 0.13221678 -0.96089554 
0.49092612 0.44336724 -0.74994475 
0.6339911 0.16527852 -0.7554723 
0.33637005 -0.25911716 -0.9053803 
-0.28315595 0.28977898 -0.91424876 
0.0852845 -0.7398483 -0.66734624 
0.2726654 0.03084816 -0.9616143 
0.1144113 -0.39876688 -0.90988743 
-0.3159049 -0.037753902 -0.94803953 
0.21825413 -0.16363508 -0.9620753 
-0.042942885 -0.0038211457 -0.9990703 
0.19223389 -0.28914657 -0.9377849 
-0.28361693 -0.5010616 -0.8176177 
0.09325086 -0.2298395 -0.9687508 
0.24582028 -0.2556858 -0.93498516 
0.5726838 -0.080333866 -0.8158307 
0.8195539 0.06556869 -0.5692382 
0.23644458 0.9675541 -0.089067355 
-0.39546314 0.26477072 -0.8794916 
0.021805525 0.098437905 -0.9949043 
-0.5884351 -0.3433605 -0.73201627 
0.2753505 -0.49539956 -0.8238699 
0.014120579 -0.71931374 -0.69454193 
0.007440533 -0.09825455 -0.9951335 
0.39101383 0.0024192694 -0.92038167 
0.20228393 0.0665786 -0.97706115 
-0.07053143 0.432017 -0.8991033 
0.5014178 0.27384183 -0.82072586 
0.47263172 -0.52843815 -0.7052464 
-0.12143852 -0.061204277 -0.99071026 
-0.038204826 -0.5838425 -0.81096756 
-0.1720279 -0.76447856 -0.621272 
0.18603835 -0.97616506 -0.1117664 
0.73238033 -0.67372024 0.09859105 
0.6662002 -0.58383965 -0.46401367 
0.5894459 -0.8056436 -0.059092652 
0.10978194 -0.36965403 -0.92266136 
-0.48668924 -0.4449209 -0.7517839 
-0.24396834 -0.7311474 -0.63710517 
-0.7457792 -0.62822455 -0.22169203 
0.2313039 -0.87856394 -0.41788054 
0.84765893 -0.37398124 -0.3763142 
0.45024934 -0.86790323 -0.20980874 
-0.119598225 -0.6139009 -0.7802705 
-0.61284494 0.13466279 -0.7786444 
0.13664556 -0.47163814 -0.87114036 
0.36707494 -0.8375465 -0.40468758 
0.60621965 -0.7409626 -0.2889154 
0.5027575 -0.8590237 -0.096505426 
0.54289037 -0.6606342 0.51849055 
-0.17902309 -0.9671194 0.18064053 
-0.393848 -0.62243634 -0.6763556 
0.27892148 -0.65949667 -0.6980452 
0.116692215 -0.5731724 -0.81108344 
-0.7170171 0.05977878 -0.6944877 
-0.14092244 -0.43756756 -0.88807404 
-0.3281062 -0.38535324 -0.862467 
-0.5944644 -0.6223188 -0.50924605 
0.26118734 -0.80065244 -0.53920025 
0.37104726 -0.73461616 -0.56803447 
0.34615493 -0.7724029 -0.5325134 
0.2973696 -0.78977233 -0.53649896 
0.8449079 -0.48393896 -0.22788991 
0.489369 -0.86969006 -0.064475864 
0.7313592 -0.68052614 0.044699196 
0.51320636 -0.5982824 0.61536777 
-0.095868394 -0.7944976 0.5996524 
0.26341665 -0.6382068 0.7233975 
-0.36065882 -0.79118687 0.49391142 
-0.39715412 -0.912057 -0.10208256 
-0.8208727 -0.56768465 -0.06246806 
-0.21155582 -0.9755058 -0.060270946 
-0.015802884 -0.7087749 -0.7052577 
0.69673324 -0.5740519 -0.430148 
0.6313255 -0.57260406 -0.5230228 
0.23537952 -0.4537702 0.85947037 
0.1727671 -0.537419 0.82542855 
-0.7925672 -0.51678044 0.32369033 
-0.83736914 -0.54550725 0.03514188 
-0.8047648 -0.5769079 -0.1397531 
-0.60128915 -0.72776586 -0.32986087 
-0.74459356 -0.53640485 -0.39730376 
-0.37505826 -0.80228686 -0.4643997 
-0.050450645 -0.4277491 -0.9024885 
-0.2821095 -0.68438274 -0.6723352 
0.07984275 -0.34903497 -0.93370223 
-0.18424149 0.17470494 -0.9672298 
0.40255743 0.10281524 -0.90960246 
0.38545784 -0.14102711 -0.91188467 
0.6266235 -0.043270692 -0.7781199 
0.02560334 -0.31059438 -0.95019776 
-0.016514199 -0.46308404 -0.8861605 
0.38876238 -0.63417906 -0.6683419 
-0.06365731 -0.22178058 -0.97301656 
-0.43041667 -0.75364304 -0.49675304 
-0.009702047 -0.61482656 -0.7886028 
0.1336837 -0.0785424 -0.9879068 
-0.7902091 -0.5904303 -0.16420037 
-0.42554152 -0.14901777 -0.8925851 
-0.22617626 -0.11891405 -0.96680087 
-0.83704793 -0.16603574 -0.52132803 
0.32079405 0.2678044 -0.9084999 
0.5804675 0.21251439 -0.78606313 
0.048015356 -0.18122028 -0.98226976 
-0.34879577 0.061245997 -0.93519545 
-0.3144387 0.6947415 -0.64688694 
0.0715926 0.27727738 -0.95811886 
0.34491166 0.17944692 -0.9213223 
0.066331305 -0.22941394 -0.9710662 
0.12398802 -0.86650443 -0.48352578 
-0.06504662 -0.9195935 -0.3874492 
-0.09861125 -0.45864186 -0.88313276 
-0.70902175 -0.421458 -0.56538606 
0.038771827 -0.49951318 -0.8654383 
0.088901795 -0.38638097 -0.91804475 
-0.24518637 -0.4476225 -0.8599523 
-0.73945487 -0.16908598 -0.65162605 
-0.5293031 0.80627877 -0.26410753 
-0.2592673 0.8336909 -0.48758608 
-0.9742814 0.11195084 -0.19555756 
-0.8859348 -0.17996752 -0.4274707 
-0.60264987 0.46253917 -0.6502851 
0.14131586 -0.04032108 -0.98914313 
0.59355557 -0.7078084 -0.38301316 
0.5806808 -0.59307545 -0.5577378 
0.5046924 -0.55607355 -0.6603543 
-0.016806789 -0.3359179 -0.9417414 
-0.1393929 -0.5346287 -0.83351177 
0.4301488 -0.84325236 -0.32233152 
-0.5849624 -0.81078184 0.021255203 
0.3397897 -0.7016424 -0.6262914 
0.22045048 -0.49131304 -0.8426228 
-0.25097144 -0.5728635 -0.7802825 
0.46006975 -0.7807271 -0.42284885 
0.46067587 -0.8083752 -0.3664796 
-0.33066297 -0.7202328 -0.609858 
-0.73009735 -0.595561 -0.33505964 
-0.5216498 -0.5507511 -0.6515787 
-0.6844027 -0.387405 -0.6176653 
-0.4781269 -0.80793047 -0.34444597 
-0.3518867 -0.35664997 -0.8654344 
-0.27447626 -0.9336396 -0.23017366 
-0.47517347 -0.56547767 -0.6741255 
-0.1922043 -0.9240494 -0.3304395 
-0.9230701 -0.30893856 -0.22912602 
-0.8000669 0.31237558 -0.51216656 
-0.6469653 -0.3429954 -0.6810213 
0.41209924 -0.4439269 -0.79567784 
0.4120511 -0.10469269 -0.9051262 
0.99485594 -0.02951246 -0.09690564 
0.7161268 -0.51168764 -0.474698 
0.9063177 -0.42127246 -0.033432156 
-0.10124774 -0.9476602 -0.3028022 
-0.6538841 -0.60852957 -0.4495858 
0.15568621 -0.76394033 -0.62622446 
0.2095421 -0.507069 -0.8360461 
-0.04491605 -0.8348908 -0.54858005 
-0.34710744 -0.881298 -0.32067156 
0.44962433 -0.85463417 -0.25968924 
0.06583734 -0.94958264 -0.30652648 
-0.58095247 -0.118147634 -0.8053169 
-0.2168133 -0.84574723 -0.4875485 
0.072878614 -0.9314169 -0.35658255 
-0.04626964 -0.9507337 -0.3065363 
-0.60278565 -0.7363502 -0.30730766 
-0.32925943 -0.94260335 -0.05556199 
-0.5762862 -0.790601 0.20698869 
-0.6854985 -0.6063182 -0.40307593 
-0.20180169 -0.6162685 -0.7612419 
-0.27767488 0.040039655 -0.95984036 
0.15397364 0.26202247 -0.9526995 
0.040925156 0.19795553 -0.97935635 
0.3773799 0.17187785 -0.9099684 
-0.20846555 -0.14191939 -0.9676782 
0.25889304 -0.4548957 -0.85208243 
-0.34450454 -0.6846966 -0.6422672 
-0.31629398 -0.7346866 -0.60016155 
0.11542514 -0.665637 -0.7372953 
-0.019842606 -0.8720892 -0.4889445 
-0.47795835 -0.66053975 -0.5790019 
-0.20208934 0.37613618 -0.90425736 
-0.21609634 -0.44475698 -0.8691914 
0.025274366 -0.32762042 -0.94447136 
0.16660361 -0.37572855 -0.9116312 
0.54706293 -0.82681185 0.13078395 
0.45811236 -0.87739944 0.14248975 
0.12165681 -0.67994213 0.7231033 
0.17127527 -0.87975717 0.44349995 
0.24075025 -0.7925219 0.56031096 
-0.33553693 -0.7674142 0.54634285 
-0.6856467 -0.5133581 -0.5160931 
-0.42688954 -0.8242697 -0.37194717 
-0.8426679 -0.20096278 -0.49952465 
-0.7711582 -0.35575578 -0.5279705 
-0.76913816 0.2320587 -0.59546214 
-0.0004993222 -0.009416718 -0.9999556 
-0.74540097 -0.66476595 0.04963493 
-0.55499643 -0.75063807 -0.35849878 
-0.004380047 -0.4224943 -0.906355 
-0.22183143 -0.7930137 -0.56738 
-0.32603773 -0.2670681 -0.90684843 
-0.04860955 -0.5619231 -0.82575995 
-0.35924563 -0.82725877 -0.43195537 
0.005220348 -0.55828387 -0.82963365 
-0.4854024 -0.7370882 -0.4701974 
-0.25986913 -0.4186531 -0.8701711 
0.042245835 -0.1365328 -0.9897344 
-0.14900695 -0.45921415 -0.8757393 
-0.24905908 -0.43034616 -0.8676243 
0.23225623 -0.718178 -0.6559555 
0.5462843 0.37568977 -0.7486192 
0.64594895 0.11793262 -0.7542162 
0.5528621 -0.25925103 -0.79191685 
0.8580034 -0.3365237 0.3880492 
-0.20586903 -0.35654923 0.9113125 
0.28200457 -0.87331116 -0.39724186 
-0.35382748 -0.6439209 -0.6783598 
0.04855027 -0.32175323 -0.9455781 
0.04835062 -0.74704176 -0.66301656 
-0.41737303 -0.28222826 -0.86379796 
-0.36151108 0.1954271 -0.9116568 
-0.27230027 -0.58365357 -0.7649844 
-0.08487478 -0.46328467 -0.8821358 
0.22991155 0.07600124 -0.9702394 
0.29194364 -0.62310654 -0.7256082 
0.24529362 -0.2078953 -0.9468953 
0.10273538 -0.8837406 -0.45656133 
-0.3833321 -0.8987628 -0.21279544 
-0.014599492 -0.96419317 -0.26479906 
-0.19356102 -0.9492028 -0.24808906 
-0.39499208 -0.6893028 0.6073245 
0.17708397 -0.84803337 -0.49948046 
0.09755018 -0.9301959 -0.3538637 
-0.40249994 -0.8963258 0.18599407 
-0.53501874 -0.52468234 -0.66216576 
0.17118332 -0.7197233 -0.67282593 
-0.24297553 -0.7584875 -0.60469794 
0.20421346 -0.64582235 -0.73567003 
-0.018118266 -0.9849802 -0.17171432 
0.5804958 -0.5343768 -0.6143827 
0.69132364 -0.25636375 -0.6755364 
0.3717741 -0.35627675 -0.8572345 
-0.080873 -0.34312594 -0.9358013 
0.23127675 -0.6739115 -0.7016797 
0.14408417 -0.878201 -0.45607328 
0.3704179 -0.92749393 -0.05045518 
0.3828891 -0.7287785 -0.5676952 
0.7565218 -0.30845 -0.57665724 
0.7064311 -0.61381847 -0.35239488 
0.3691984 -0.9173408 0.14892484 
0.45146424 -0.8920785 -0.019390412 
0.15619066 -0.7868739 -0.59702104 
0.07660773 -0.6750848 -0.73375183 
0.5272371 -0.06412232 -0.8472954 
0.4525416 -0.5516911 -0.70060194 
-0.16522494 -0.10440137 -0.9807146 
-0.058989413 0.21420366 -0.9750063 
-0.018791992 0.6612127 -0.74996316 
0.51039594 0.54635584 -0.66407174 
0.34964332 -0.0900015 -0.93254995 
0.71420294 0.3113732 -0.62686604 
0.6471812 0.352879 -0.67574626 
0.18472953 0.20254685 -0.96169114 
-0.03580378 0.3567776 -0.933503 
-0.34423035 0.024968574 -0.9385533 
0.08867089 0.51211417 -0.8543282 
0.03337725 -0.36014912 -0.93229747 
0.3495774 0.016315958 -0.9367655 
-0.11488644 -0.5382523 -0.83491653 
0.13787659 -0.12501766 -0.9825277 
0.16113472 -0.39860728 -0.90285534 
0.35945243 -0.28288567 -0.88925236 
0.5450595 0.5204189 -0.65732366 
0.8051505 0.50648063 0.3085614 
0.4239353 0.50451607 -0.7521585 
0.9475823 0.20898001 -0.2416924 
-0.38111597 0.411101 -0.8280983 
-0.23339918 0.23348594 -0.94393283 
-0.30220824 0.5912966 -0.74768883 
0.06846775 0.73108685 -0.67884046 
-0.064299926 -0.37148717 -0.9262089 
0.40623757 0.004135782 -0.91375816 
0.39502785 0.76837194 -0.50354517 
-0.27540234 0.69181174 -0.6674955 
-0.71074414 -0.111420296 -0.6945706 
0.22199015 -0.036402605 -0.97436917 
-0.18426743 0.18225764 -0.96583 
-0.12733267 -0.7045428 -0.6981446 
-0.36651927 -0.8556317 -0.3654561 
0.483341 -0.8699727 -0.09761636 
0.15661824 -0.48503932 -0.8603532 
0.804489 -0.50335175 -0.31533232 
0.7855213 -0.6172884 -0.04371717 
0.13358769 -0.64501405 -0.7524036 
-0.13821483 -0.10940356 -0.9843412 
-0.52287346 -0.7665446 -0.37284425 
-0.007746133 -0.63667214 -0.77109575 
0.3003674 -0.72786766 -0.6164318 
0.6620413 -0.6695793 -0.336697 
-0.047248516 -0.6910093 -0.72130007 
0.096459344 -0.50231797 -0.85928595 
-0.19530079 -0.38453582 -0.90221393 
0.1962426 -0.5921314 -0.7815813 
0.88456523 -0.27255416 -0.37849545 
0.4680491 -0.20871627 -0.8587012 
0.950661 -0.3061572 -0.05011513 
0.95319706 0.11298197 -0.2804469 
-0.36808965 -0.77165884 -0.518703 
0.0341665 -0.7324783 -0.67993253 
0.07221723 -0.432668 -0.8986563 
-0.47691056 -0.05801946 -0.8770348 
-0.3915782 -0.2370821 -0.8890775 
-0.31775418 -0.14731883 -0.9366587 
-0.43840575 -0.7758012 -0.4537985 
0.016395265 -0.94817734 -0.31731856 
-0.04097079 -0.9716177 -0.23298213 
-0.12805536 -0.71723175 -0.68496746 
0.056374695 -0.50885606 -0.8590037 
0.88941103 0.03801095 -0.45552525 
0.35412848 -0.55050045 -0.7560043 
-0.07755641 -0.37365642 -0.9243192 
0.7872293 -0.23463358 -0.57027817 
0.3692726 -0.9253758 -0.08554226 
0.17786522 -0.81823134 0.5466822 
-0.65300655 -0.75656724 -0.034474224 
-0.59061074 -0.29520896 -0.75101984 
-0.87471896 -0.43193388 -0.21977265 
-0.023372114 -0.906513 -0.42153051 
0.1244393 -0.56642526 -0.814664 
0.058918703 -0.9979171 -0.026270697 
0.46007952 -0.6775076 -0.57385576 
0.3085916 -0.8790391 -0.36340258 
0.22010297 -0.97526085 -0.02051942 
-0.45753276 -0.8759653 0.15280284 
-0.72877806 -0.6003074 0.32941416 
-0.8518219 -0.49329665 -0.17623238 
-0.6083682 -0.68256176 -0.40496632 
-0.6365354 -0.6538871 -0.4089675 
-0.46200845 -0.20085114 -0.8638328 
-0.2507111 -0.4812791 -0.83994913 
-0.09806639 -0.5973943 -0.79592913 
0.08732514 -0.41136456 -0.90727806 
0.07686353 0.015758483 -0.9969171 
-0.15861806 0.14323299 -0.9768954 
-0.018780928 0.5889182 -0.8079744 
0.33601153 0.2301664 -0.9133016 
0.053023517 0.33822381 -0.93957084 
0.3856238 0.19739091 -0.9012942 
-0.15507433 -0.46335766 -0.87249744 
-0.69206446 0.30580598 -0.65385747 
-0.7779993 0.15823932 -0.6080112 
-0.88554573 0.18798833 -0.4248165 
-0.7231701 -0.33685157 -0.6029561 
-0.4102282 -0.45405027 -0.79091805 
-0.5624454 -0.59375536 -0.57542133 
-0.460819 -0.4112493 -0.78646034 
-0.9057325 -0.029057205 -0.42285258 
-0.51944625 0.06257584 -0.85220885 
0.4414148 0.42933816 -0.7879224 
-0.10672854 0.52723134 -0.8429924 
-0.34963357 0.69011563 -0.6336378 
-0.43924934 0.7133459 -0.54607475 
-0.24351121 0.23793094 -0.9402612 
-0.0073311906 -0.7072387 -0.7069369 
0.3331857 -0.7048911 -0.62619156 
-0.118883565 -0.68110293 -0.72247183 
-0.5331913 -0.048346665 -0.8446121 
-0.5612522 -0.45467815 -0.6915663 
-0.7272659 0.22019747 -0.65007496 
-0.19223581 0.066585995 -0.9790872 
-0.8421976 -0.3543171 -0.4064021 
-0.589847 -0.30022386 -0.7496307 
0.11599735 0.326371 -0.93809736 
0.12729418 0.87357605 -0.46974573 
0.34302807 -0.026719686 -0.93894506 
-0.938529 -0.14349401 -0.31396294 
-0.73689455 0.5294788 -0.42028415 
-0.29529026 0.7627269 -0.57537055 