# OOMMF: rectangular mesh v1.0
# Segment count: 1
# Begin: Segment
# Begin: Header
# Desc: Time (s) :  5.920000000000011e-07
# Title: m
# meshtype: rectangular
# meshunit: m
# xbase: 2e-09
# ybase: 2e-09
# zbase: 5e-10
# xstepsize: 4e-09
# ystepsize: 4e-09
# zstepsize: 1e-09
# xmin: 0
# ymin: 0
# zmin: 0
# xmax: 1.024e-06
# ymax: 1.024e-06
# zmax: 1e-09
# xnodes: 256
# ynodes: 256
# znodes: 1
# ValueRangeMinMag: 1e-08
# ValueRangeMaxMag: 1
# valueunit: 
# valuemultiplier: 1
# End: Header
# Begin: Data Text
-0.79076093 -0.60887474 -0.062997535 
-0.6485227 -0.6817441 0.33859023 
-0.71370226 -0.700082 -0.022680603 
-0.10396982 -0.7679029 -0.63207227 
-0.32438457 -0.7709212 -0.54813796 
0.7535505 -0.28042105 -0.59458035 
0.7156526 0.24576692 -0.65378904 
0.54823476 -0.3050439 -0.7787086 
0.4905769 -0.8537154 -0.17465508 
0.67968726 -0.18539773 -0.70968515 
0.2755127 -0.29163936 -0.9159909 
0.49504486 -0.34534007 -0.7972897 
0.16946617 -0.9551683 -0.24276516 
-0.22461475 -0.8293513 0.51159024 
-0.2867139 -0.92600614 0.2455763 
-0.5399284 -0.6474795 -0.53781766 
-0.5047298 -0.84945023 -0.15388991 
0.22909282 -0.7846091 -0.5761121 
0.594279 -0.7332656 0.3303849 
0.67674446 0.012044898 -0.73611957 
0.7336676 -0.04967464 -0.6776904 
-0.36593947 -0.66576135 -0.6502694 
0.036879446 -0.8959673 -0.44258606 
-0.2882135 -0.77453196 -0.5630571 
-0.05795998 -0.9889171 -0.13668793 
-0.4694036 -0.8282953 0.30592063 
-0.6010201 -0.7927498 -0.101600245 
0.844977 -0.47521225 -0.2453307 
0.6817868 -0.4851422 0.54754347 
0.50475603 -0.84359235 -0.18323027 
0.40038714 -0.34858042 0.8474562 
0.44846368 -0.7668541 0.4591461 
-0.101530194 -0.6327216 0.7676946 
-0.1512275 -0.8486414 0.5068906 
-0.2542345 -0.9525547 0.16734529 
-0.024690641 -0.9431639 -0.33140957 
0.89815545 -0.41137713 0.1551955 
0.2974684 -0.834606 0.46362203 
0.010110332 -0.9745289 0.22403395 
0.57004195 -0.81735533 -0.083560996 
0.58791465 -0.80889845 -0.0063155047 
0.36441383 -0.9267623 0.09118271 
0.47625324 -0.6755047 -0.56291765 
0.14774048 -0.6448592 -0.7498863 
0.49194768 -0.31294787 -0.8124354 
0.17357671 -0.98188 -0.07604473 
-0.2913026 -0.9013442 0.3205022 
0.13355869 -0.42841485 0.893657 
0.1352231 -0.6342472 0.76121306 
0.0202062 -0.9179679 0.39613968 
0.022254298 -0.6579661 0.75271875 
-0.0042574583 -0.984429 0.17573097 
-0.79447806 -0.3568067 0.49142012 
-0.8581323 -0.30505025 0.41298115 
-0.5624331 -0.1481401 0.81346387 
-0.85454464 -0.5193438 0.0059776697 
-0.86752975 -0.49460146 0.052549295 
-0.4646897 -0.8432921 0.27004027 
-0.08987295 -0.8826763 -0.4613083 
-0.016461266 -0.8652616 -0.50105035 
0.15010536 -0.9811787 0.12147756 
-0.47478214 -0.71133155 -0.51825607 
-0.31049606 -0.8770098 -0.36666864 
0.11102709 -0.98263097 -0.14869286 
-0.52370644 -0.82793814 0.20062429 
0.37331018 -0.8680384 0.3273362 
-0.5181687 -0.30089635 0.8006014 
0.4521183 -0.39631677 0.7990757 
0.28840843 -0.5039407 0.8141648 
-0.60686535 -0.35112357 0.7130405 
-0.3603935 -0.8371176 0.4115226 
0.18548815 -0.67223006 -0.71672934 
0.6527782 -0.73569506 0.18064708 
0.6939146 -0.40437326 -0.59578925 
0.665369 -0.50936306 -0.5457412 
0.6641828 -0.7468467 0.032884285 
0.5097687 -0.8546888 0.09819823 
0.44185624 -0.8948777 -0.062905386 
0.3344727 -0.904522 -0.2645148 
0.53887904 -0.51603794 -0.6658186 
0.70233035 -0.068220526 -0.70857465 
0.72768664 -0.37316296 -0.5755186 
-0.054439504 -0.9859489 0.15792727 
0.22421004 -0.87220323 0.43473163 
0.34584036 -0.9166916 0.20017743 
0.46394798 -0.8845159 -0.048826285 
0.22549574 -0.84990567 0.47624812 
0.22947665 -0.9655918 0.1223638 
-0.23203272 -0.92558295 -0.29909357 
-0.4707056 0.19734181 0.8599375 
-0.87833595 -0.0042438735 0.47802523 
-0.47591442 0.47611094 0.7394755 
-0.4120244 0.26987088 0.8702906 
-0.30974555 0.5077041 0.8039243 
-0.22351559 0.97148615 -0.079091415 
-0.6711658 0.24745136 0.6987878 
-0.89395213 0.0041580806 0.44814312 
-0.7240486 -0.6323103 -0.27556738 
-0.39490962 -0.9107334 -0.120876364 
-0.6735584 -0.5456097 -0.4986273 
0.90371674 -0.07850174 0.4208724 
-0.5322937 -0.5719864 -0.6240955 
-0.5660552 -0.31588477 -0.761445 
-0.73118865 -0.47077686 -0.49369258 
-0.58146966 0.16341895 -0.7969865 
-0.9838882 -0.09523833 -0.15130657 
-0.9561099 0.24649192 -0.15841629 
-0.61836684 -0.49966857 -0.60659194 
-0.42577153 -0.74239445 -0.517271 
-0.4048922 -0.61418694 0.6773749 
-0.71523607 -0.6763815 0.17591317 
-0.4341582 -0.7950347 -0.42358756 
-0.0011949078 -0.9296163 -0.36852717 
-0.3716581 -0.3436836 -0.8624105 
0.34515947 -0.32893494 -0.8790146 
0.6397454 -0.46894237 -0.608949 
0.9096347 0.058703538 -0.4112403 
0.18842606 -0.84438664 -0.5015046 
0.59310126 -0.8050251 -0.01287034 
0.6240245 -0.7246956 0.2922496 
0.2609604 -0.87840617 -0.40037775 
0.68235344 -0.15911314 -0.71349627 
0.6345659 -0.7222484 -0.27510622 
0.4663674 -0.87743 -0.11233019 
0.19730207 -0.9571509 0.21197672 
-0.12650062 -0.98489887 0.118202575 
0.86742395 -0.462937 -0.1823874 
0.48283762 -0.8430584 0.23689754 
0.29838464 -0.44544944 -0.84412163 
0.353732 -0.78768945 -0.50439984 
0.7648659 -0.6155595 -0.18991262 
0.26390013 -0.8702889 0.41587725 
0.60711503 -0.24660608 0.7553787 
0.00924825 -0.9537414 0.3004861 
0.58757883 -0.13476181 -0.79786617 
0.62950087 -0.4178774 -0.65506274 
0.6410597 -0.7538309 -0.14415817 
0.29401773 -0.65754443 -0.69367784 
0.4219243 -0.9046831 0.059401054 
0.03069898 -0.99859464 -0.043202065 
-0.7551238 -0.3884856 -0.5280787 
-0.6586159 -0.70813906 -0.25448823 
0.10704182 -0.99113274 -0.07872676 
-0.3652253 -0.7241584 -0.58498305 
-0.17801315 -0.75785613 -0.6276666 
0.25220242 -0.59303737 -0.7646572 
-0.18790531 -0.048334718 -0.9809972 
-0.57710683 -0.34075975 -0.74217963 
-0.65504485 0.5855192 -0.47758102 
0.044767044 0.03839924 -0.9982592 
0.32067874 -0.6329949 -0.70461524 
0.014210895 -0.95160604 0.30699196 
0.36081645 -0.8827186 0.30103064 
0.19054992 -0.5801786 0.7918861 
0.471158 -0.3256845 0.8197193 
0.6936311 -0.6888591 0.2105922 
0.026268201 -0.6231071 0.7816954 
-0.5249597 -0.66116 0.53598964 
-0.9700359 -0.24183019 -0.023421481 
-0.18476546 -0.95330673 0.2388894 
0.13091874 -0.9317359 -0.33871603 
-0.46312252 -0.8591208 0.2177824 
-0.6754167 0.1479636 0.72243977 
-0.710613 0.5265971 -0.46660987 
-0.31520098 0.5300659 -0.7871966 
0.05694315 -0.37134454 -0.92674744 
-0.031434868 -0.7240155 -0.6890671 
-0.15409426 -0.98503095 -0.07725943 
-0.836611 -0.2536954 0.4855109 
-0.6892954 -0.6924587 -0.21300927 
-0.29487127 -0.9412671 0.16452165 
-0.5672711 -0.4911746 -0.6610228 
-0.6292188 0.44194457 -0.63935024 
-0.44555202 0.059869047 -0.893252 
-0.08848923 -0.9115252 -0.40161124 
-0.038076937 -0.7732102 -0.6330056 
-0.32631874 -0.7619997 -0.55935013 
0.45838273 -0.48272628 -0.746231 
0.3881293 -0.8577347 -0.3371155 
-0.18356189 -0.8916931 0.41374922 
-0.061579343 -0.692479 0.71880513 
0.7971802 -0.4673413 -0.3822251 
-0.29920307 -0.71408325 0.6329002 
0.8368853 -0.53851634 0.09809765 
0.36182958 -0.15998484 0.918414 
0.02457959 0.33639783 0.9413992 
-0.22202764 -0.64397746 0.732118 
0.13552834 -0.42798477 0.89356655 
0.11430058 -0.42838272 0.8963391 
0.15060957 -0.89458275 0.42075932 
0.07728441 -0.6083608 0.7898887 
0.015170773 0.02961562 0.9994462 
-0.53424585 -0.13830198 0.8339388 
-0.9211249 -0.3230993 0.21710825 
-0.9035677 -0.1267542 -0.40926617 
-0.92618924 0.020045608 -0.37652588 
-0.8952909 0.2436961 0.37291625 
-0.81402206 -0.19554225 -0.54692906 
-0.28850237 -0.44869465 -0.8458365 
-0.20012613 0.01811897 -0.9796026 
0.85738635 -0.25669268 -0.44609135 
-0.4396412 -0.8808314 -0.17564699 
-0.32242092 -0.742359 -0.5873227 
-0.5505259 -0.7379588 -0.39030516 
0.30461445 -0.81357247 0.49528787 
-0.23009902 -0.63200825 0.74001354 
-0.9398479 -0.20042579 0.27661428 
-0.7067271 -0.7074603 -0.0060758656 
-0.37044376 -0.9032055 -0.21677479 
0.31683296 -0.76932955 -0.5547513 
-0.1337609 -0.93948644 -0.31539375 
-0.15157983 -0.37288693 -0.9154119 
0.37103426 -0.6676963 -0.64538 
0.36083555 -0.8802112 -0.30826288 
0.45097572 -0.2666147 -0.851785 
0.69897723 0.45282122 -0.55351955 
-0.043138314 0.8246653 -0.5639736 
-0.22568329 0.18000214 -0.9574269 
-0.0014586146 0.65128505 -0.7588318 
0.5659535 -0.40927675 -0.71567404 
0.68396336 0.21677914 -0.6965637 
0.23887436 0.4051808 -0.8824782 
-0.065222204 0.46557438 -0.88260216 
0.114064984 0.80338514 -0.58443266 
0.7079976 0.07870185 -0.7018158 
-0.6568817 -0.47730464 -0.58368385 
-0.49064147 0.37264988 -0.78765666 
-0.65827626 0.5123425 -0.5515229 
-0.9585823 -0.2508969 -0.13479978 
-0.4532603 -0.59073794 -0.66752064 
0.23000982 -0.73820287 -0.6341547 
-0.09633626 -0.62597245 -0.77387196 
0.64420915 -0.108515136 -0.7571124 
0.61687016 -0.654557 -0.43706563 
0.68994254 -0.45390174 -0.5638728 
0.07812152 -0.20724201 -0.97516555 
0.41252562 -0.6920736 -0.59233165 
0.7953559 -0.11367375 -0.5953883 
0.09190703 -0.19874974 -0.97573143 
0.1981736 -0.32698303 -0.924018 
0.9309778 -0.35574213 -0.08202385 
0.36626023 -0.8909171 -0.26855218 
-0.19714417 -0.21295168 -0.956967 
0.072142735 -0.7367383 -0.67231846 
-0.85268134 -0.31948155 -0.41335952 
-0.650582 -0.118904024 -0.75007004 
-0.26169875 -0.07070844 -0.96255606 
-0.082850836 -0.83605736 -0.54235035 
0.3738159 -0.56897944 -0.73247814 
0.30628085 -0.23695774 -0.9219778 
0.42325902 0.18471466 -0.88697934 
0.8888976 -0.15634868 0.43059984 
0.74839455 -0.6277017 0.21423428 
0.18266852 -0.4629278 0.86736965 
-0.016396346 -0.7247645 0.6888016 
-0.5092062 -0.6968316 0.5051089 
0.2162566 -0.66707957 -0.7129081 
-0.59884655 -0.6769774 -0.42788377 
-0.6745416 -0.6032755 0.42550248 
-0.71353567 -0.70056254 -0.008891783 
0.13149874 -0.42371756 -0.89619845 
0.57482284 -0.24211456 -0.78163886 
0.87661296 -0.10343054 -0.4699488 
0.6768588 -0.55593425 -0.48249283 
0.41756007 -0.7248171 -0.5479816 
0.20832686 -0.28689083 -0.9350367 
0.32431653 -0.17071481 -0.93041676 
0.50405097 -0.36298904 -0.783691 
0.73432773 -0.2521061 -0.6302423 
-0.076853104 -0.5031327 -0.8607852 
-0.07898398 -0.9935028 0.08193873 
-0.7113372 -0.67761874 -0.1866341 
0.21950781 -0.7976118 -0.5618112 
0.7284269 -0.24725963 -0.63895 
0.77438027 -0.049998105 -0.630742 
0.77884907 -0.2805684 -0.56095946 
0.7331412 0.29293954 -0.61375123 
0.0051795025 -0.9107918 -0.4128337 
-0.2776614 -0.83032554 -0.48318097 
0.1056486 -0.7930237 -0.59995985 
0.19849376 -0.43826273 -0.87665623 
-0.049880162 -0.928176 -0.36878374 
-0.21793216 -0.8081656 -0.5471509 
0.28785142 -0.7264457 -0.6240339 
0.5638819 -0.70805186 -0.42508805 
0.3436419 -0.83314484 -0.4333358 
0.5283482 -0.8488792 -0.01587938 
-0.04133964 -0.9740304 0.22261125 
-0.4557366 -0.7644421 0.4559963 
-0.29918453 -0.8912405 0.34085053 
-0.3416136 -0.9328649 -0.11429443 
-0.33854967 -0.89754957 -0.28246918 
0.25154004 -0.89671683 -0.36417922 
0.48854536 -0.7567459 -0.43434918 
-0.3096647 -0.8631531 -0.39884132 
-0.33063987 -0.63525665 -0.6979444 
-0.1346089 -0.91004926 0.39203432 
-0.44948864 -0.89009947 -0.075385645 
-0.21301515 -0.9690477 0.12478447 
-0.4426874 -0.81965184 -0.36359152 
0.36039448 -0.14808677 -0.9209702 
0.92243916 -0.13698404 -0.36102822 
0.04699924 -0.91350776 -0.40409732 
-0.10378341 -0.9944319 -0.018283544 
0.45037454 -0.6482825 0.61391574 
-0.08328885 -0.8698133 0.4863003 
0.07068434 -0.9283156 -0.3650122 
-0.21225572 -0.9772037 -0.0045287656 
-0.8482644 -0.52601475 0.06128808 
-0.5527496 -0.83334744 -8.112927e-06 
-0.41063282 -0.6398423 -0.6496019 
-0.24243318 -0.94649047 -0.21303044 
-0.08472156 -0.80204433 0.59122515 
-0.6011196 -0.22494559 -0.7668474 
0.5008412 -0.84047955 -0.20676626 
0.39978313 -0.74553776 -0.5332419 
0.5407017 -0.8380955 0.072371565 
-0.113879755 -0.9416422 -0.31676698 
-0.2069799 -0.7951172 -0.57004195 
0.13947079 -0.989827 -0.028117929 
-0.18606332 -0.9454421 -0.26743177 
0.26160696 -0.84565014 -0.46522886 
0.12543422 -0.9628719 0.23904827 
-0.1879422 -0.50052017 0.8450783 
-0.28079262 -0.538597 0.7943985 
0.14011835 -0.88769335 0.43859705 
-0.43453208 -0.79837614 0.4168664 
-0.6332195 -0.14491493 -0.7602847 
-0.21817823 -0.54151624 -0.81188565 
0.044882543 -0.21495157 -0.9755929 
0.31298852 -0.2773071 -0.9083716 
-0.021577485 -0.69228405 -0.7213025 
-0.19176127 -0.49480054 -0.8475849 
-0.15300937 -0.68600696 -0.71132463 
0.22459322 -0.66807795 -0.70938694 
-0.045618165 -0.40229025 -0.91437495 
0.5749456 -0.2302067 -0.78513855 
0.29829386 -0.42497236 -0.8546457 
0.38018817 -0.7030269 -0.60100776 
0.63069886 -0.7240913 -0.279125 
0.39289564 -0.8454136 -0.36181316 
0.27260724 -0.54151386 -0.795266 
0.55537826 -0.68217844 -0.47559193 
0.6434864 -0.71131563 -0.28276375 
-0.28617877 -0.95668787 -0.053385064 
-0.64431024 -0.18869448 0.7411199 
-0.30598357 -0.6589668 0.6871222 
-0.021059837 -0.39473757 0.91855264 
0.096577585 -0.3881254 0.91653234 
-0.663512 -0.39116913 0.6377606 
-0.30831423 -0.94414383 -0.11633968 
-0.55082834 -0.6762351 0.48917723 
-0.82315487 -0.54112726 -0.17203881 
-0.39949998 -0.7246956 -0.561441 
0.12310043 -0.75829995 -0.6401777 
-0.2552965 -0.6225787 -0.73974293 
-0.9426017 0.19925785 -0.26795244 
-0.94593406 0.0068170023 -0.32428738 
-0.9384836 -0.2374089 -0.25076988 
-0.9047332 -0.3852654 -0.18173762 
-0.31885433 -0.7494319 -0.58024466 
-0.75004834 -0.6603237 0.03741856 
-0.27933362 -0.9215172 -0.26977563 
-0.6492508 -0.74008626 -0.17534496 
-0.4211657 -0.7886794 -0.4478888 
0.45549464 -0.87429357 -0.16773635 
-0.081526324 -0.629094 -0.7730422 
-0.02132378 -0.31840673 -0.9477144 
0.5353845 0.22645655 -0.81368357 
-0.2421927 0.20603488 -0.9480994 
0.49693838 -0.5146704 -0.69868934 
0.34436604 -0.90877116 -0.23568413 
0.28800374 -0.5904242 -0.7539584 
0.275678 -0.31348616 -0.9086959 
0.56998724 -0.47301203 -0.6718439 
0.83045137 0.06205482 -0.55362433 
0.1029095 -0.5211764 -0.8472218 
-0.28380132 0.26884317 -0.920424 
0.108538486 -0.7906703 -0.60254455 
-0.023285892 -0.8970905 -0.44123298 
0.22668399 -0.9395697 -0.25656015 
0.27345592 -0.9365277 -0.219403 
0.59832567 -0.63869923 -0.4838076 
-0.34544504 -0.59428775 -0.7262849 
0.16694815 -0.068582125 -0.98357755 
0.4899437 -0.3707781 -0.7889733 
0.68962747 -0.66774905 0.28022343 
0.5520018 -0.8258661 -0.11506238 
0.32183886 -0.8943618 0.31070384 
0.56592447 -0.82309973 0.047290746 
0.15112413 -0.98246294 -0.109215446 
0.2001133 -0.8414393 -0.5019309 
0.22473364 -0.8532004 -0.47068465 
0.6675531 -0.6179231 -0.41538417 
0.32005697 -0.5683366 -0.75799537 
-0.1799933 -0.80168575 -0.57000226 
-0.86327314 -0.11395278 -0.4917054 
-0.50422233 -0.52784497 -0.68347615 
-0.14035416 -0.71292573 -0.68705 
-0.38934898 -0.45736524 -0.7995151 
-0.48659837 -0.85917187 -0.15825814 
0.124192856 -0.9639535 -0.23530787 
0.43270904 -0.14697798 -0.88947207 
0.35392487 -0.6453711 -0.6769294 
-0.030622134 -0.4753067 -0.8792872 
0.13877723 -0.012218517 -0.9902483 
-0.21979342 -0.49175286 -0.8425378 
-0.028096067 -0.9725967 0.23079523 
-0.11738504 -0.82996714 0.54532146 
0.22062911 -0.6475657 0.7293706 
-0.031141814 -0.6200868 0.783915 
-0.123609096 -0.74847555 0.65154064 
-0.1344897 -0.87713015 0.46103722 
-0.50839806 -0.69470733 0.5088351 
-0.27223244 -0.9581271 0.08878054 
-0.21637438 -0.97446316 -0.060031425 
-0.17751364 -0.5920636 -0.7860977 
-0.24565159 -0.53799546 -0.8063598 
-0.47261307 -0.15274699 -0.8679316 
-0.41057125 0.24633864 -0.87792283 
-0.41472355 -0.10904474 -0.90339005 
-0.0920477 -0.26709348 -0.9592645 
0.0063218838 -0.20785765 -0.9781387 
0.030830523 -0.7484709 -0.6624507 
-0.9370115 -0.11195636 0.33087048 
-0.9724157 -0.17301832 0.15643668 
-0.3285666 -0.60730064 -0.72334635 
-0.30939806 -0.29035708 -0.9055195 
-0.34138128 -0.34414694 -0.8746552 
0.04003474 -0.43472713 -0.899672 
-0.15896223 -0.6280712 -0.76174647 
0.21168919 -0.7175904 -0.6635148 
0.2648218 -0.54649365 -0.79448986 
0.82426864 -0.29029247 -0.4861188 
0.39094839 -0.8560318 0.33818492 
0.25830027 -0.90713775 0.33223814 
0.33205613 -0.878049 -0.34462836 
0.69528884 -0.7055003 0.13726921 
0.65719885 -0.7384102 0.15112957 
0.41838554 -0.8051442 0.42035264 
0.086668424 -0.67038786 0.736932 
0.7685625 -0.5103298 0.3858438 
0.7133766 -0.6991367 -0.047977004 
0.22403279 -0.9744864 0.01362176 
0.103531644 -0.9873578 0.120023854 
-0.4220643 -0.7983996 0.4294414 
-0.7381226 -0.43874672 0.51251966 
-0.49117684 -0.815362 0.30648038 
-0.9703127 -0.09127961 0.223967 
-0.988041 -0.12433294 -0.091193914 
-0.86512965 -0.4981357 0.058408625 
-0.6851816 -0.723007 -0.08824418 
-0.98828804 0.0495619 0.14432766 
-0.9651325 0.10710591 -0.23884672 
-0.6994635 0.27786213 -0.6584402 
0.5561107 -0.49021623 -0.6711401 
0.9244951 -0.37880692 -0.04259315 
0.58215046 -0.75803465 -0.29408216 
-0.4076618 -0.64280176 -0.6485506 
-0.118396185 -0.80578166 -0.5802572 
-0.59209436 -0.71392596 -0.37381008 
0.038644332 -0.97205794 0.23153827 
-0.9751134 -0.12406822 -0.18374155 
-0.46621132 -0.88105696 -0.07991023 
0.08587487 -0.99601036 -0.024268584 
0.5847902 -0.776767 -0.23378089 
-0.023464624 -0.9913514 -0.1291199 
0.010378688 -0.9489231 -0.31533697 
0.17696673 -0.4071561 -0.89605063 
0.44838056 -0.6325765 -0.6315076 
0.8025916 -0.3459669 -0.48595628 
0.87298554 0.32149282 -0.36679527 
-0.22497234 0.6282638 -0.7447632 
0.16660988 0.52309936 -0.8358279 
0.8998116 0.31716156 -0.29957917 
0.5517366 0.46526015 -0.6921848 
0.33255026 0.2597983 -0.90659547 
-0.38563934 0.82635933 -0.4103813 
-0.7349561 0.30686024 -0.6047119 
-0.6383715 0.1904595 -0.7457929 
0.035961676 -0.14683263 -0.9885075 
-0.40866312 -0.16840194 -0.8970146 
-0.71469915 -0.51632607 -0.4718185 
-0.89624745 -0.096148 -0.43300828 
-0.8523669 -0.40899068 -0.3258792 
-0.2392192 -0.7894127 -0.5653333 
-0.30447894 -0.07866989 -0.9492648 
-0.15116365 -0.33795944 -0.9289419 
0.57369685 -0.28981313 -0.76608115 
0.6174914 -0.6255912 -0.47680196 
0.82021517 -0.52357125 -0.2304783 
0.52832294 -0.47785094 -0.7018072 
0.90590256 -0.10608471 -0.40998355 
0.7042604 -0.6991674 -0.123216204 
0.9946148 -0.076951824 -0.06942564 
0.3157205 0.011708215 -0.94878 
0.47193012 -0.3250853 -0.819513 
0.5723816 -0.55861974 -0.60026944 
0.24198793 0.050305735 -0.9689743 
0.12967981 -0.74505705 -0.65427303 
0.28567237 -0.63293934 -0.7195687 
-0.51796085 -0.5792761 -0.6294092 
-0.2045387 -0.18161559 -0.9618626 
0.07075721 -0.7013729 -0.70927393 
0.21827938 -0.6074122 -0.7638093 
-0.19905044 -0.4468591 -0.8721788 
-0.2112846 -0.6070913 -0.76602805 
0.12835059 -0.9686138 -0.21286975 
-0.17327918 -0.9816541 -0.07955822 
-0.31383866 -0.40946543 0.8566466 
0.19751555 -0.9334785 0.29934224 
-0.51439166 -0.84704906 -0.13382524 
-0.3251189 -0.85228145 -0.40977317 
0.10568343 -0.9838178 -0.14468469 
-0.333186 -0.9202861 0.2050872 
-0.029276028 -0.9465829 -0.3211289 
-0.39145625 -0.71737534 -0.57631123 
-0.8127404 0.15309833 -0.5621512 
0.17616884 -0.8461702 -0.50295186 
-0.04591002 -0.6042143 -0.79549825 
0.20662709 0.24873821 -0.94627404 
0.1318699 -0.14473243 -0.9806441 
0.28875232 0.010129908 -0.9573503 
0.14740281 0.21728575 -0.96491414 
-0.049430743 -0.17941177 -0.9825315 
0.42302895 -0.7720239 -0.4743687 
0.4676488 -0.75566274 -0.4585615 
-0.006564597 -0.54850125 -0.83612406 
0.6165214 -0.25533548 -0.7447853 
0.78771216 -0.31744754 -0.52795523 
0.6667249 -0.6387491 -0.384028 
0.7223485 -0.68309385 -0.10768207 
0.5529964 -0.83163315 0.05080789 
0.20031771 -0.66585416 -0.71868706 
-0.40633455 -0.9121911 0.052912656 
-0.18408251 -0.13347137 -0.9738065 
0.29279375 -0.6473786 -0.7036852 
-0.22840655 -0.7642926 -0.603065 
0.17917818 -0.7711223 -0.61095464 
0.3484113 -0.6377373 -0.6869504 
0.35061014 -0.13349079 -0.926959 
0.13243414 -0.90691096 -0.39996737 
-0.08130142 -0.9964019 0.023948263 
-0.022832036 -0.86558414 0.50024295 
-0.08483217 -0.9314793 0.35376546 
-0.6642157 -0.7048045 -0.24913487 
-0.10026451 -0.9788342 0.17841148 
-0.5926117 -0.7959955 -0.12329894 
-0.242623 -0.72448236 -0.6451817 
-0.18612371 -0.8625848 -0.47043115 
-0.4447703 -0.31712827 -0.8376211 
-0.4105243 -0.5828648 -0.7012406 
0.068945356 -0.9561228 -0.28473794 
-0.11844789 -0.5666907 -0.81537217 
-0.23258632 -0.89148825 -0.3887831 
0.10330746 -0.90363175 -0.41566494 
0.28387332 -0.76869726 -0.57316715 
0.03736315 -0.6447585 -0.7634727 
0.072325744 -0.9253696 -0.3721024 
0.46703213 -0.87984467 0.088058844 
0.3111742 -0.8590317 -0.40649137 
0.04726621 -0.9895472 0.1362436 
-0.5712668 -0.7511392 -0.3308236 
-0.2104625 -0.6564556 -0.72441125 
-0.08755754 -0.9905471 -0.105593815 
-0.24428318 -0.9113923 -0.33119473 
0.22568953 -0.89385986 -0.38740006 
-0.67653316 -0.66950494 -0.30670193 
-0.39289212 -0.7643858 -0.5112242 
-0.3299757 -0.5596748 -0.7601843 
0.37045786 -0.30573943 -0.8770886 
0.18757923 -0.09387438 -0.97775334 
0.70247436 -0.4537501 -0.5483072 
0.29449686 -0.7022641 -0.6481487 
0.010472154 -0.77686656 -0.62957835 
0.56628704 -0.53085184 -0.63048816 
0.6134116 -0.7872336 0.06316335 
0.4920666 -0.8343767 -0.24836668 
0.37293985 -0.92476946 -0.07561308 
-0.19863772 -0.9716249 0.12840597 
0.09386257 -0.93639266 -0.33816952 
0.07536702 -0.80482286 -0.58871055 
-0.1645212 -0.69100213 -0.70388126 
-0.1647735 -0.8440825 -0.5102692 
-0.7583128 -0.2989834 -0.5792846 
-0.08149963 0.08986692 -0.9926137 
0.7832525 0.041570622 -0.62031233 
0.09211563 -0.4996781 -0.86129934 
0.33370957 -0.42350066 -0.8421907 
0.6811728 -0.22862202 -0.69551104 
0.6216992 -0.56548077 -0.541961 
-0.04882684 -0.5722319 -0.81863713 
-0.031242518 -0.45131397 -0.8918182 
-0.11987844 -0.28494665 -0.9510177 
0.22909205 -0.84589636 -0.481639 
0.049445488 -0.9417912 0.33254275 
0.78014946 -0.46146592 -0.42239326 
0.61276543 -0.66840345 -0.4216105 
0.27065054 -0.6403991 -0.71877486 
0.38159183 -0.91591626 0.12443979 
0.20351699 -0.81546944 0.54183996 
-0.12101201 -0.808727 0.5756013 
-0.3139863 -0.59292245 0.7415225 
0.04084434 -0.88635314 0.4612047 
-0.32943207 -0.4629101 0.82291484 
-0.30535346 -0.5067791 0.806185 
0.043697204 -0.84259915 -0.5367656 
-0.30276138 -0.86065924 -0.4093914 
-0.48188198 -0.794882 -0.36871716 
-0.17423771 -0.53646773 -0.82573825 
0.057508517 -0.63851917 -0.7674544 
-0.19369017 0.060863327 -0.97917306 
-0.74735045 -0.2154123 -0.6285419 
-0.32619667 0.084936164 -0.9414784 
-0.49774182 -0.5351892 -0.68251413 
-0.65172786 -0.5536532 -0.51838124 
-0.5835666 -0.79351324 -0.1725881 
0.027536778 -0.87262666 -0.48761103 
0.07878854 -0.9801643 -0.18185258 
-0.11810441 -0.9924185 -0.03401255 
0.32377097 -0.37086895 -0.87041867 
0.38671273 -0.83906937 -0.38264334 
-0.17300668 -0.8016205 -0.5722529 
-0.106147215 -0.46226108 -0.8803679 
0.49997887 -0.034975506 -0.8653312 
0.5610738 0.3099728 -0.7675372 
0.41926724 -0.38369352 -0.82279664 
-0.6383998 0.23526073 -0.73286986 
0.53756404 0.30775917 -0.7850536 
0.59685606 -0.4320994 -0.67605704 
0.31444845 -0.057533566 -0.9475295 
0.22144349 -0.0166083 -0.9750318 
0.24499431 -0.13836753 -0.9596001 
-0.7620302 -0.3188326 -0.56360966 
-0.40844247 -0.0037877692 -0.9127762 
0.6576696 -0.6997401 -0.2789883 
0.61296266 -0.78978467 -0.02274023 
0.60275227 -0.68376416 -0.4112863 
0.20486027 -0.95796853 -0.20081966 
-0.25766963 -0.1747207 -0.95030475 
0.3967524 0.093289085 -0.9131729 
0.5817058 -0.5485199 -0.60062 
0.460269 -0.8458972 0.269463 
0.37980595 -0.825512 -0.4174656 
0.65672415 -0.3246787 -0.68065935 
0.87589717 0.25560468 -0.40923178 
0.8397103 -0.5426896 -0.019354742 
0.7785453 -0.52200556 -0.34839255 
0.5429872 -0.5300598 -0.6513075 
0.27521473 -0.67267686 -0.6868499 
0.49981865 -0.56982505 -0.6522889 
-0.037912615 -0.6121892 -0.7898019 
-0.6884678 -0.43466637 -0.5805836 
-0.09199942 0.42261505 -0.90162784 
-0.08311099 0.4550331 -0.88658756 
-0.11120816 -0.59949917 -0.79261196 
0.24838054 -0.85415447 -0.45686695 
0.28982598 -0.6061145 -0.7406931 
-0.19690849 0.22469893 -0.9543257 
0.32929432 -0.15385894 -0.93160766 
0.014099921 -0.11119896 -0.9936982 
-0.15625077 0.08039423 -0.9844402 
-0.33262944 -0.63716745 -0.695252 
-0.37331396 -0.9212285 0.10942935 
0.08640922 -0.79723823 0.5974484 
0.31285048 -0.7003214 0.6416188 
0.09414367 -0.99523836 0.025252841 
0.21243456 -0.931048 -0.29668382 
-0.13863234 -0.91453063 0.38001946 
0.44223338 -0.8854224 -0.14302747 
-0.6039595 -0.7597728 -0.24078694 
-0.2923168 -0.5250064 -0.7993242 
-0.093782276 -0.6389222 -0.7635335 
-0.24726535 -0.53393453 -0.8085629 
-0.6935937 -0.41363767 -0.58977264 
-0.6377128 -0.009551258 -0.77021503 
-0.4616364 -0.08120841 -0.88334423 
-0.4401049 -0.4315442 -0.7874499 
-0.18528005 -0.25583282 -0.9487997 
0.02865353 -0.92147577 -0.3873777 
-0.4223724 -0.45720264 -0.7826668 
-0.65534395 -0.5394404 -0.5287044 
-0.5285398 -0.49298885 -0.6910917 
-0.5288921 -0.12462835 -0.8394885 
-0.033399485 0.24728516 -0.96836704 
0.35902885 -0.6796706 -0.6396454 
0.7499573 -0.6380381 0.17456064 
0.4803113 -0.87618816 -0.039944682 
0.3727135 -0.89445484 -0.24705291 
0.4368757 -0.42818803 -0.79107183 
0.64755577 -0.76195765 0.009600123 
0.20204115 -0.72085416 0.6629847 
0.68737704 -0.606749 -0.39920983 
0.577647 -0.8135157 -0.06720221 
0.5452653 -0.8142202 -0.19932719 
0.52093506 -0.8515465 0.059120577 
-0.12630714 -0.9763377 0.17553174 
0.4218394 -0.7404154 -0.523294 
0.32194817 -0.86472857 0.3854789 
-0.19631252 -0.9657028 0.16993988 
-0.08520363 -0.91179776 0.40170297 
0.3321825 -0.9105634 -0.24602695 
-0.20147191 -0.9777429 0.058549363 
-0.61423135 -0.7835846 -0.09335403 
-0.9197139 -0.35815412 0.16078593 
-0.79642 -0.55505073 0.24007073 
-0.918934 -0.35212594 -0.17767318 
-0.69651604 -0.5703029 -0.43545395 
-0.752024 -0.65568906 -0.06731809 
-0.735918 -0.52872586 -0.4229348 
-0.4168352 -0.28919408 -0.8617514 
-0.14360814 -0.10393291 -0.9841619 
-0.12832324 -0.9237827 -0.36077535 
-0.25471517 -0.753641 -0.6059254 
-0.5964391 -0.3406579 -0.7267824 
-0.6275074 -0.5785885 -0.5210278 
0.071129926 -0.9265211 -0.36945787 
-0.1735148 -0.98475116 0.012561711 
-0.19074687 -0.98100436 -0.035301547 
0.108287066 -0.86324567 -0.4930325 
0.07316735 -0.8105201 -0.5811229 
-0.41283137 -0.5220082 -0.7463764 
0.12382371 -0.91540754 -0.38301003 
0.045511484 -0.8457039 -0.5317083 
-0.27159506 -0.33568704 -0.9019703 
0.19936197 -0.18909085 -0.961509 
0.43588743 -0.12854263 -0.8907744 
0.9790614 -0.19489208 -0.058786146 
0.081614636 0.8372528 -0.5406912 
0.27061632 0.86556226 -0.4213893 
0.85234815 0.5228236 -0.012580209 
0.21376862 0.24944374 -0.94450027 
0.39726448 0.35028684 -0.8482217 
-0.030707685 0.9583636 -0.2838951 
-0.7804346 0.4481927 -0.43594182 
-0.32414398 0.40064123 -0.8569816 
0.62893456 -0.03523755 -0.77665937 
0.19555552 -0.9274155 -0.31883937 
-0.6880665 -0.3158782 -0.65328825 
0.17460723 -0.69880474 -0.6936745 
-0.43430486 -0.30241314 -0.8484843 
-0.22566096 -0.26735845 -0.9368013 
-0.0040272665 -0.46542686 -0.8850772 
-0.20195898 -0.7028227 -0.6820945 
0.5384464 -0.6016428 -0.5900013 
0.31728217 0.09388466 -0.94367254 
0.82313573 -0.26578242 -0.5018042 
0.4555412 -0.6598685 -0.5975416 
0.6795714 -0.10007522 -0.72675145 
0.6556013 -0.74341106 0.13238975 
0.35264024 -0.0035863179 -0.9357521 
0.23389094 0.27837893 -0.93155795 
0.8301465 -0.02147837 -0.55713147 
0.7388694 0.50157773 -0.44999084 
0.15165529 0.0002729765 -0.9884335 
-0.06602725 -0.1447829 -0.9872581 
-0.11289792 0.21032128 -0.97109175 
-0.2255576 -0.03737032 -0.9735128 
-0.15130551 -0.57940525 -0.80087215 
-0.67343915 -0.21396258 -0.7076014 
-0.42398518 -0.124627866 -0.8970532 
-0.12073494 -0.19854079 -0.97262776 
-0.2430033 -0.81559086 -0.52512956 
-0.23680934 -0.62598455 -0.74301064 
0.35371414 -0.5788923 -0.7346905 
0.2384155 -0.95524114 -0.17513552 
0.15253347 -0.9649905 -0.21337043 
-0.1909508 -0.9674204 -0.16623966 
-0.25502223 -0.6561382 -0.7102439 
-0.007271828 -0.8498778 -0.52692974 
-0.28687114 -0.59887636 -0.74769783 
-0.63788086 0.53247637 -0.5563964 
-0.5850654 -0.57705534 -0.5698295 
-0.1138563 -0.212642 -0.9704742 
0.36312398 0.3201903 -0.87499666 
0.16059455 0.21552946 -0.96320117 
-0.018808378 -0.22482924 -0.97421664 
-0.6090333 0.18026726 -0.7723874 
0.104950614 0.09138572 -0.99026966 
0.0646904 -0.27235186 -0.9600207 
0.26503268 -0.5666177 -0.7801937 
0.6471341 -0.6742763 -0.3557655 
0.4782812 -0.526324 -0.7030151 
0.75984365 -0.41979313 -0.49639842 
0.5882658 -0.3934963 -0.70647293 
0.67981875 -0.116571374 -0.72405636 
0.22569719 -0.8154681 -0.53298473 
-0.48573446 -0.21357515 -0.847613 
0.19128056 -0.9057092 -0.37828925 
-0.3824739 -0.52692324 -0.75899005 
-0.6428356 -0.5709592 -0.5106545 
0.2942375 -0.35258746 -0.8883167 
0.14675915 -0.88229334 -0.44723618 
0.3013647 -0.6522002 -0.6955676 
0.16146204 -0.763747 -0.6249964 
0.873846 -0.35776937 -0.32923284 
0.40984923 -0.57635385 -0.7069935 
0.28538364 -0.72922796 -0.6219187 
0.2789466 -0.833575 -0.47680348 
0.41775766 -0.89384085 -0.16287157 
0.23263186 -0.9710534 -0.054201048 
-0.19230923 -0.9812461 0.013161564 
-0.11869673 -0.9922801 0.035935767 
-0.24048418 -0.95070386 -0.19577937 
0.0067722173 -0.92895585 -0.37012866 
0.15625693 -0.8934118 -0.4211877 
-0.011402532 -0.63892287 -0.7691864 
0.028386308 -0.9492042 -0.31337774 
-0.52349097 -0.7051077 -0.47830987 
-0.45485014 -0.6037088 -0.6547114 
-0.017654795 -0.9859852 -0.16589601 
-0.7236166 -0.33888695 -0.60127753 
-0.1594918 -0.4328156 -0.88726157 
-0.016902542 -0.5131333 -0.85814255 
-0.48714164 -0.8658277 0.114173345 
0.1454733 -0.9270884 -0.34546298 
0.39644855 -0.7564532 -0.52019924 
0.02052553 -0.9997706 -0.006124103 
-0.59502226 -0.7820217 -0.1854471 
-0.06133622 -0.23222564 -0.97072613 
0.32126963 -0.6544883 -0.68442017 
0.06094003 -0.9965083 -0.057074472 
0.07060602 -0.97396463 -0.21542437 
-0.2715914 -0.92804176 -0.25490525 
0.19241516 -0.6837515 -0.7038894 
0.07492626 -0.6253414 -0.776746 
0.73027927 -0.3998932 -0.5538752 
0.89595586 0.44394842 -0.01315491 
0.57737714 -0.3834446 -0.72083694 
0.49873888 -0.12732995 -0.85734856 
0.37050828 -0.25797135 -0.8922861 
0.90845865 -0.3384411 -0.24527684 
0.9114392 -0.36469567 -0.1904617 
0.6693581 -0.7365735 0.09705272 
0.71420324 -0.6751223 -0.1847258 
-0.8901654 -0.15785111 0.42742088 
-0.055396512 -0.99134296 -0.11904024 
-0.016703345 -0.82292104 -0.56791013 
-0.19348626 -0.71003705 -0.6770601 
-0.7327872 -0.33251137 -0.5936828 
-0.91874087 -0.18080792 -0.35103253 