# OOMMF: rectangular mesh v1.0
# Segment count: 1
# Begin: Segment
# Begin: Header
# Desc: Time (s) :  6.070000000000011e-07
# Title: m
# meshtype: rectangular
# meshunit: m
# xbase: 2e-09
# ybase: 2e-09
# zbase: 5e-10
# xstepsize: 4e-09
# ystepsize: 4e-09
# zstepsize: 1e-09
# xmin: 0
# ymin: 0
# zmin: 0
# xmax: 1.024e-06
# ymax: 1.024e-06
# zmax: 1e-09
# xnodes: 256
# ynodes: 256
# znodes: 1
# ValueRangeMinMag: 1e-08
# ValueRangeMaxMag: 1
# valueunit: 
# valuemultiplier: 1
# End: Header
# Begin: Data Text
-0.73623836 0.109288104 -0.6678393 
-0.9190879 -0.31046587 0.24266957 
-0.7016831 -0.7049896 0.103104606 
-0.8181438 -0.12591422 -0.5610584 
-0.8639457 0.4766648 -0.16244562 
0.052639488 -0.7056916 -0.7065611 
0.54055566 -0.775116 -0.32710075 
0.49534306 -0.64593816 -0.58086085 
0.66799295 -0.0014913344 -0.74416614 
-0.19668563 -0.3862943 -0.90116113 
-0.57310325 -0.71524674 -0.39996842 
-0.34297696 -0.56035024 -0.75390613 
-0.36542284 -0.88357264 -0.2928576 
0.113283806 -0.98807013 0.1043277 
0.58096814 -0.70877177 -0.40014824 
-0.044997707 -0.8909038 -0.4519578 
0.33879402 -0.8032433 -0.4899172 
0.25960383 -0.67621076 -0.6894526 
-0.2551386 -0.9611954 -0.104918234 
-0.74124116 -0.50606656 -0.44097432 
-0.9059653 0.19217135 0.3772227 
-0.8695617 0.4936118 0.014489608 
-0.068847716 -0.66475916 -0.7438786 
-0.4017317 -0.6882248 -0.60411775 
0.40822527 -0.91285783 0.0065469313 
0.059777424 -0.7400196 0.66992366 
-0.20614521 -0.3529411 0.91265374 
-0.5478651 -0.18374826 0.8161375 
-0.70406944 -0.44148552 0.55621654 
-0.6219805 -0.6806376 -0.38713405 
-0.9766397 0.13309287 -0.16870469 
-0.8448417 -0.14489926 0.5150212 
-0.9335905 -0.35518304 -0.047474217 
-0.671968 -0.74024695 -0.022216605 
-0.2239996 -0.6996706 -0.6784433 
0.15401231 0.009214771 -0.988026 
-0.30930647 0.19127564 -0.9315274 
-0.55977106 -0.3355155 -0.7576845 
-0.3496791 0.59265447 -0.7255931 
-0.8789827 0.37271786 0.2974407 
-0.7321825 -0.40542746 0.5473001 
-0.85212743 -0.21921153 0.4752107 
-0.78363603 -0.6109332 -0.112584665 
-0.4710101 -0.7589176 -0.4496595 
-0.8527834 -0.4703249 -0.22705759 
-0.5783829 -0.5139539 -0.6335019 
-0.64093834 0.3286418 -0.6936805 
-0.12344656 -0.15201329 -0.98063904 
-0.4351322 -0.85036826 -0.29586112 
-0.019792132 -0.93991435 -0.34083626 
0.6047075 -0.34607828 0.71732754 
-0.075784154 -0.4691138 0.87988013 
-0.34739104 -0.8934169 0.28482586 
-0.04056745 -0.38258898 0.92302763 
-0.96359736 -0.2284549 0.13888307 
-0.929206 0.3123789 -0.19747314 
-0.6330314 0.5994984 -0.4897683 
-0.95385844 0.07145274 -0.291631 
-0.9391027 0.3111822 0.14578001 
-0.8823554 -0.06392426 -0.46622178 
0.085674725 -0.6007956 -0.7947984 
0.19264954 -0.31658682 -0.9287944 
-0.07512789 -0.52292764 -0.84905976 
0.37032604 0.5325847 -0.76105994 
0.12220967 0.30381885 -0.9448592 
0.30863643 -0.50339764 -0.80705285 
0.4073539 -0.71158713 -0.57245666 
-0.259803 -0.31076178 -0.91429186 
-0.46911463 0.06609875 -0.88066024 
-0.5118615 -0.5594094 -0.65196556 
-0.41788957 -0.045065004 -0.90737957 
0.21499689 -0.9573103 -0.19321842 
-0.1968333 -0.5546479 -0.80846924 
-0.6143137 -0.10983841 -0.78137976 
-0.6610573 -0.3548038 -0.6611487 
-0.14916573 -0.09756934 -0.9839868 
0.623604 -0.39517653 -0.6745025 
0.3240934 -0.864242 -0.38477165 
-0.009887247 -0.69677716 0.71721953 
-0.62241834 -0.7773499 -0.09122928 
-0.07559276 -0.9477314 0.30998564 
0.25568396 -0.96556455 0.048071943 
-0.11325608 -0.992823 0.03841283 
0.66934514 -0.71844184 0.18925785 
-0.017706083 -0.7496324 -0.6616176 
0.4151596 -0.025513763 -0.90939075 
0.29323357 -0.024493357 -0.95572704 
0.13929296 0.77431387 -0.61728096 
0.123357564 -0.30763534 -0.9434742 
0.16498956 0.2640549 -0.95029134 
0.2923772 0.64540756 -0.7056662 
-0.61739033 -0.24826553 -0.74645394 
0.08144009 -0.6468898 -0.75822234 
0.72799855 -0.5462616 -0.41426608 
0.54062617 -0.72961473 0.41879082 
0.3240595 0.04046858 0.9451708 
0.37007365 -0.72964394 0.575035 
0.3302139 -0.6540606 0.68056124 
0.19476062 -0.6223426 0.758128 
0.8013509 -0.035583425 0.5971354 
0.7016911 -0.04887976 0.7108026 
0.35637748 -0.92790437 -0.1094927 
0.936419 -0.3470124 0.051978853 
-0.17319222 -0.6921746 0.7006417 
-0.79998946 -0.45919183 -0.38621196 
-0.5087064 -0.06843276 -0.85821617 
-0.6866498 -0.68520117 -0.2429226 
-0.34177333 -0.8375951 -0.42617545 
-0.23725763 -0.35285965 -0.90509605 
0.83523995 -0.349899 -0.42419946 
-0.025476446 -0.6233872 -0.78149825 
0.38220578 -0.8618121 -0.33346453 
-0.06666614 -0.54719627 -0.8343452 
0.31143922 0.18281944 -0.93251425 
0.59068656 -0.23597139 -0.7716261 
0.7378476 -0.55003446 -0.3912071 
0.32253838 -0.83993316 -0.43644184 
0.520869 -0.8495297 -0.0836357 
0.6017193 -0.77581894 0.18983938 
0.76759565 -0.4426952 0.46348447 
0.35820785 -0.43984538 0.82354313 
0.17060712 -0.55850875 0.8117643 
-0.37767205 0.18969116 0.9063009 
-0.44185755 -0.5846057 0.68043965 
-0.79884404 -0.5947638 0.09002351 
-0.7367688 -0.39112285 -0.5515385 
-0.042961925 -0.8782181 -0.4763268 
0.49030524 -0.7847269 0.37921584 
-0.9355963 -0.3308105 0.1233864 
-0.26207963 0.5402484 -0.79965365 
0.043689154 0.12657152 -0.99099493 
0.27108288 -0.89130247 0.36344746 
-0.29773098 -0.9542885 0.02626629 
-0.7808035 -0.61774665 0.0934615 
0.23560986 -0.6287541 -0.74105084 
0.0736565 -0.34770826 -0.9347052 
0.12597123 -0.77560025 -0.6185268 
0.97320276 -0.22182141 0.060594086 
0.8576593 -0.5133187 -0.030404858 
0.95332026 0.114872284 0.27925748 
0.7188713 -0.21126525 0.66226214 
0.13992664 0.7927621 0.5932528 
0.9838153 0.09678039 0.15080133 
0.33683684 0.81206274 0.4765451 
-0.22414199 0.9201261 0.3211361 
-0.873909 -0.47628435 0.09714065 
-0.8698011 0.038130533 0.49192685 
-0.5014041 -0.61662984 0.606928 
-0.8315719 -0.2406635 -0.50056916 
-0.96497995 0.20290819 -0.1662589 
-0.65906966 -0.6299411 -0.41085464 
-0.7161417 -0.438676 -0.54286695 
-0.707192 -0.43591744 -0.55664676 
-0.14137018 -0.8191758 -0.5558468 
0.20156254 -0.41919768 -0.8852379 
-0.54269755 -0.06884527 -0.837102 
-0.051996805 0.12101457 -0.991288 
-0.39578143 0.076452285 -0.91515696 
-0.67429185 0.21908343 -0.70521843 
-0.6096477 -0.30772686 -0.73050255 
-0.16538168 -0.20330551 -0.96504706 
0.11779797 -0.18182813 -0.97624904 
-0.56401163 -0.4189435 -0.7116019 
0.18387695 -0.4140757 -0.8914767 
-0.19304353 -0.075348035 -0.9782929 
-0.3213161 -0.10595472 -0.94102585 
-0.23703992 -0.3564367 -0.90375054 
-0.14892569 -0.79499775 -0.5880473 
-0.63364035 -0.74111027 -0.22193573 
-0.045362 -0.8294541 -0.5567299 
0.47198433 -0.6560281 -0.58894646 
0.28351718 -0.90335715 -0.32181343 
0.45235616 -0.89180195 0.007957888 
0.654506 -0.75493836 -0.041110575 
0.06860575 -0.35497636 0.9323546 
0.30372727 -0.53031576 0.7915271 
0.33298007 -0.61281806 0.7166438 
-0.30571872 -0.92060643 0.24294005 
-0.93256086 -0.359911 -0.028186228 
-0.8808174 -0.1175333 -0.45863575 
-0.85339206 -0.347625 -0.38843137 
-0.107421204 -0.63486403 -0.7651199 
-0.11873749 -0.54649746 -0.8290006 
-0.26661497 -0.86419886 -0.42670467 
-0.0433548 -0.99505323 -0.08938326 
0.22541477 -0.9319985 0.28384346 
0.91806066 0.15877436 -0.36325645 
0.9081426 -0.12433781 0.3997714 
-0.34242958 -0.93724495 0.06568054 
-0.8945942 0.10330681 -0.43477473 
0.22758895 -0.8463334 -0.48158386 
0.75772226 -0.31321442 0.57249784 
-0.39262435 -0.90466565 -0.16560832 
-0.19974324 -0.22231433 0.9542951 
-0.70196307 0.051805492 0.71032673 
-0.5003949 0.6122534 -0.61216897 
0.07950371 -0.36966723 -0.9257567 
-0.45456016 -0.7509143 -0.47906455 
-0.3090241 -0.93401694 0.17921041 
0.46941108 -0.62880737 -0.61988276 
0.17122671 -0.55846554 -0.81166345 
-0.057566002 -0.22776318 -0.9720134 
0.3714813 -0.29201302 -0.881323 
0.95212215 0.19196986 -0.2379307 
0.5696388 -0.7214362 0.39375314 
0.5300442 -0.5497325 0.64563715 
-0.06773596 -0.93744737 0.34147382 
0.19306873 -0.8287905 -0.5251962 
0.9067633 -0.26118386 -0.3310034 
-0.64987 -0.71112937 -0.26826125 
0.027361846 -0.696223 0.7173039 
-0.5510258 -0.09467532 0.82910025 
0.04452913 -0.5935624 -0.80355513 
0.37321082 -0.63438636 -0.67695475 
0.17147611 -0.56380713 -0.8079093 
-0.110816486 -0.9508125 -0.28926706 
-0.05859904 -0.77769655 -0.6259027 
0.23772827 -0.4968207 -0.8346584 
-0.54922 -0.42745793 -0.7180788 
-0.17949833 -0.45976067 -0.86971295 
-0.57850665 -0.052595843 -0.8139803 
0.37485257 -0.6944915 -0.6141394 
0.50046206 -0.84870386 -0.17099601 
0.44221213 -0.11634122 -0.88933295 
0.014379844 -0.3870735 -0.9219368 
-0.07104058 -0.53963333 -0.83889765 
0.24837232 -0.964772 -0.08675477 
0.045091454 -0.9644672 0.26032612 
0.48187432 -0.5032284 0.71732724 
-0.41221052 -0.7931075 0.44840056 
-0.101694636 -0.81979156 -0.5635602 
-0.6236937 -0.71353394 -0.31917953 
-0.015100928 -0.9446407 0.32775918 
-0.36022702 -0.49718013 -0.7893343 
0.5487054 -0.7867705 -0.28269163 
0.1863908 -0.5507404 -0.81359917 
0.2933125 -0.8556591 -0.4263981 
0.84340596 0.09405269 -0.5289806 
0.3221814 -0.9466069 -0.011603081 
0.36205193 -0.91517895 0.17710471 
0.9068628 0.37343806 0.19530502 
-0.25385037 -0.30916592 0.91650236 
0.43124846 -0.03135648 0.9016882 
0.3071129 -0.21698536 0.9266062 
0.76592195 -0.08934596 0.63669527 
0.5590775 0.16147415 0.81323946 
-0.70164746 -0.71044135 0.054442313 
0.07414145 -0.99724746 0.00080184214 
-0.3786681 -0.88048637 -0.28522652 
-0.28676593 -0.89798975 -0.33373627 
-0.1444536 -0.46026576 -0.87595016 
0.6485555 0.27679494 -0.70905596 
0.5923324 0.7724553 -0.22903088 
0.64472306 -0.5418593 -0.5391853 
0.23755144 -0.86805665 -0.43594387 
0.95772016 0.025533846 -0.28656608 
-0.9369901 0.30706665 -0.16661215 
-0.89999205 0.42776972 -0.083828844 
-0.97403824 -0.12118463 -0.19121704 
-0.9458397 0.1033648 -0.30773863 
-0.666331 0.58511436 -0.46221676 
-0.29849225 0.32522452 -0.8972911 
-0.62218314 0.14690557 -0.7689648 
-0.6043577 0.37288886 -0.7040638 
0.057306465 -0.43610802 -0.89806783 
-0.33030438 -0.38779113 -0.86053306 
-0.38426054 -0.3928697 -0.8354624 
-0.17381184 -0.3354854 -0.9258721 
0.08256209 -0.5569297 -0.826446 
0.077564456 -0.62088233 -0.780057 
-0.43049297 -0.1449978 -0.8908712 
-0.21356086 -0.9699481 -0.11658684 
-0.20527716 -0.9164754 -0.3434155 
-0.027103184 -0.98788935 -0.15277494 
-0.41899562 -0.8035096 -0.42286533 
-0.7885448 -0.4911298 -0.37012005 
-0.840012 -0.092162974 -0.53468305 
-0.6715539 -0.11086755 -0.7326144 
0.31925374 -0.5497713 -0.77189934 
0.14973617 -0.898278 -0.41312924 
0.18876694 -0.9814463 0.033617154 
-0.4446201 -0.8943783 0.04899351 
-0.36150765 -0.6205482 0.695868 
-0.59703434 -0.23543718 0.76688945 
-0.12088476 -0.77319837 0.62253606 
-0.15987994 -0.86257404 0.4800048 
-0.37258178 -0.9097181 -0.18329178 
-0.7984098 0.09586034 0.59443474 
-0.9164853 -0.07544035 0.39289126 
-0.8548571 -0.464445 -0.23132305 
-0.08415445 -0.3021082 -0.9495518 
0.018730497 -0.05121791 -0.9985119 
-0.78395885 0.085497946 -0.6148972 
0.17579444 0.00911104 -0.9843847 
0.62165743 -0.5604858 -0.5471726 
0.4080832 -0.8028427 0.4346399 
0.03767092 -0.9146382 0.4025146 
0.2810071 -0.93259764 0.22648787 
-0.49542153 -0.54832613 0.673718 
-0.9462146 -0.20118584 0.25338167 
-0.89369816 -0.43967655 0.08937668 
-0.51502794 -0.057902284 -0.85521555 
-0.5154822 0.04090058 -0.8559236 
0.43066582 -0.86185247 -0.26783842 
-0.09585955 -0.80503464 -0.58543175 
0.4630127 -0.68773216 -0.5591456 
0.80596226 -0.5048037 0.30918932 
0.21685877 -0.72826564 0.6500781 
-0.27773458 -0.67861205 0.67996275 
-0.026200708 -0.77465343 0.63184303 
-0.9355352 -0.0006450815 0.35323298 
-0.67782676 0.029447913 -0.7346318 
-0.86168903 0.121540666 -0.49266604 
-0.94012374 -0.19601874 0.2788261 
-0.7818542 0.50326777 0.36800233 
-0.733788 -0.024907012 -0.6789218 
-0.6165147 0.28900552 -0.7323835 
-0.46304086 -0.34691513 -0.81562436 
-0.76508975 0.07730945 -0.639266 
-0.33176565 0.12774199 -0.9346731 
-0.2764172 0.3092251 -0.9099304 
-0.16268034 0.042927336 -0.98574466 
0.18957853 -0.059685215 -0.98004985 
0.4043899 -0.26423717 -0.87558407 
0.08420618 -0.19513601 -0.9771547 
-0.34354958 -0.77900165 -0.52452844 
-0.13595143 -0.71924025 -0.6813301 
-0.30979297 -0.44455191 -0.8404773 
-0.5016981 -0.5507894 -0.6670309 
-0.5494383 0.56571037 -0.61488974 
-0.13842624 0.5455515 -0.82656634 
0.546301 0.17411116 -0.8192928 
0.23121306 -0.4112782 -0.8816977 
0.027521564 -0.9498636 -0.31145126 
0.4409399 -0.7680659 -0.46437785 
-0.31765023 -0.92657465 -0.20138992 
-0.106497996 -0.99173445 -0.07156122 
0.12844582 -0.87647337 -0.46400023 
0.437484 -0.8543259 -0.28059778 
0.898825 -0.28470525 -0.3332518 
0.58745843 -0.19864362 -0.7844956 
0.34076795 -0.48366028 -0.8061948 
0.011188091 0.24034236 -0.9706237 
-0.18573071 0.14816801 -0.9713652 
0.75371414 -0.31207043 -0.5783831 
-0.5149962 0.17080157 -0.84000343 
-0.86952204 -0.4050951 -0.28254092 
-0.2902871 -0.65497684 -0.69766665 
-0.06166552 -0.10282531 -0.9927862 
0.8775273 -0.19776832 -0.43684492 
0.45551148 -0.8881382 0.060991265 
0.54538476 -0.8351292 0.07151657 
-0.14795409 -0.98789155 -0.046689633 
0.50617397 -0.60474575 0.6148744 
0.34300458 -0.5965091 0.72562027 
0.6045236 -0.58938664 0.5358868 
0.7448246 -0.6063319 0.27856424 
0.17424536 -0.9773663 0.11997423 
0.17486113 -0.89454156 -0.4113624 
0.08730744 -0.9854393 -0.14589976 
-0.25791547 -0.9552946 -0.14454012 
-0.7550274 -0.113209166 -0.6458462 
-0.97809553 0.126678 0.16517246 
-0.5225578 -0.4419795 -0.72910047 
-0.43100065 -0.66732675 -0.6073826 
-0.20923238 -0.41494653 -0.8854611 
-0.081447095 -0.6466374 -0.7584369 
0.33077237 -0.5809306 -0.74371326 
-0.04984778 -0.3810618 -0.92320484 
-0.002532801 -0.036057506 -0.99934655 
0.4242932 -0.62754935 -0.6528071 
0.76047254 -0.52352667 -0.3841892 
0.023838738 -0.98586035 -0.16586484 
0.26151964 -0.75921017 -0.59599286 
0.5583786 -0.7924878 0.24530907 
0.4830489 -0.8749139 0.03449055 
-0.36625174 -0.85009015 0.37842655 
-0.7733687 -0.6034046 0.1944322 
0.016284844 -0.8947687 0.446233 
-0.53386635 -0.5456609 0.645942 
-0.44649035 -0.88383037 -0.13960741 
-0.21382944 -0.5517285 -0.80614686 
-0.4002257 -0.71363854 -0.5749256 
-0.84214723 -0.5288955 0.10515561 
-0.5094757 -0.7251501 -0.46324068 
-0.50325435 -0.40734643 -0.762105 
0.60152036 -0.03160204 -0.79823214 
0.39950952 -0.90229964 -0.16201115 
0.46737182 -0.8812855 0.0699969 
-0.34139195 -0.9097955 -0.23605858 
-0.26837608 -0.0010099189 -0.9633137 
-0.3201771 0.68739575 -0.65190005 
0.6880027 0.10277807 -0.7183934 
0.7722797 -0.2631169 -0.57823324 
0.5895923 -0.7680145 -0.25006932 
0.6865894 -0.678984 0.2599533 
0.08411041 0.29890668 0.9505684 
0.20804144 0.6438334 0.7363405 
0.2227271 0.58631533 0.77886266 
0.022099031 0.07497307 0.99694073 
-0.9235205 0.08187662 0.37470815 
-0.67795485 0.055165842 0.73303074 
-0.9005296 0.1095177 0.420776 
-0.4240776 -0.8065711 0.41182664 
-0.8257009 -0.44562903 0.3458799 
-0.9507306 -0.30759597 -0.038679734 
-0.8626085 -0.29067424 0.41402313 
-0.9328744 -0.25569507 -0.25370362 
-0.43976358 -0.6001957 -0.6681117 
0.2132289 -0.53189415 -0.8195255 
-0.65204155 -0.14798018 -0.7436019 
-0.7632992 -0.285932 -0.5793248 
-0.31154552 -0.36382967 -0.8778197 
-0.4082002 -0.25923902 -0.8753101 
-0.9343353 -0.226903 -0.27483228 
-0.083959356 -0.88254017 -0.46268117 
-0.84631413 0.09881333 -0.52343917 
-0.2249792 -0.2743331 -0.934947 
0.020315193 0.019085877 -0.99961144 
-0.14222974 0.33136657 -0.93272024 
0.49577856 0.6735073 -0.5482623 
-0.018015865 0.11979957 -0.99263465 
0.5456296 0.27777445 -0.7906515 
-0.44679585 -0.1841337 -0.8754817 
-0.50319034 -0.22783065 -0.83360237 
-0.35310334 -0.6615705 -0.6615456 
0.16774364 -0.5361231 -0.8273054 
0.30655214 -0.78672945 -0.5358009 
0.2290203 -0.5687543 -0.7899799 
0.4468695 -0.6712824 -0.5913439 
0.1635654 -0.9625336 0.21627618 
-0.05555034 -0.7574224 0.65055794 
-0.012580995 -0.9793762 0.20165344 
-0.8443406 -0.52626103 0.10068849 
-0.64778566 -0.64929974 0.39847666 
-0.8247897 -0.55798244 0.0915299 
-0.25138563 -0.76850736 -0.58838916 
0.28543985 -0.67805904 -0.67731833 
0.28932083 -0.64244807 -0.70961547 
0.22775325 -0.38870424 -0.8927695 
0.58829904 -0.7641811 -0.26444596 
0.21980508 -0.8061764 0.54933184 
0.58205074 -0.8118962 -0.04518212 
0.26031914 -0.79516053 0.5476803 
-0.8233413 -0.53597426 -0.18665709 
-0.30029792 -0.39320973 -0.8690266 
-0.074657 -0.56643194 -0.82071996 
-0.111310646 -0.8001108 -0.58943415 
-0.7451103 -0.4913494 0.450984 
-0.3287503 -0.83521175 0.44084528 
-0.82059866 -0.562424 -0.10147495 
0.103990085 0.20230626 -0.9737856 
0.5903757 0.043599527 -0.80595016 
-0.39829153 0.15394121 -0.9042489 
-0.5746916 -0.6855581 -0.44692245 
0.41652265 -0.78047776 -0.46622252 
0.17239204 -0.76221275 -0.6239494 
0.677445 -0.5651458 -0.47082767 
0.90302384 -0.024605783 -0.4288852 
0.82754743 -0.03644455 0.5602117 
0.69731766 -0.48567408 0.5271326 
0.5817222 -0.6112378 0.53664494 
0.016530411 -0.86798716 -0.49631146 
0.08084138 -0.77684325 -0.62448317 
0.5748228 -0.77065474 -0.27508226 
0.33118525 -0.8605768 -0.3869418 
0.29284415 -0.9548411 0.050208934 
-0.16009817 -0.96017134 0.22899696 
-0.22368258 -0.94066733 -0.25516868 
0.69878936 -0.684654 -0.2072257 
0.36563718 -0.81320244 -0.4527819 
0.049107544 -0.7966121 -0.60249287 
-0.62966615 -0.13740414 -0.76461804 
-0.676936 -0.37872446 -0.63113034 
-0.65639734 -0.10289904 -0.747365 
-0.35781267 0.008210016 -0.93375736 
-0.39819226 -0.5498598 -0.7342323 
-0.18712078 -0.15587461 -0.96989125 
0.22955301 -0.49785757 -0.8363274 
0.7419033 0.072852775 -0.66653734 
0.69911677 -0.4586076 -0.54855704 
0.50660664 0.43559778 -0.7440459 
0.14374979 -0.5859011 -0.7975311 
0.27650467 -0.8644282 -0.41989177 
0.6653431 -0.74169374 -0.08490635 
0.017964529 -0.96902335 0.24631532 
-0.26520604 -0.87273216 -0.4098835 
-0.4323037 -0.8742258 -0.22100405 
-0.16761987 -0.44530684 -0.87954843 
-0.35748246 -0.26402432 -0.8958223 
0.07455224 -0.6264345 -0.77590066 
-0.33791226 -0.9230891 -0.18363546 
0.48022088 -0.5910429 -0.64811754 
0.4119305 -0.6219979 -0.6659069 
0.48705995 -0.55460995 -0.6746707 
-0.018777542 -0.913215 -0.40704548 
0.93029153 -0.12617728 0.34443718 
0.9078658 -0.36291328 0.20993723 
0.56776685 -0.802291 0.18430987 
0.046774473 -0.8871808 0.45904517 
0.23654634 -0.42998418 0.87129766 
-0.14634092 -0.40531185 0.90238947 
-0.27332756 -0.9414288 0.19749413 
-0.3379282 -0.7575541 0.5584947 
0.005359833 -0.782662 -0.6224239 
-0.36069137 -0.77527374 -0.51851 
-0.21199921 -0.8308716 -0.5144985 
0.17151952 0.1738248 -0.9697247 
-0.48015922 0.14622909 -0.86490715 
0.42737767 -0.321119 -0.8451219 
0.33161607 0.081765376 -0.9398645 
0.72090125 0.45735943 -0.5206955 
-0.54844683 0.82275695 0.14925541 
-0.73695385 0.6720322 -0.07260723 
-0.88322926 -0.43937185 0.16388619 
-0.97117704 0.15611614 -0.18011917 
-0.77102935 0.17700739 -0.6117043 
-0.72656214 0.46042496 -0.51001596 
-0.48698565 0.27387822 -0.82935864 
-0.49312064 0.23812227 -0.83673775 
-0.10781177 0.27595687 -0.9551045 
-0.4830427 -0.016627626 -0.875439 
0.282344 -0.5514003 -0.7850093 
-0.047375694 -0.037412755 -0.9981763 
-0.7817455 -0.37116143 -0.50111187 
-0.05065181 -0.2685049 -0.9619458 
-0.3937058 -0.68671155 -0.6110835 
-0.49818644 -0.8365849 -0.22789471 
-0.41620338 -0.8311183 -0.36880526 
-0.5334579 -0.8435042 -0.062637724 
0.036571756 -0.84439015 -0.53447914 
-0.39278024 -0.57760084 -0.7156123 
-0.13456891 -0.9447388 -0.29893142 
0.3728722 -0.6256324 -0.6852375 
0.23459186 -0.9261861 -0.29520506 
0.3689041 -0.7662261 -0.5261248 
-0.007668992 -0.9931756 0.116376184 
-0.30083036 -0.8935363 0.33330753 
-0.09676575 -0.52459615 0.8458341 
-0.46973974 -0.6850216 0.5568573 
-0.78049374 -0.550425 0.2964152 
-0.27121854 -0.9617428 0.038615942 
-0.70367736 -0.70776916 0.062458627 
-0.53739977 0.33818796 0.7725481 
-0.9175147 0.094131514 0.3864016 
-0.92554003 -0.3735263 0.062079296 
-0.8555689 0.31073028 -0.41406366 
-0.94895923 -0.17907642 -0.25963065 
-0.92214656 -0.09462731 -0.37508878 
-0.34608698 -0.7333071 -0.5852217 
0.4315713 -0.7841425 -0.4459451 
0.36264008 -0.8668266 0.34220457 
-0.2746791 -0.92769164 -0.25286272 
0.15557554 -0.8258325 -0.5420305 
-0.15625444 -0.9261621 0.34323204 
-0.46674982 -0.84802043 0.25100985 
-0.7288931 -0.6846275 0.00044623722 
-0.21614519 -0.29082027 -0.93204343 
-0.4083054 -0.3401146 -0.847118 
0.17069255 -0.81303793 -0.5566269 
0.24510908 -0.4335635 -0.86714727 
0.78346705 -0.49328843 -0.3779499 
0.16850832 -0.96719444 0.1901051 
0.6314686 -0.7597368 -0.15507236 
0.43495923 -0.2916982 0.8518936 
0.06322687 -0.3864729 0.9201311 
0.06922963 -0.728809 0.6812083 
-0.9924535 -0.074015066 0.097763844 
-0.6357448 -0.7418039 0.21343744 
-0.6831358 -0.72637606 -0.07552141 
-0.8598804 0.015759934 -0.51025224 
-0.91733974 -0.10553875 -0.3838611 
-0.50291723 0.25825906 -0.8248494 
-0.5895079 -0.2589915 -0.765117 
-0.62289995 0.0706324 -0.77910644 
-0.20101579 0.18416779 -0.96212 
-0.30074903 0.4376085 -0.84737766 
-0.61720467 0.05226056 -0.7850651 
-0.3615955 0.011523299 -0.9322639 
0.76075155 -0.22465833 -0.6089217 
-0.012059335 -0.9795365 -0.20090532 
-0.24710439 -0.64080226 -0.72685075 
0.14938913 -0.043371204 -0.9878269 
-0.2051886 0.03784346 -0.9779906 
-0.49890652 0.32464638 -0.80355275 
-0.28830308 0.56508666 -0.7730191 
0.61360884 -0.011911021 -0.78952026 
0.76722234 -0.5209289 -0.37416968 
0.23949103 -0.28362843 -0.92854667 
0.80337596 -0.17359969 -0.56960547 
0.87368363 -0.30920678 0.37559035 
0.6048483 -0.786874 0.122425124 
0.5587126 -0.82667404 -0.066711195 
0.9410043 -0.22925605 -0.24890298 
0.80616516 -0.34151837 -0.4831802 
-0.18996814 -0.14477627 -0.9710572 
0.42535567 0.02727065 -0.90461534 
0.56461006 0.05360423 -0.8236153 
0.28794062 0.6311684 -0.7202199 
-0.08782142 0.092973165 -0.99178797 
-0.31035224 0.41515753 -0.855176 
-0.14464316 0.13925773 -0.9796355 
-0.5043233 -0.13197455 -0.85337025 
-0.44977862 -0.18292758 -0.87420636 
-0.0739238 0.09216222 -0.9929962 
0.517459 0.26390117 -0.81399786 
0.7244359 -0.22468518 -0.65169716 
0.7600273 -0.48467338 -0.43295535 
0.14882876 -0.95801777 0.24505521 
0.2435991 -0.9630538 0.11483395 
0.28617522 -0.95765233 0.031715207 
0.34780875 -0.9368049 -0.037759036 
0.28208 -0.69743747 -0.65879583 
-0.32282692 -0.62297696 -0.7125184 
-0.7296985 -0.6224951 -0.28291333 
-0.19538972 -0.9454556 0.26064664 
0.12386551 -0.7481743 -0.6518379 
-0.92019045 -0.25361466 -0.2982098 
-0.9975309 -0.06735497 0.019885559 
-0.56483996 -0.63037825 -0.5325216 
-0.16186921 -0.33828217 -0.9270187 
0.24581897 -0.6791768 -0.6915867 
0.22050525 -0.84105206 -0.4939727 
0.5425893 -0.7240502 -0.42585 
0.29014358 -0.5026507 -0.8143458 
0.29672155 -0.011831192 -0.95489085 
0.22442093 -0.8361918 -0.50041854 
0.67138165 -0.69399774 -0.2600267 
-0.053842228 -0.87073684 -0.48879272 
0.6243332 -0.5037594 -0.5970214 
0.5600501 -0.57314837 -0.59820145 
0.7160925 -0.62500024 0.31078336 
0.14693876 -0.968582 0.20064372 
-0.56829613 -0.69759035 -0.43635672 
-0.6700973 -0.3950483 0.62841594 
-0.63604546 -0.7707154 0.038000286 
-0.37574914 -0.86275935 -0.338318 
-0.9364379 -0.27406535 -0.21902572 
-0.76830834 -0.15112375 -0.62198395 
-0.9210505 -0.377699 -0.094918266 
-0.95427614 -0.23006727 -0.19085611 
-0.29003793 -0.3148634 -0.90373623 
-0.24773978 -0.22358431 -0.9426744 
0.3732946 -0.27203408 -0.88693225 
-0.37722108 -0.4802752 -0.7918585 
-0.020270312 -0.8750767 -0.48355946 
-0.56489176 -0.3305791 -0.7560521 
0.47685653 0.436997 -0.7626543 
0.5402477 -0.2521351 -0.8028453 
0.38370362 -0.14159265 -0.9125367 
0.92641836 -0.24360861 -0.2870607 
0.3757978 -0.9240763 -0.0697067 
0.74439967 0.48960328 0.45404598 
0.45532882 -0.24714474 0.8553334 
0.3960311 -0.6458453 0.65272 
-0.35236064 -0.08570279 0.93193185 
-0.74198896 -0.48117572 0.4668215 
-0.47536963 -0.52995604 0.7022609 
-0.16880742 -0.74268067 0.6480197 
-0.40160444 -0.8643308 0.302731 
-0.046371378 -0.93721086 0.3456667 
-0.59654516 -0.6984427 0.39536276 
-0.6726736 -0.48339245 -0.560216 
-0.55958974 -0.106327936 -0.8219208 
-0.601318 -0.4820112 -0.63724554 
-0.6285592 -0.5822172 -0.5156903 
-0.56337655 0.43362778 -0.70325947 
-0.008232765 -0.15580815 -0.98775303 
0.076404706 -0.38802588 -0.91847616 
0.03473334 -0.99148864 -0.12547545 
-0.47597492 -0.42236426 -0.77139896 
-0.395274 -0.021907043 -0.91830194 
-0.5856989 0.5561116 -0.58965814 
-0.029643368 0.8446835 -0.5344446 
0.14978863 0.3919362 -0.9077166 
0.4155875 0.62410545 -0.6616491 
-0.18087205 0.8482464 -0.4977584 
-0.6462828 0.15676972 -0.7468212 
-0.59365153 0.12646024 -0.79472363 
-0.514701 -0.58313936 -0.62851524 
0.033190995 -0.6613105 -0.74937767 
-0.3237657 -0.8257785 -0.46180695 
0.005361201 0.28730837 -0.95782316 
-0.6004686 -0.25825766 -0.7567962 
0.019693298 -0.6447686 -0.7641241 
-0.13584705 -0.8603793 -0.491216 
-0.30418044 -0.93324983 -0.19109991 
-0.36465696 -0.860274 -0.35630623 
-0.13881811 -0.9384517 -0.31628785 
-0.96209216 -0.27136752 -0.027172675 
-0.87092155 -0.452116 0.19257936 
-0.32096836 -0.945475 -0.05528412 
-0.17092153 -0.7619199 -0.62471116 
0.09978184 -0.54257417 -0.83406055 
-0.40575975 -0.40857828 -0.8175714 
0.33478108 0.19226803 -0.9224721 
0.42993528 -0.47728908 -0.7663881 
0.2576792 -0.53258866 -0.8061953 
0.74660057 -0.5673121 -0.34748322 
-0.6403505 -0.7094446 -0.29434615 
-0.63339573 -0.10419631 -0.766781 
-0.08824181 -0.24014917 -0.96671706 
-0.29069448 0.12054243 -0.9491925 
-0.04100089 -0.45252892 -0.89080673 
-0.8453818 -0.5341356 0.0053856457 
-0.4055494 -0.62410325 -0.667851 
-0.80318874 0.4815945 -0.35064888 
-0.6199401 0.10308391 -0.77784836 
0.21983936 0.09709656 -0.970692 
-0.29893178 0.29577506 -0.90728 
-0.7284975 -0.42659393 -0.5360121 
0.018353969 0.13517182 -0.99065214 
0.48208332 -0.24866225 -0.84009683 
0.03868269 0.31974906 -0.9467123 
0.94413275 -0.24350584 -0.22207725 
0.3001602 -0.88713735 -0.35055855 
0.13102365 -0.8405683 -0.5256214 
0.07079949 -0.9046508 -0.42023125 
-0.1589967 -0.6365483 -0.75466967 
0.38155743 -0.65295863 -0.65426224 
0.79918593 -0.37403956 -0.47052783 
-0.13777612 -0.8683947 -0.47634932 
0.12515585 -0.46672162 -0.87550384 
0.30514985 -0.9223626 -0.23691921 
0.21192247 -0.93685156 -0.27820495 
0.2049232 -0.8260938 -0.5249529 
-0.44244936 0.16256665 -0.8819358 
0.41201335 -0.3296607 -0.8494522 
-0.6770635 0.4127649 -0.6092703 
-0.075578064 0.011065231 -0.9970785 
-0.073386356 -0.17741956 -0.98139536 
-0.10752167 -0.04249184 -0.9932943 
-0.060015615 0.007149028 -0.9981719 
0.07340133 -0.41449848 -0.907085 
-0.20583765 -0.09090587 -0.97435474 
0.15109956 0.6222619 -0.768088 
0.0568496 -0.6580984 -0.7507827 
0.3755945 -0.46232867 -0.80323166 
0.58655334 -0.6113788 -0.53119785 
0.50019044 -0.86401856 -0.05728402 
0.123651475 -0.9911058 0.049191453 
0.36775616 -0.9173165 -0.15259765 
-0.2643522 -0.6286221 -0.7314043 
-0.3695504 -0.82280254 -0.43177393 
0.3274475 -0.13257368 -0.9355225 
-0.29872 -0.23784955 -0.9242262 
0.3510771 -0.18155424 -0.91857654 
0.21681961 -0.8165241 -0.53504926 
-0.15848634 -0.5416357 -0.825538 
0.80257446 -0.18331626 -0.5676878 
0.64538306 -0.2801365 -0.7106366 
0.7663402 -0.3733684 -0.52279896 
-0.0029006852 -0.79202974 -0.6104758 
0.22730772 -0.18498117 -0.95609266 
0.29863542 -0.55327576 -0.77762645 
-0.008335315 -0.9790941 0.20323698 
0.2843966 -0.9584108 0.02381795 
-0.26167303 -0.9651178 0.008657272 
0.18660486 -0.8253465 -0.53289926 
-0.22268815 -0.8964878 0.38304004 
-0.038200296 -0.9970342 0.066811025 
0.18133576 -0.8721858 -0.45432296 
0.4074417 -0.913173 0.010314438 
0.5224737 -0.04074118 -0.85168153 
0.008146379 -0.1995489 -0.97985405 
0.40139192 0.2778426 -0.8727474 
-0.14292163 0.11171688 -0.98340875 
0.47978067 0.37143597 -0.79488736 
-0.7478937 0.5337074 0.39472973 
-0.74414694 0.66271913 0.08395643 
-0.7514997 -0.3833714 -0.5369121 
-0.7216614 -0.110899135 -0.68330544 
-0.8716799 -0.3206895 -0.37058395 
-0.6542377 0.54810333 -0.5211103 
-0.29198164 -0.5611094 -0.774534 
-0.21780512 0.38284555 -0.8977696 
-0.20758532 -0.19899645 -0.9577625 
-0.3447031 -0.4263731 -0.83629286 
0.23697107 -0.17717195 -0.9552251 
-0.2726089 0.52670205 -0.80515176 
-0.1813631 0.117133185 -0.9764156 
-0.038232435 0.117199436 -0.9923723 
0.34708986 -0.2338671 -0.90820426 
-0.57784444 -0.5287164 -0.6217354 
0.042634282 -0.4439035 -0.89505976 
0.23089191 -0.5367757 -0.81151754 
-0.19226378 -0.4771043 -0.8575583 
0.32523727 -0.6046313 -0.72707754 
0.5812367 -0.6791227 -0.44828162 
0.639004 0.017686037 -0.7690001 
0.6720911 -0.5026351 -0.54373837 
0.9848084 -0.065459855 -0.16083363 
0.54222864 -0.7762073 -0.32169914 
-0.1821591 -0.94416034 0.27455312 
0.37941435 -0.80088294 0.46328312 
-0.35968935 -0.9316765 0.051014572 
-0.78621286 -0.57444096 0.22778727 
-0.50987905 -0.8342963 0.20969763 
-0.62774044 -0.6232181 0.46641317 
-0.7616988 0.50288653 0.4085585 
-0.97302634 0.22898231 0.028054316 
-0.93349975 -0.27357352 0.23180977 
-0.59590733 0.5220884 -0.6101789 
-0.9879111 0.1297985 -0.08475934 
-0.7847117 -0.5953287 -0.17265968 
-0.07876071 -0.4832034 -0.87195826 
-0.045109365 -0.8251281 -0.56314206 
0.11530687 -0.99331087 -0.0061554573 
0.40474114 -0.86094606 -0.3081504 
0.007208823 -0.9911548 -0.13251525 
0.2599486 -0.96214825 0.08183896 
0.30192715 -0.94232863 -0.14441909 
0.4359381 -0.6251283 -0.6474355 
0.10696049 -0.8508664 -0.51437926 
-0.3534501 -0.7770065 -0.52089745 
-0.1353934 -0.3216802 -0.93711823 
0.19439983 -0.6413149 -0.7422426 
0.49179018 -0.7982549 -0.3477523 
0.37174875 -0.92003167 0.123873234 
0.2975741 -0.8543817 -0.4260066 
0.5696425 -0.7322287 0.37329417 
-0.029748457 -0.91345936 0.40584123 
0.52835107 -0.8180095 0.22738855 
-0.8227485 -0.41765508 0.38555053 
-0.93582773 0.091241844 0.3404432 
-0.4347654 -0.12269581 -0.89214617 
-0.29702553 0.21694446 -0.92989844 
-0.695945 -0.49124572 -0.5237732 
-0.82601774 -0.25260758 -0.50386924 
-0.6801874 -0.2235043 -0.69813395 
0.01380343 -0.44699982 -0.89442754 
-0.021109138 -0.09545687 -0.99520975 
0.36426067 0.5774701 -0.73064524 
0.37277776 0.6609062 -0.65133697 
-0.2690975 0.52726996 -0.8059609 
-0.7219689 -0.21297522 -0.6583331 
0.067139894 0.00053236925 -0.9977434 
-0.13610111 -0.014946539 -0.9905822 
0.34755516 0.26124176 -0.9005321 
0.785526 -0.025585795 -0.61829954 
0.105094254 0.6564729 -0.746993 