# OOMMF: rectangular mesh v1.0
# Segment count: 1
# Begin: Segment
# Begin: Header
# Desc: Time (s) :  6.280000000000012e-07
# Title: m
# meshtype: rectangular
# meshunit: m
# xbase: 2e-09
# ybase: 2e-09
# zbase: 5e-10
# xstepsize: 4e-09
# ystepsize: 4e-09
# zstepsize: 1e-09
# xmin: 0
# ymin: 0
# zmin: 0
# xmax: 1.024e-06
# ymax: 1.024e-06
# zmax: 1e-09
# xnodes: 256
# ynodes: 256
# znodes: 1
# ValueRangeMinMag: 1e-08
# ValueRangeMaxMag: 1
# valueunit: 
# valuemultiplier: 1
# End: Header
# Begin: Data Text
0.7437929 -0.630928 -0.22068548 
0.4284609 -0.5305802 -0.73137265 
-0.35409182 -0.5756696 -0.73703706 
-0.40384758 -0.8153916 -0.41478157 
-0.4503313 -0.88814723 -0.09163111 
-0.78082025 -0.61094576 -0.13063373 
0.08675474 -0.6244197 -0.77625626 
-0.254324 -0.89640725 0.36300617 
-0.8932326 -0.3713221 0.25348705 
-0.88895375 0.40237525 -0.21875905 
-0.25882438 -0.15970068 -0.952631 
-0.48901436 -0.08379434 -0.8682416 
0.029031895 0.5457554 -0.8374415 
0.3464795 -0.74543303 -0.5694574 
-0.4646371 -0.8845247 0.04157519 
0.363076 -0.7678789 -0.5277669 
-0.039484516 -0.8487415 -0.527332 
-0.31391078 -0.3812813 -0.86953133 
0.08248413 -0.6784098 -0.7300387 
-0.21667063 -0.9389341 -0.26731375 
0.97443056 -0.17352657 -0.14273669 
0.6751629 -0.5198105 -0.5234045 
-0.2335464 -0.36831656 -0.8998884 
-0.38059053 0.09796301 -0.91954017 
0.118959025 0.31875515 -0.9403424 
0.7940918 -0.22697239 -0.5638278 
0.7222275 0.5689299 -0.3933272 
0.215124 -0.6019698 -0.7689956 
0.17884588 -0.9793053 0.09473848 
-0.054316025 -0.734137 -0.6768255 
0.38561112 -0.59657794 -0.70384574 
0.64676166 -0.36594346 -0.6691672 
-0.2252159 -0.97384346 -0.03011331 
0.40057763 -0.5531878 -0.7304252 
0.0012919136 -0.9171997 -0.39842588 
-0.47525308 -0.5916694 -0.6512004 
-0.53289413 -0.82231027 0.19957356 
-0.8204403 -0.56286836 -0.100284345 
0.09321759 -0.34102803 0.93542 
-0.5741802 -0.7308058 -0.36910716 
-0.1187512 -0.6839783 -0.7197721 
-0.039182976 -0.73630565 -0.6755137 
0.8691125 0.31344247 0.38261914 
0.83205265 0.30517787 0.46320078 
0.52056986 0.42996308 0.7376577 
-0.12421361 -0.09514732 0.98768324 
-0.34879634 0.3754428 0.8587106 
-0.55799854 0.29362506 0.7761585 
-0.79489326 -0.14107996 0.59011966 
-0.82316804 -0.3793791 -0.42245224 
-0.12302923 0.029250177 -0.99197197 
-0.28722054 -0.5332292 -0.7957204 
-0.5147594 -0.7471179 -0.42052066 
-0.71370023 -0.39861506 -0.575967 
-0.6449673 -0.6179019 -0.44968262 
-0.22247434 -0.62718004 -0.7464251 
-0.3404857 -0.191225 -0.920599 
0.2097549 -0.85843784 -0.46806768 
-0.36735773 -0.9055451 -0.21221799 
-0.7188481 -0.691069 -0.075373426 
-0.8743884 0.0658864 -0.48073268 
-0.61812836 0.5261952 -0.5839828 
0.2898019 0.23795895 -0.9270332 
0.07454722 -0.051598176 -0.99588174 
-0.4672412 0.37626418 -0.8000694 
-0.111620635 -0.5289032 -0.84130996 
0.023646213 -0.73850965 -0.67382824 
0.41861898 -0.77210635 -0.47813174 
-0.16097416 -0.92256594 -0.35065567 
-0.11711391 -0.64572436 -0.754536 
-0.52772087 -0.4568087 -0.71612614 
-0.30356187 -0.8999998 -0.31281078 
-0.2602854 -0.89300233 -0.36714908 
-0.522344 -0.8272345 0.20697817 
-0.5493385 -0.26700863 0.7917914 
-0.38329813 -0.25215188 0.88853925 
-0.5954318 -0.052744534 0.80167276 
-0.9538017 0.2059894 0.2187023 
-0.63673973 -0.37112162 -0.67589307 
-0.92458993 -0.34122092 -0.16941597 
0.039138738 -0.7525848 0.65733117 
-0.705009 -0.57045764 0.42135566 
-0.40109006 -0.65873486 -0.6365495 
-0.0136933625 -0.44149926 -0.8971572 
0.46481133 -0.87672645 -0.12369877 
0.6416335 -0.6709459 0.37166938 
-0.052285537 -0.90134925 0.42992547 
-0.64516777 -0.7565692 0.106591254 
0.17747822 -0.91825414 0.35399288 
0.13865393 -0.8009523 0.58245206 
0.20856813 0.111120164 0.9716747 
-0.14988519 -0.695121 0.7030942 
0.0062825056 0.060998805 0.99811804 
-0.8077292 0.4576962 0.3716017 
-0.62433267 -0.6499314 -0.4333566 
-0.4508473 -0.014135214 -0.8924892 
-0.23114043 0.14266369 -0.9624039 
0.356034 0.5111877 -0.7822577 
0.5658824 -0.35810238 -0.7426573 
0.58408886 -0.2504001 -0.77210116 
0.49620867 0.25203097 -0.8308173 
0.8498125 0.052786622 -0.5244354 
0.06375656 -0.86188436 -0.503081 
0.308632 -0.434245 -0.84627277 
0.57569796 -0.55784637 -0.59781224 
0.8542513 0.39190227 -0.34156588 
0.6849536 -0.7124975 0.15226977 
0.8417204 0.014681993 -0.53971404 
-0.5246504 -0.02602119 -0.8509201 
-0.7841714 -0.4729018 -0.40179506 
-0.28387684 -0.952965 0.10616895 
-0.77137893 -0.6178674 -0.15236275 
-0.39474952 -0.89159703 0.22187325 
-0.72528386 -0.34792396 0.59406424 
-0.32629418 -0.68815213 0.6480577 
-0.74296355 -0.6560257 -0.1327984 
-0.9573832 0.25894606 -0.12792307 
-0.7874374 -0.6083978 -0.09896787 
0.15586095 -0.9855489 -0.06633783 
0.5077276 -0.4476882 -0.7360625 
-0.31481954 -0.8829767 -0.3481968 
-0.39651772 -0.802137 -0.44648623 
-0.6329718 -0.7327752 -0.24977434 
0.28592756 -0.83957475 -0.46190876 
0.33774924 -0.5822654 -0.73952186 
0.68434393 -0.6590243 -0.31202638 
0.38875923 -0.8325544 -0.39461315 
-0.21624602 -0.47738367 -0.85167044 
-0.6309586 -0.44529223 -0.6353001 
0.30190453 -0.6563182 -0.6914479 
-0.29536268 -0.86178684 0.41241288 
-0.6407583 -0.7344567 0.22361198 
-0.73598325 -0.5750673 -0.3572484 
-0.16012287 -0.93922967 -0.30365804 
-0.21584022 -0.2793051 -0.9356291 
-0.12974152 -0.4532759 -0.88187766 
-0.076613076 -0.8412635 -0.5351693 
0.547489 -0.807809 -0.21840443 
0.35715675 -0.92031676 -0.15954953 
-0.073958136 -0.8681189 -0.49081543 
-0.03686549 -0.014533057 -0.9992146 
0.3441043 -0.21786621 -0.91330534 
0.3385267 0.21923782 -0.91505986 
0.74681276 -0.5100605 -0.42674232 
0.6213276 -0.22026564 0.7519543 
0.1634207 -0.714431 0.6803544 
0.44128957 -0.8870118 0.1359176 
0.16406919 -0.9793304 -0.11829325 
-0.48244947 -0.8732447 -0.06845646 
0.16345719 -0.8225044 -0.5447644 
0.006106054 -0.14847781 -0.98889697 
0.28614968 -0.4189427 -0.86174554 
0.16741201 -0.8091642 -0.5632286 
0.37117326 -0.6416089 -0.67124397 
0.6571847 -0.24504083 -0.71278554 
0.91581905 -0.3221741 -0.23974836 
0.77529705 -0.1247674 -0.6191508 
0.89172786 -0.22816822 -0.39084637 
0.5419665 -0.73187107 -0.4130825 
0.72876424 -0.5023471 0.46534953 
0.32678196 -0.4837897 0.8118874 
-0.39206508 -0.9175028 0.06688444 
-0.52740824 -0.20124252 0.82543445 
-0.8153902 -0.15041564 0.5590295 
-0.49511424 -0.71122175 0.49902472 
0.31830195 -0.9420135 0.10627597 
0.10398762 -0.8202553 0.562466 
-0.06431166 -0.9926975 0.10205808 
-0.010061977 -0.91192853 -0.41022557 
0.3861511 -0.749717 -0.5374122 
0.4870062 -0.85064155 -0.19807567 
0.9764779 -0.013755771 0.21517827 
-0.037675202 0.29595712 0.954458 
0.4814704 -0.2655657 0.8352611 
-0.466866 -0.809234 0.3566182 
-0.8694821 -0.14536771 -0.4720904 
-0.31461462 -0.24065974 -0.91820514 
-0.30821902 0.21678345 -0.92628616 
-0.9161121 -0.19426233 -0.35071492 
-0.8095928 -0.48223606 -0.33467606 
-0.42713678 -0.21793152 -0.87753063 
-0.22925599 -0.818615 -0.5266035 
0.44571537 -0.839243 0.31146282 
0.2347101 -0.9494558 0.20843421 
0.12738359 -0.9364828 -0.32676202 
0.43944624 -0.39990205 -0.80434155 
-0.21135913 0.013697095 -0.9773125 
-0.14561681 0.20042567 -0.9688268 
0.8714541 -0.2097514 -0.44336477 
0.53220445 -0.22313346 -0.81668234 
0.5126739 -0.01287288 -0.858487 
0.64297485 -0.76553696 0.023161123 
0.45834458 -0.6947784 -0.5542592 
0.94700074 -0.007071434 -0.32115364 
0.7238989 -0.64290166 0.25029567 
0.9887496 0.14694233 0.027968584 
0.9362016 -0.3121159 -0.1615873 
0.6504197 -0.5856333 0.48372304 
0.3423907 -0.93955624 0.0016862069 
0.4752267 -0.53108513 -0.70150423 
0.51673543 -0.21777259 -0.82798535 
0.56305027 -0.7644301 -0.3140401 
0.36347437 -0.2684016 -0.8921026 
0.1288452 -0.78029364 -0.61199737 
-0.14910567 -0.10125501 -0.9836234 
0.5946347 -0.0071350643 -0.80396444 
-0.26216346 -0.33561268 -0.9047842 
-0.35614568 -0.64563954 -0.6755071 
-0.54194754 -0.47342607 -0.6943779 
0.29732463 -0.66068184 -0.6892733 
0.104078166 -0.7280006 -0.67763036 
0.053207826 -0.76275325 -0.64449716 
0.44496506 -0.50738335 -0.7379488 
0.49072513 -0.08050079 -0.86758775 
0.59862804 -0.23533387 -0.7656778 
0.58500385 -0.8095964 0.04820963 
0.17784809 -0.9244211 -0.337366 
-0.33522743 -0.8272773 -0.45081565 
-0.077617414 -0.9105151 -0.40612537 
-0.34975687 -0.71917254 -0.60038406 
0.18797155 -0.39250287 -0.90033793 
-0.52351797 -0.30074272 -0.7971718 
-0.4737742 -0.5356472 -0.69901365 
-0.45257857 -0.5393315 -0.71013683 
-0.250231 -0.92877537 -0.27342418 
-0.49713713 -0.36496383 -0.78718245 
-0.48031107 -0.44200858 -0.75758153 
0.7735009 -0.21325088 -0.59684205 
0.2226057 -0.9487887 0.22415781 
0.33459854 -0.8629102 0.3787214 
0.4655339 -0.7940149 0.3909202 
0.5732585 -0.7670511 0.28810978 
-0.85295314 0.05946541 0.5185892 
-0.33807743 -0.93029606 0.14231297 
0.014647983 -0.10041362 -0.994838 
-0.36504096 -0.40755853 -0.83704317 
-0.313728 -0.5886735 -0.74500895 
0.083027594 -0.6168682 -0.78267497 
-0.016483106 -0.14211313 -0.98971325 
-0.08520803 -0.5658923 -0.8200644 
0.2278797 -0.5648642 -0.7930949 
0.32209283 -0.8835071 0.34010527 
-0.54851806 -0.69651854 0.4625905 
-0.057709582 -0.9061499 -0.4190013 
-0.46437097 -0.722721 -0.5118926 
0.21018735 -0.9460734 -0.2465084 
0.44792324 -0.77338195 0.44860357 
0.40891886 -0.8601519 -0.30483475 
-0.80611783 -0.5404393 0.24103828 
0.014444568 -0.9975593 0.068315364 
0.21510342 -0.91454905 -0.34253538 
0.14813039 -0.64494896 -0.74973214 
-0.031094287 -0.7506226 -0.65999925 
0.25585544 -0.049843065 -0.9654293 
0.94992083 -0.08459954 -0.30082133 
0.8165807 -0.57538635 -0.04611436 
0.14558117 -0.5600108 -0.81559443 
0.4964079 -0.1899495 -0.8470529 
0.026253399 -0.83514845 -0.5493977 
-0.2770799 -0.7772393 -0.5649123 
-0.0501107 -0.88863754 -0.4558642 
-0.19016942 -0.96835965 0.16160245 
-0.8075683 -0.42796314 -0.4058089 
-0.8319672 -0.55172133 -0.058601163 
-0.7972668 -0.22151247 -0.56151414 
-0.91174024 -0.07927886 0.40304425 
-0.7634278 0.24541141 -0.5974541 
-0.44514948 -0.059486087 -0.89347833 
-0.31855658 -0.056833558 -0.9461985 
0.27073577 -0.4143867 -0.86889917 
-0.76289314 -0.28164732 -0.58195263 
-0.47079667 -0.0051848926 -0.8822266 
-0.3067073 -0.60762006 -0.7326176 
-0.6675942 -0.4250655 -0.6112589 
-0.17634754 -0.027025586 -0.983957 
0.16981252 -0.2630632 -0.9497166 
-0.37441808 0.15116493 -0.91485536 
0.2840627 0.23363483 -0.9299049 
0.17450407 0.03793072 -0.9839257 
0.4442402 0.07143288 -0.89305544 
0.09907112 0.07816619 -0.9920056 
0.6525793 -0.36806503 -0.66232055 
0.33054388 -0.059996795 -0.9418818 
-0.18650007 -0.2563216 -0.9484287 
0.11898543 -0.68266004 -0.7209839 
-0.2690585 -0.48842302 -0.8300907 
0.33482713 -0.03869098 -0.94148487 
-0.36123717 -0.79675853 -0.48444155 
0.62629443 -0.77647376 0.06959745 
-0.1745514 -0.66607237 -0.72517544 
-0.48481262 -0.7903192 -0.37463614 
-0.59554 -0.57477 -0.5612233 
-0.28547668 -0.51586413 -0.807705 
-0.20072345 -0.970294 -0.13505453 
0.13287394 -0.9762293 -0.1712337 
-0.031077612 -0.9902974 -0.13544476 
0.059912786 -0.55782557 -0.827793 
0.116395265 -0.88759947 -0.44566736 
0.43250793 -0.8757776 -0.21436122 
0.7486866 -0.3854104 0.5393768 
0.64224017 0.2891841 0.70985925 
-0.082593285 0.3289716 0.9407211 
-0.92486846 0.380272 -0.0033906288 
-0.9201497 0.28089356 0.27280667 
-0.9188824 0.37209564 -0.1311482 
-0.62708557 0.25770262 -0.7350872 
-0.70372385 0.19816367 -0.6822785 
-0.44427654 -0.26839766 -0.85474044 
-0.8766461 -0.28958404 -0.38423002 
-0.5204089 -0.7281052 -0.44613618 
0.012319284 0.10380228 -0.9945217 
-0.022917189 -0.528933 -0.84835416 
-0.39453864 -0.4679901 -0.79077476 
0.22316675 -0.6321018 -0.7420539 
-0.20627798 -0.7097833 -0.6735408 
-0.7298882 -0.5656488 -0.38380307 
-0.63353217 -0.5695721 -0.5236648 
-0.25067437 0.08631446 -0.96421593 
0.35263842 0.27497777 -0.8944459 
-0.5831018 0.46683848 -0.6648716 
-0.08141287 0.92852306 -0.36223868 
0.027249122 -0.7928829 -0.60876465 
0.26766863 -0.36922303 -0.8899596 
0.014264824 -0.9199843 -0.3916957 
-0.4643514 -0.85369265 -0.2357687 
-0.48470804 -0.84737563 -0.21682404 
-0.4062608 -0.91140854 0.06547374 
-0.3182786 -0.92974657 -0.1851216 
-0.3936118 -0.6704079 -0.62898576 
-0.11329858 -0.95125735 -0.28683278 
-0.30024102 -0.81634504 0.49339268 
-0.9302602 -0.29928422 -0.21223809 
-0.9636558 -0.25307453 -0.085562006 
-0.9864278 -0.11263002 -0.11947703 
-0.48015288 -0.4425436 -0.75736946 
-0.80759656 0.2174714 -0.54817337 
-0.9285759 0.19700316 -0.31454182 
-0.99577767 0.07933585 -0.04618234 
-0.70800036 0.0069638803 -0.7061777 
-0.6183591 0.1476235 -0.7719064 
0.35614222 -0.6068605 -0.7105513 
0.7827824 -0.54119325 -0.3071835 
-0.6754265 -0.36651924 0.63989276 
-0.38707212 -0.88975954 0.24187453 
0.08325419 -0.996128 -0.028245935 
0.31198412 -0.68554914 0.6577905 
0.25474155 -0.065012515 0.96482134 
0.1809739 -0.22870326 0.9565267 
0.060927846 -0.5807391 0.81180656 
-0.8135853 -0.5468667 0.1975241 
-0.99567544 -0.0022151512 -0.092874676 
-0.8282526 -0.28187796 -0.48429573 
0.42425263 -0.61798817 -0.6618916 
0.6889342 -0.08040662 -0.7203503 
0.62319046 -0.08661346 -0.77725923 
0.8132297 0.045118537 -0.5801913 
0.5275335 -0.26505315 -0.80712783 
0.23913948 -0.8090398 -0.53690493 
0.10397481 -0.4886015 -0.8662897 
0.34833774 -0.43952352 -0.82793725 
0.21279381 -0.20784867 -0.95473444 
0.017607892 -0.3801399 -0.9247614 
0.10494091 -0.8429284 -0.5276922 
-0.041311175 0.05014358 -0.9978873 
-0.7424551 0.22512634 -0.6309347 
-0.64459336 -0.15905768 -0.7477969 
-0.2805797 -0.9067045 -0.3149004 
-0.8423809 -0.44542336 -0.30330282 
0.4166097 -0.86017525 -0.2941683 
0.31548774 -0.84545594 0.43089634 
-0.47105256 -0.81525505 0.33685115 
-0.70036197 -0.7133109 -0.026092563 
-0.7372346 -0.6559197 0.16203274 
-0.5881687 -0.7405602 -0.32500502 
-0.8218663 -0.56717163 -0.053406492 
-0.44615278 -0.631945 -0.6337139 
-0.10965313 -0.7811422 -0.6146489 
0.023297625 -0.6223556 -0.78238785 
-0.272541 -0.47658297 -0.83581716 
-0.09614219 -0.21213174 -0.97250026 
0.616024 -0.1990831 -0.7621551 
0.20926233 -0.9515046 -0.22549546 
-0.2974675 -0.85673344 -0.42133227 
-0.81853205 -0.18913077 -0.54243416 
0.24309953 -0.7657341 -0.59544444 
-0.45624933 -0.5924422 -0.66396445 
-0.324176 -0.23285878 -0.9168898 
-0.15317619 0.13786659 -0.9785346 
0.2682455 -0.50966024 -0.8174907 
-0.004583721 -0.71083933 -0.7033395 
-0.18176575 -0.29885453 -0.9368283 
0.08261401 -0.7564564 -0.6488057 
-0.1064426 -0.83664113 -0.53730965 
0.37475818 -0.8440849 -0.3835063 
0.04641096 -0.8825216 -0.46797594 
-0.4175739 -0.8849875 -0.2059838 
-0.3251983 -0.105584 -0.93973297 
0.5394074 -0.7610498 -0.36033738 
0.37301704 -0.92140627 -0.108944274 
0.5222271 -0.845789 -0.10917792 
0.63449365 -0.70752764 0.3111634 
0.23317493 -0.7221719 0.65122753 
0.2829122 -0.95911926 -0.007137825 
-0.0028323627 -0.9785614 0.20593591 
-0.5500828 -0.80732656 -0.2136184 
0.5190554 -0.6311148 -0.57643354 
0.37246385 -0.3616632 -0.8546757 
0.097924255 -0.8349412 -0.5415572 
0.39399734 -0.4958811 -0.7738656 
0.36899048 -0.89845276 -0.23796771 
0.58631444 0.09061375 -0.8049997 
0.7775781 -0.26296422 -0.57115865 
0.65927106 -0.60416067 -0.44760662 
0.025789442 -0.18595201 -0.98222035 
0.6767369 -0.48153847 -0.5569093 
0.58491236 -0.7669528 0.26393354 
-0.03840991 -0.888674 -0.45692787 
-0.534332 -0.84501815 0.020826666 
-0.15224226 -0.9868742 0.053867962 
-0.4042371 -0.91464293 0.004567159 
-0.39674416 -0.9149211 0.07425335 
-0.6671225 -0.49687123 -0.55503756 
-0.64146304 -0.44473284 -0.6250904 
-0.02670649 -0.6372956 -0.7701567 
-0.11946645 -0.6739471 -0.72905636 
0.30075392 -0.5449937 -0.78264236 
0.63589627 -0.6198278 -0.45983636 
0.34398112 -0.8819344 0.32228678 
0.68189406 -0.13540995 0.7188079 
0.46129584 -0.8678507 0.18450336 
-0.23755835 -0.93473464 0.26426739 
-0.40505993 -0.6173731 0.6743716 
-0.58227825 -0.7114127 -0.3935023 
0.124998525 -0.2619287 -0.9569581 
-0.6242238 -0.5337942 -0.57044584 
-0.06520857 -0.7103565 -0.7008149 
-0.23581165 -0.34408244 -0.90884554 
0.13855214 -0.4963418 -0.8569996 
0.43939865 -0.86817837 -0.23064081 
0.18465002 -0.81225145 -0.55331 
0.34882334 -0.7319725 -0.585268 
0.2724895 -0.55453885 -0.78628004 
0.5735407 0.3645574 -0.7335865 
0.2981469 0.28337497 -0.91148615 
0.750323 0.42478263 -0.50653243 
0.79416525 -0.014876689 -0.60751975 
0.13213837 -0.48142245 -0.86647093 
0.86387455 -0.4205292 -0.27726513 
0.72951245 -0.28615057 -0.6212322 
0.5032109 -0.598278 -0.62357223 
0.0070389602 -0.833495 -0.5524823 
0.30547518 -0.8020184 0.5132752 
0.46163017 -0.8702622 -0.17187555 
0.12667187 -0.9864482 0.10428 
0.08263273 -0.81056386 -0.5797915 
0.26953468 -0.94390243 -0.19078591 
0.3615971 -0.65558505 -0.6629147 
0.3173162 -0.7641574 -0.5615815 
-0.21823315 -0.38644946 -0.8961201 
-0.6495569 -0.47397134 -0.5944974 
-0.6682107 -0.4924377 -0.55767345 
-0.19701637 0.57111907 -0.79687375 
-0.16040461 -0.23024444 -0.9598218 
-0.39807963 -0.5470548 -0.7363855 
-0.810613 -0.3288674 -0.48451316 
-0.13708982 -0.66908425 -0.7304333 
0.15880787 -0.34527138 -0.9249691 
0.045073576 -0.77562946 -0.6295771 
-0.35396385 -0.7547618 -0.55230814 
-0.056791022 -0.015261392 -0.9982695 
0.3708371 0.46303958 -0.80503064 
0.25300518 -0.43234715 -0.865485 
0.43649718 -0.17668313 -0.8821867 
-0.084634356 -0.63001996 -0.7719532 
-0.11863602 -0.60743785 -0.7854583 
-0.689781 -0.38884342 -0.61073965 
-0.39255062 -0.7635511 -0.5127318 
-0.33526132 -0.5458905 -0.76785636 
0.074384354 -0.96239233 -0.26128173 
-0.16544788 -0.96750635 -0.19120249 
-0.5876086 -0.7253742 -0.35853645 
-0.49614137 0.34077138 -0.79857296 
-0.4117134 -0.04343855 -0.9102775 
0.22851926 0.020826926 -0.9733166 
0.08391052 -0.4919528 -0.86656874 
0.24759424 -0.86701965 -0.43240494 
0.09758198 -0.98803306 0.11945039 
0.28669852 -0.8286595 -0.48075733 
-0.44570285 -0.79960424 -0.40247 
-0.14458838 -0.55407876 -0.8198115 
-0.22985737 -0.6251374 -0.74590135 
0.0987297 -0.7889075 -0.60652894 
-0.2766334 -0.40818217 -0.86997783 
0.37660494 -0.8152968 -0.43984067 
0.39271688 -0.643371 -0.6571509 
0.43276042 -0.74046403 -0.5142291 
0.88865656 -0.4499989 0.08826394 
-0.26946476 -0.76307243 -0.58746 
-0.005288604 -0.7962495 -0.6049454 
0.11165013 -0.90661824 -0.40691224 
-0.2819179 -0.39521316 -0.87425905 
0.5226763 -0.4361145 -0.7325392 
0.57759213 -0.79203653 -0.1976498 
0.31402582 -0.8492694 -0.4244163 
0.24419759 -0.862356 -0.44351974 
0.2906362 -0.85931486 -0.42084274 
0.29212645 -0.7759208 -0.5591146 
0.33657083 -0.42211252 -0.84174895 
0.41703075 -0.5438342 -0.72823745 
0.43174565 -0.7364066 -0.5208657 
0.9924792 0.107979715 -0.057667088 
0.9135881 0.40662953 0.0030383917 
0.07658194 -0.02054137 -0.9968517 
-0.24191096 -0.51936156 -0.8195991 
-0.12474338 -0.53277683 -0.83701146 
-0.5294034 -0.26632985 -0.8054816 
0.2157777 -0.73147064 -0.6468313 
-0.4842726 -0.5337545 0.69324327 
-0.62665164 -0.7715659 0.1095163 
-0.7658819 -0.3490189 0.54001 
-0.84704083 -0.30375504 0.43618193 
-0.9845973 -0.1132278 0.13322015 
-0.88652706 -0.45819333 -0.064255685 
-0.40937525 -0.0954099 -0.9073638 
-0.4382657 -0.077728204 -0.89547837 
-0.1901745 -0.7750671 -0.6025817 
-0.6627442 -0.19216603 -0.72376955 
-0.8616578 0.43421203 -0.2626894 
0.24634594 0.14660165 -0.9580301 
-0.54143625 -0.06427717 -0.8382811 
-0.46491885 0.29068998 -0.83627146 
0.30704334 -0.40920916 -0.85922784 
-0.30784094 -0.6749994 -0.6705295 
0.5725011 -0.3625569 -0.7353877 
0.7336585 0.27041352 -0.6233953 
0.76312447 0.073163435 -0.6420967 
0.29766983 0.46304306 -0.83485556 
0.30574363 -0.22367342 -0.9254681 
0.6075611 -0.20505689 -0.7673469 
0.099489324 0.09300381 -0.9906827 
0.11903525 -0.66045755 -0.74136806 
0.008871903 -0.47572693 -0.8795483 
-0.47977683 -0.7881751 0.38547918 
-0.5744419 -0.68746334 -0.44430923 
-0.3381371 -0.59234035 -0.7312977 
-0.6160516 -0.43327108 -0.65784246 
-0.9639117 -0.067502074 -0.25752214 
-0.48945513 -0.43127674 -0.75791436 
-0.12374009 -0.40419406 -0.90626466 
-0.3178105 -0.5410947 -0.77859676 
-0.49644148 -0.74822783 -0.4401147 
-0.09178149 -0.84696823 -0.52366114 
0.04338859 -0.65523756 -0.75417584 
0.016676461 -0.29363558 -0.95577204 
0.5557613 -0.65238684 0.51528716 
0.033365157 -0.97678965 0.21158671 
0.29158676 -0.8687101 0.40039974 
-0.023039298 -0.3572827 0.93371207 
-0.37371662 0.68991685 0.61996025 
-0.8832376 0.010761998 0.4688022 
-0.91767466 -0.39009672 0.07548416 
-0.99056274 0.081443295 -0.11023784 
-0.92775196 0.04893684 -0.3699751 
-0.6921725 0.25029957 -0.6769397 
-0.70408255 -0.11546495 -0.70066804 
-0.28398418 0.32951817 -0.90042806 
-0.51597065 0.7819143 -0.3498348 
-0.561174 -0.1490187 -0.81417274 
0.1608026 -0.80888456 -0.56555146 
0.33021516 -0.21917671 -0.9181065 
0.89103824 0.0007594475 -0.45392776 
0.31108454 -0.20996955 -0.9268976 
0.28065643 -0.1539281 -0.9473849 
-0.38721585 0.43133417 -0.81487113 
-0.1065143 0.51125175 -0.8528051 
0.32320446 0.82629836 -0.46126986 
0.19376534 0.7396981 -0.64443904 
-0.43340144 -0.14042766 -0.8901928 
0.13701648 -0.005079919 -0.99055576 
-0.23296672 -0.4775594 -0.8471503 
-0.45699075 -0.0435559 -0.88840437 
0.067658775 -0.20280655 -0.9768787 
-0.12081944 -0.88443625 -0.4507497 
-0.4763455 -0.7337361 -0.48448575 
0.05194387 -0.9230322 -0.38119984 
-0.37177333 -0.8508173 -0.37134165 
-0.17166576 -0.9850852 -0.011756571 
-0.9751513 -0.22099645 0.015512751 
-0.44146344 -0.47701174 -0.7599801 
-0.30290043 -0.034899686 -0.95238304 
0.2747955 -0.058959022 -0.9596934 
-0.3360997 0.29123434 -0.8956672 
-0.23109138 -0.30904254 -0.9225452 
-0.88139194 -0.4715978 -0.027274923 
-0.6855508 -0.14993577 -0.712418 
0.17475879 0.48343635 -0.85775805 
0.15365769 -0.8402447 -0.5199791 
0.39388108 -0.88475806 -0.24912013 
0.39484924 -0.8603218 -0.322398 
-0.663092 -0.74809504 0.02574619 
0.7368765 -0.6760033 -0.0057161646 
-0.349826 -0.7717918 0.5309983 
0.097697176 -0.9705503 -0.22019842 
0.46958855 -0.5840223 0.66212124 
-0.017503185 -0.75522465 0.65523237 
-0.891319 -0.4047533 0.20426774 
-0.22715528 -0.8932698 0.38790426 
-0.47637412 -0.8534402 -0.21144159 
0.15180779 -0.9210974 0.35851645 
-0.3966634 -0.4996526 -0.7700685 
0.5295985 -0.7653366 -0.36576706 
0.9347175 -0.23304966 -0.2683115 
0.07501028 -0.30638096 -0.94894904 
-0.13435276 -0.19149564 -0.9722545 
-0.34350076 -0.5614429 -0.75285393 
0.81044024 -0.5734029 0.119982526 
0.2976924 -0.44033805 -0.84704286 
0.23162468 0.19373828 -0.9533182 
0.36094585 -0.876443 0.31869373 
-0.7137455 -0.6971397 -0.06755617 
-0.3888301 -0.6265315 -0.6754772 
-0.47144517 -0.39096987 -0.79049486 
-0.7092264 -0.45260313 -0.54050756 
-0.45126072 0.18939762 -0.8720621 
0.046470355 -0.6635424 -0.74669415 
-0.063010216 -0.99674094 -0.050371222 
-0.23305205 -0.9162307 0.32589597 
-0.32087478 -0.8663757 0.38266504 
-0.795973 -0.57825446 0.17902192 
-0.39766023 -0.6617304 -0.6355937 
-0.2978808 -0.9013817 -0.31429017 
-0.028939484 -0.7639546 -0.6446208 
0.074228235 -0.54508215 -0.8350903 
0.1859216 -0.43979618 -0.87864244 
-0.12639754 -0.18400086 -0.9747653 
0.5456549 -0.547423 -0.63449883 
0.29786015 -0.35038665 -0.8879801 
0.18285899 -0.7813592 -0.5966913 
-0.26118022 -0.6249003 -0.7357205 
-0.36971563 -0.016063651 -0.9290061 
-0.59342355 -0.41823295 -0.6876989 
-0.20228751 -0.16972505 -0.9645067 
-0.28960294 -0.44242948 -0.84875584 
0.030367522 -0.69464386 -0.71871257 
-0.32680124 -0.8460929 -0.42110324 
-0.12321113 -0.48991156 -0.86302125 
-0.39550596 -0.70895886 -0.58391136 
-0.25987616 -0.7994433 -0.5416224 
-0.15331288 -0.56119806 -0.8133584 
0.4191325 -0.8641402 0.27854943 
0.31532052 -0.8039375 -0.50423956 
-0.0679927 -0.95751256 -0.28026175 
-0.38652498 -0.73083746 -0.5625612 
0.22006513 -0.51815546 -0.82649034 
0.10634122 -0.92315507 -0.369427 
0.49095282 -0.8682919 -0.07095374 
0.47174263 -0.6440582 -0.6022026 
-0.21616079 -0.96734196 0.13237852 
-0.45038062 -0.14399157 -0.8811492 
-0.12140339 -0.64251447 -0.7565953 
0.10354653 0.20362584 -0.9735578 
-0.060200714 -0.27725497 -0.9589086 
-0.109418385 -0.13247432 -0.9851285 
0.05077516 -0.05963273 -0.9969282 
0.5781975 -0.028793912 -0.8153886 
0.37798882 -0.615727 -0.69137883 
0.002941373 -0.4396703 -0.8981545 
0.80079496 -0.3179901 -0.5075528 
0.5829462 -0.74434495 -0.32576746 
0.22478293 -0.6704565 -0.70707905 
0.2815574 -0.8811562 -0.37985432 
0.5035899 -0.80234605 -0.3203717 
-0.01778593 -0.9534446 -0.30104357 
-0.74218714 -0.6129907 -0.27092564 
-0.33003366 -0.80518085 -0.49270833 
-0.2458649 -0.6493572 -0.71964276 
-0.3903865 -0.8952216 -0.21488774 
-0.42632288 -0.73003966 -0.5341264 
-0.6600869 -0.26094815 -0.7044085 
-0.0143064475 0.00082259695 -0.9998973 
0.10128155 -0.2383901 -0.96587384 
0.3735534 -0.22111738 -0.900869 
0.21461439 -0.18234405 -0.95952666 
0.31709388 -0.9388106 -0.13448542 
0.46662477 -0.87988144 -0.08983263 
0.5998493 -0.7231339 0.34242994 
0.3081331 -0.9433817 0.12282151 
-0.38852498 -0.8849459 0.2567472 
-0.3314692 -0.785829 -0.5221121 
-0.3091901 -0.21693613 -0.92592674 
-0.5046383 -0.09903062 -0.8576323 
-0.4087498 -0.2929841 -0.8643402 
-0.09900148 -0.48798388 -0.86722 
0.192433 -0.95656514 -0.2189813 
0.14529552 -0.94799596 -0.28318343 
-0.4361521 -0.49270675 -0.7530017 
-0.20786619 -0.4155521 -0.8854988 
-0.3117915 0.04386511 -0.94913745 
0.40856776 -0.12781957 -0.9037337 
0.5086686 0.09074513 -0.8561669 
0.1723863 0.50498474 -0.8457384 
-0.14138919 0.07335715 -0.9872325 
0.36548048 -0.19939652 -0.90921134 
0.8528943 -0.2393027 -0.4640105 
0.6966667 -0.20879042 -0.6863397 
-0.31265092 -0.55567205 -0.7703752 
-0.014933031 -0.69389194 -0.7199244 
0.24205165 -0.9394796 0.24246494 
0.31861708 -0.9044813 0.2835432 
-0.103552386 -0.9689432 0.2245577 
0.042957895 -0.89482474 0.44434598 
-0.2871468 -0.51774275 -0.8059089 
-0.53140503 -0.29042882 -0.7957763 
-0.013405454 -0.47733572 -0.87861884 
0.06555612 0.43763432 -0.8967601 
0.0586236 0.35343623 -0.93361986 
-0.27589288 -0.2882406 -0.9169518 
-0.5315063 -0.5958378 -0.60206187 
0.1219108 -0.3486538 -0.9292891 
-0.37816736 -0.085287064 -0.92180014 
0.13015631 -0.29086125 -0.94787085 
0.020692268 -0.90188015 -0.43149063 
-0.5800002 -0.27579984 -0.7665078 
-0.3841672 -0.31720585 -0.86706185 
-0.8172689 -0.26667258 -0.5108397 
-0.9724885 -0.025613187 -0.23153856 
-0.2013507 0.5846958 -0.7858682 
-0.37412196 0.18180346 -0.9093846 
0.363259 -0.45636925 -0.8122624 
-0.5723318 -0.53007704 -0.6256634 
0.08846371 -0.2132571 -0.9729828 
-0.27013925 -0.83794403 -0.4742094 
-0.20430954 -0.9785163 -0.02763312 
0.102160625 -0.7887466 -0.60617006 
-0.024265645 -0.9770888 -0.2114445 
-0.13113108 -0.83887625 -0.5282911 
-0.7488521 -0.31474862 -0.5832272 
-0.5467458 0.035954934 -0.83652645 
-0.031230541 0.11168604 -0.9932527 
0.8182514 -0.24072814 -0.52202946 
0.4967169 -0.4204191 -0.75928926 
0.1277495 -0.12670714 -0.9836796 
-0.4578868 -0.2892349 -0.84064436 
-0.39962366 -0.78004086 -0.4814947 
-0.23684819 -0.5652448 -0.7901906 
0.3862218 -0.114873394 -0.915225 
0.55356026 -0.37563935 -0.74328065 
0.46055904 -0.80346507 -0.3772657 
-0.04643143 -0.9816537 -0.18493265 
0.43451285 -0.24894911 -0.86557674 
0.7147319 -0.18238308 -0.6751998 
0.18183087 -0.1302518 -0.97466505 
0.20756787 -0.85902834 -0.46795943 
-0.29371005 -0.89821047 -0.3270357 
0.36373338 -0.38390425 -0.8487142 
0.3738465 -0.25349042 -0.8921779 
0.05814984 -0.24813972 -0.9669774 
0.7898991 0.15259336 -0.59394854 
0.22375232 -0.54425985 -0.80852723 
0.75066274 -0.3693801 -0.5477808 
0.729245 -0.058812756 -0.68172044 
0.19565704 -0.42450953 -0.8840306 
0.64532727 -0.3937585 -0.6546045 
-0.31489387 -0.6450993 -0.69619596 
0.45895573 -0.7422045 -0.4883566 
0.6548705 -0.2126225 -0.72521466 
0.67373365 -0.51619345 -0.5287981 
0.18976015 -0.19946712 0.9613553 
0.29116327 0.63249177 -0.7177592 
0.67211497 0.10468117 -0.73300976 
-0.09439874 -0.16485997 -0.9817893 
-0.29484257 0.018152388 -0.9553734 
0.24230152 -0.7941438 -0.55733806 
0.009748621 -0.99969536 0.022678956 
-0.8615158 -0.44353077 -0.24712545 
-0.75330126 0.21619117 0.62112695 
-0.9842187 -0.11178592 -0.13717686 
-0.9367528 -0.2913275 -0.19396518 
-0.8088596 0.06148866 -0.58477795 
-0.30877468 0.46816066 -0.82793957 
-0.76647276 0.28463134 -0.57576436 
-0.8787701 -0.013629698 -0.47705072 
-0.6771561 0.13966374 -0.72246367 
-0.86766154 -0.42861193 -0.25190327 
-0.73667365 0.19407076 -0.6478029 
-0.79983 0.031300046 -0.5994101 
-0.078699976 0.07446369 -0.9941134 
0.084145114 -0.74764574 -0.6587454 
-0.37680805 -0.70309454 -0.6030537 
0.31678435 -0.12384338 -0.94037795 
0.25546333 -0.28808808 -0.9228997 
0.093643725 0.0026059893 -0.99560237 
0.33381924 0.61096835 -0.7178318 
-0.32961565 -0.14609373 -0.9327434 
0.33027494 -0.23093843 -0.9151973 
-0.208646 -0.7279763 -0.653083 
0.29369858 -0.34182423 -0.8926911 
0.5511715 -0.7620564 -0.33982378 
-0.42382684 -0.89293414 -0.15178771 
-0.1458459 -0.33926177 -0.9293172 
0.02349967 -0.3703231 -0.9286058 
-0.42257565 -0.17747405 -0.8887816 
-0.44308853 -0.59178245 -0.6733989 
-0.22038497 -0.2028677 -0.9540835 
0.33314276 -0.621098 -0.7094035 
0.046722434 -0.81413233 -0.57879674 
-0.59551984 -0.65066695 -0.47115675 
-0.48277536 -0.11103766 -0.8686764 
-0.47175655 -0.580311 -0.663841 
0.25042686 -0.4578073 -0.85305274 
0.11484366 -0.9675629 0.2250179 
0.16323496 -0.12739481 0.9783277 
-0.96037436 -0.25282317 0.117309466 
-0.87035996 -0.30016392 0.39035285 
-0.9547598 -0.03876494 0.29484075 
-0.9277362 0.3394365 -0.15520442 
-0.81556886 0.5331485 -0.22494443 
-0.73399913 0.58142674 -0.35098183 
-0.8172159 0.30023813 -0.49195048 
-0.73551154 -0.3221558 -0.59601885 
-0.53352517 -0.13955437 -0.8341916 
-0.1996672 -0.27568662 -0.94028187 
-0.17958516 -0.16643769 -0.96956056 
-0.05945776 0.2740571 -0.95987374 
0.27967 -0.1085361 -0.9539416 
0.42838484 -0.1819846 -0.8850808 
0.15690756 -0.01599495 -0.98748386 
0.31342855 0.5018724 -0.80615544 
0.17015526 0.78214455 -0.59941405 
-0.07411592 0.6236631 -0.77817166 
0.24169128 0.8806186 -0.40754908 
0.23182772 0.83972913 -0.49103063 
-0.12926626 0.76137584 -0.63529295 
-0.41370723 0.6133915 -0.6727535 
0.24659862 0.24303605 -0.93814856 
-0.27923748 0.534582 -0.79765195 
-0.87071407 -0.22232276 -0.43866828 
0.07055424 -0.6559428 -0.7515059 
-0.66591686 -0.71791965 -0.20284517 
-0.4367227 -0.7805882 0.4471636 