# OOMMF: rectangular mesh v1.0
# Segment count: 1
# Begin: Segment
# Begin: Header
# Desc: Time (s) :  6.340000000000013e-07
# Title: m
# meshtype: rectangular
# meshunit: m
# xbase: 2e-09
# ybase: 2e-09
# zbase: 5e-10
# xstepsize: 4e-09
# ystepsize: 4e-09
# zstepsize: 1e-09
# xmin: 0
# ymin: 0
# zmin: 0
# xmax: 1.024e-06
# ymax: 1.024e-06
# zmax: 1e-09
# xnodes: 256
# ynodes: 256
# znodes: 1
# ValueRangeMinMag: 1e-08
# ValueRangeMaxMag: 1
# valueunit: 
# valuemultiplier: 1
# End: Header
# Begin: Data Text
-0.7190127 -0.109448105 -0.68632495 
-0.44938695 0.06934185 -0.890642 
-0.46251276 -0.63422257 -0.6195513 
0.10429439 -0.46693262 -0.8781212 
0.18657146 -0.6395212 -0.7457907 
0.18866801 -0.5592876 -0.8072187 
0.08583752 -0.914786 0.3947133 
0.044609945 -0.7886826 -0.6131802 
0.129767 -0.88498557 0.44717014 
-0.47960538 -0.79935664 0.36194998 
0.33541325 -0.92119753 -0.19721338 
0.014006974 -0.9107463 -0.41272873 
-0.103276595 -0.62143075 -0.7766323 
0.27015132 -0.16085659 -0.9492858 
-0.7136896 0.2783586 -0.64277804 
-0.60811687 0.636092 -0.47495353 
-0.13338487 -0.9070136 -0.39941823 
-0.51886046 -0.61637783 -0.59233624 
-0.18452369 -0.21935701 -0.95803636 
-0.62685204 -0.68478215 -0.37165844 
0.035410337 -0.83360463 -0.5512255 
0.2635741 -0.8506387 -0.45490932 
-0.08140892 -0.9057975 -0.4158166 
0.3834007 -0.84704417 -0.3681306 
0.18086484 -0.17494547 -0.9678234 
-0.36711895 -0.9299712 -0.019425485 
-0.81744206 -0.56362647 -0.1188013 
-0.92739797 -0.1761666 -0.3299974 
-0.16120082 -0.8152086 -0.55628157 
-0.3756016 -0.5763798 -0.72574776 
-0.6168469 -0.68778616 -0.38268808 
-0.46608886 -0.5280154 -0.7099021 
-0.2709382 -0.7497796 -0.60367465 
-0.8534357 0.0365248 -0.519917 
-0.6354334 0.6609552 -0.3992027 
-0.20048481 -0.59956735 -0.7748064 
-0.47599047 -0.3447184 -0.80907494 
-0.10157599 -0.34107608 -0.9345317 
-0.05522777 -0.8702328 -0.48953536 
0.7094168 -0.44233096 -0.54869956 
0.2881683 -0.94873536 -0.12984744 
0.7598791 -0.5492024 -0.34779382 
0.43944854 -0.7576909 -0.48248273 
0.73563886 -0.6673666 0.116005346 
0.20056632 -0.94420743 -0.2612384 
-0.162641 -0.93942314 -0.30171528 
0.3121879 -0.90090847 -0.3015009 
0.49280557 -0.68550134 -0.535939 
0.49128014 -0.74824125 -0.44584635 
0.8288594 -0.23360702 -0.50835013 
0.7757994 -0.63094056 -0.007028971 
0.75433373 -0.1230343 -0.6448591 
0.37213475 -0.88617545 -0.2760597 
0.55099976 -0.8344982 -0.0034629132 
0.014141158 -0.9679836 -0.2506148 
0.438894 -0.8567422 -0.27085948 
0.14017867 -0.97636217 0.16452034 
0.28846034 -0.5361872 0.79328054 
-0.17958741 -0.9293403 0.32260674 
0.3605457 -0.70751387 0.6078084 
0.5223019 -0.81283915 0.25786293 
0.26443034 -0.7413572 -0.6168194 
0.16350643 -0.9814592 0.10001815 
0.4057346 -0.27449974 -0.87179667 
0.26778173 0.3826165 -0.88424975 
0.44688314 0.22953662 -0.86464363 
-0.12130043 -0.74841833 -0.65204006 
-0.02724971 -0.3983943 -0.91680944 
-0.22149588 -0.13808024 -0.96533597 
0.040121824 -0.11278294 -0.99280936 
0.29312253 0.48899755 -0.82155985 
0.7505968 0.44517896 -0.488283 
0.80774885 -0.49294847 -0.32333195 
0.007489302 -0.9038051 -0.42787898 
-0.2048675 -0.9686229 -0.14070913 
0.37210134 -0.6964968 0.61354125 
0.50633764 -0.065901875 -0.8598135 
0.6530283 -0.6206468 -0.43399513 
0.8666105 0.049569964 -0.49651706 
0.923276 -0.05763512 -0.37978908 
0.042821057 -0.54445225 -0.83769816 
0.006072583 -0.6824099 -0.73094463 
0.3328655 0.03771883 -0.9422197 
-0.31074712 -0.7756149 -0.5494158 
0.23305604 -0.94950664 -0.21005277 
-0.25294212 -0.60452276 -0.7553626 
-0.22305858 -0.97452575 0.023334058 
-0.5177511 -0.6675321 -0.53510255 
0.22502697 0.019667957 -0.974154 
0.65704477 0.059380975 -0.7515092 
0.16952826 0.21117711 -0.9626341 
0.1499187 0.15322821 -0.9767526 
0.70060503 -0.30160025 -0.6466761 
0.5287888 -0.67244565 -0.5178797 
0.6022479 -0.7140625 -0.3569487 
0.81917 -0.5662833 -0.0910152 
0.59056836 0.07928494 0.8030834 
0.2032255 -0.086713605 0.97528464 
-0.39082223 -0.58104616 0.71389306 
-0.112229906 -0.86125934 0.49561775 
-0.16509528 -0.6265074 0.7617297 
-0.62511146 0.1008775 0.7739893 
-0.6277023 -0.7636429 -0.15112664 
0.3017698 -0.25140345 -0.91963655 
-0.40097192 0.23227392 -0.88615483 
0.07661203 -0.22472233 -0.9714065 
0.5228325 0.12630269 -0.8430265 
0.819741 -0.55637515 -0.13590941 
0.79580086 0.09819632 0.5975437 
0.21913421 -0.0056964518 0.97567815 
-0.32280028 -0.64985514 0.68810487 
0.41914585 -0.6120521 0.6706035 
-0.44152877 -0.73900485 0.50884604 
-0.47161004 -0.37082785 0.8000442 
-0.00052187213 -0.86704856 0.49822327 
-0.67327785 -0.69941187 0.23983352 
-0.4942141 -0.55391556 0.6700224 
-0.4878692 -0.8334638 0.25946468 
-0.94067526 -0.31450188 0.12735307 
-0.5327299 -0.8462821 -0.0023107554 
-0.80480826 -0.3393183 -0.48697737 
-0.4578317 -0.5700046 -0.68226457 
0.11521678 -0.1873306 -0.97551644 
-0.573192 0.030512754 -0.8188529 
-0.31314412 -0.37549347 -0.87232184 
-0.70827645 -0.3420754 -0.61751837 
0.96047837 -0.24219228 -0.13720153 
0.46897662 -0.56814206 -0.67622155 
-0.09723267 -0.96923554 -0.2261156 
0.7911482 -0.40086064 -0.46194738 
0.6626147 -0.19360624 -0.7235043 
0.90906376 -0.40627712 -0.09242381 
0.4722094 -0.7868489 0.39735 
-0.41911358 -0.64937115 0.6345557 
-0.29392293 -0.9512227 -0.09372649 
0.5705355 -0.501385 -0.6504632 
0.24263345 -0.76750207 -0.5933546 
0.50705075 -0.369318 -0.7787835 
-0.37797004 -0.8961043 -0.23267102 
-0.1010499 -0.9081014 -0.40637532 
0.32803 -0.78276336 -0.52884597 
-0.2437294 -0.9414425 -0.23298524 
-0.17948985 -0.9263202 -0.33123165 
-0.71065354 -0.68223697 0.17182663 
-0.35631675 0.027802244 -0.9339515 
0.6722245 -0.53329366 -0.51352906 
0.61741555 -0.14732128 -0.77271897 
0.83903164 -0.11786735 -0.53116214 
0.73080915 -0.59118545 0.3412005 
0.4487655 -0.8650176 0.22439699 
0.23574747 0.03929695 0.9710195 
0.018595073 -0.926631 0.37551206 
0.059971243 0.02718029 -0.99783003 
0.012093315 -0.8001396 -0.59969187 
-0.6040791 -0.7440922 -0.28533354 
0.057999644 -0.93105584 0.36023778 
0.37963504 -0.9174127 0.11929486 
0.88179594 -0.12563619 -0.45458934 
0.95561427 0.29102027 -0.045920048 
0.39986128 0.6446242 0.6515909 
0.14489353 0.16380343 0.9757942 
-0.2962498 0.15833193 0.9418955 
-0.19449018 -0.4685282 0.8617743 
-0.95910627 0.22373848 0.17336749 
-0.22467329 -0.8498202 -0.47678882 
-0.09510499 -0.9851499 -0.14295004 
-0.5714112 -0.78750604 -0.23091877 
-0.54008627 -0.7640731 -0.35284474 
0.2040832 -0.8676476 -0.4533629 
0.47502965 -0.85159516 -0.22165859 
0.11097557 -0.6311478 -0.7676828 
-0.39420414 -0.15397125 -0.90603304 
0.21400896 0.13869357 -0.9669356 
0.21030714 -0.17075953 -0.962607 
-0.13156159 -0.056980986 -0.9896691 
-0.047109194 0.5856558 -0.80918974 
-0.06844856 -0.002457645 -0.9976517 
-0.0352565 -0.86953884 -0.49260452 
0.3646865 -0.53666335 -0.7609181 
0.6720185 -0.092121504 -0.7347821 
0.3784888 0.09899412 -0.9202969 
0.62491465 -0.2404343 -0.74274695 
0.28704622 -0.7663655 0.5747074 
0.51655483 -0.60810226 0.6028124 
-0.38155648 -0.83857936 0.38884363 
-0.21437208 -0.32980484 -0.9193876 
-0.39811644 -0.15495934 -0.90415215 
0.6985245 -0.36922392 -0.6129741 
0.39859775 -0.747639 -0.5311834 
0.3570541 0.35346055 -0.864626 
0.037988823 -0.029860392 -0.9988319 
0.3562067 -0.37954235 -0.85385275 
-0.12412444 -0.6810876 -0.7216044 
-0.43418518 0.016934087 -0.9006645 
-0.14535363 -0.3514771 -0.92484397 
-0.22082129 -0.049077053 -0.97407883 
0.19774775 0.16441375 -0.9663664 
0.11093944 -0.15224719 -0.98209643 
0.20684308 -0.3009624 -0.9309338 
0.3345261 -0.37051895 -0.8664918 
0.06950452 -0.40747872 -0.910566 
0.42141864 -0.89936066 -0.11643366 
-0.03280756 -0.82680357 -0.5615331 
0.25650924 -0.7843485 -0.56480134 
0.44171345 -0.3819491 -0.81179065 
-0.6075218 -0.24166948 -0.75664604 
0.09136449 -0.35862967 -0.92899805 
0.16894822 -0.70920974 -0.68445456 
0.47155586 -0.23787458 -0.8491471 
-0.15778387 -0.9122468 -0.3780345 
-0.39167342 -0.86743844 -0.30682692 
0.5088572 -0.21932477 -0.8324429 
-0.48291454 0.43072486 -0.76241046 
-0.20552826 0.39661673 -0.89468056 
0.5572602 -0.1517464 -0.8163543 
0.94921887 -0.20730792 -0.23665813 
0.49362135 -0.3412183 -0.7999426 
-0.7516547 -0.5427018 -0.3748203 
-0.73068076 0.18890099 -0.6560657 
-0.49199706 0.39033037 -0.7781909 
-0.39206323 -0.05706981 -0.9181664 
-0.62332565 0.3304579 -0.70870495 
-0.98924094 0.062006842 -0.13250537 
-0.8732047 -0.16876504 -0.45720005 
-0.5998412 0.5617257 -0.5697849 
-0.22352873 -0.5490801 -0.80532354 
0.04211392 0.043019295 -0.99818623 
-0.52270937 0.7355519 -0.43097377 
-0.9436562 0.21723633 -0.2496428 
-0.43401235 -0.4893431 -0.7564236 
-0.1999803 -0.725664 -0.6583461 
-0.5383848 0.20991585 -0.8161356 
-0.039249364 -0.2879779 -0.9568324 
0.03957923 -0.83685374 -0.54599386 
0.45365882 -0.39203206 -0.8003154 
0.45401403 -0.3628967 -0.8137427 
0.13034086 -0.8177095 -0.5606804 
0.5983009 -0.7759801 -0.19972709 
0.9920351 -0.1254833 -0.0109774275 
0.64564675 0.1790445 -0.74235 
0.6737267 0.049930584 -0.737292 
0.3958963 0.30907628 -0.86471844 
0.53880197 0.06614198 -0.8398319 
0.5343309 -0.38819394 -0.75086343 
0.5345193 -0.62183726 -0.5723702 
0.81385565 0.082597315 -0.5751666 
0.1278973 -0.18469907 -0.97443753 
0.47295514 -0.18989941 -0.86037886 
-0.10465709 0.070410796 -0.99201274 
-0.66513264 -0.114426345 -0.73790604 
-0.52807534 -0.19761437 -0.8258844 
0.2592797 -0.12697631 -0.95741904 
0.30863333 0.6564494 -0.68834573 
0.44541982 -0.29100186 -0.84671074 
0.13425119 0.41245165 -0.9010329 
0.9070133 0.35150242 -0.23189032 
-0.50989586 -0.50162786 -0.69883895 
-0.26614413 0.12371791 -0.95596087 
-0.80505013 -0.26595962 -0.53024524 
-0.32460293 -0.33596653 -0.88417166 
0.19730276 -0.45118198 -0.8703485 
0.4002883 -0.18353039 -0.8978228 
0.22409791 -0.74671614 -0.626255 
0.4713158 -0.86028486 -0.19434865 
0.22801395 -0.9462704 0.22930777 
0.06511502 -0.9897211 0.12732708 
-0.2091505 -0.914042 -0.347539 
-0.15018734 -0.9558211 -0.25268507 
-0.31459522 -0.73731434 -0.5978273 
-0.1544451 0.102925986 -0.98262554 
-0.017332528 0.52841485 -0.8488094 
-0.25333723 -0.34155235 -0.90507585 
-0.8318239 0.08071713 -0.5491393 
-0.37290928 -0.7406117 -0.55895716 
-0.9629787 -0.04251887 -0.26620358 
-0.7001261 -0.30769828 -0.6443177 
-0.6149065 -0.6808677 -0.39788094 
-0.25302756 -0.7458304 -0.6162095 
0.031792924 -0.5303034 -0.8472117 
0.16281076 -0.78428656 -0.5986546 
0.3579716 -0.06858693 -0.93121016 
0.019325823 -0.68482655 -0.7284499 
-0.18099941 -0.7520304 -0.63378984 
-0.2944596 -0.22084133 -0.9297972 
-0.557535 -0.027277851 -0.8297052 
-0.16753483 -0.48837233 -0.85640216 
-0.39125618 -0.8568195 -0.3358261 
-0.41760436 0.12118484 -0.9005115 
-0.46235877 -0.25699875 -0.8486319 
-0.60201436 -0.64204407 -0.47471905 
-0.5509646 -0.0660083 -0.831914 
-0.52016777 0.018149756 -0.8538713 
0.6265738 -0.53984123 -0.5621181 
-0.3358531 -0.8349414 -0.43597662 
-0.0063007334 -0.6034545 -0.7973725 
0.11528076 -0.71921784 -0.6851541 
0.4817962 -0.79513645 -0.36828053 
0.29323816 -0.93766147 -0.18655424 
0.0576234 -0.73798984 -0.672347 
-0.014881838 -0.8595471 -0.51083976 
0.15249175 -0.81621224 -0.55726475 
-0.09350087 -0.5875947 -0.803735 
-0.35603762 -0.57318425 -0.738036 
0.02360149 -0.38368642 -0.9231618 
0.14433756 -0.9107493 -0.3869139 
0.4185623 -0.89579135 -0.14954436 
0.007197327 -0.69687504 -0.7171565 
0.4618123 -0.32668757 -0.824624 
0.5402769 -0.63417757 -0.5531001 
0.88989925 -0.39773548 0.22335158 
0.38774937 -0.8756617 -0.28786653 
0.1977806 -0.8968858 -0.39557397 
-0.017884804 -0.862108 -0.50640905 
0.52369606 -0.8337059 -0.17514801 
0.6974504 -0.60161036 -0.3893945 
0.017529925 -0.8784277 -0.47755378 
-0.15407331 -0.85796624 -0.49005646 
0.0661923 -0.74546796 -0.6632467 
0.003765727 -0.9189402 -0.39437917 
0.27533966 -0.19461992 -0.941441 
-0.044575386 0.06759944 -0.9967163 
-0.47892317 -0.13775419 -0.8669812 
-0.09884666 -0.76923776 -0.6312707 
-0.3575578 -0.49088407 -0.7944717 
0.14881954 0.24034636 -0.95921135 
0.41587746 0.39738244 -0.81800556 
0.19440421 0.7253826 -0.6603235 
0.11281369 0.1595735 -0.98071885 
-0.27892873 -0.088016465 -0.9562698 
-0.5673546 -0.211767 -0.7957785 
-0.49372956 -0.4185379 -0.76227105 
0.6129239 -0.46194988 -0.64103556 
0.15053955 0.20697281 -0.96669555 
0.66734487 -0.47625512 -0.5725661 
0.7698148 0.25659078 -0.58441967 
0.73112756 -0.3644 -0.5767714 
0.48497337 -0.4408997 -0.75525385 
0.1850293 -0.98265845 -0.012108968 
0.6791779 0.030545643 -0.7333379 
0.58939224 -0.15735246 -0.7923744 
0.4098894 -0.38482425 -0.82698315 
0.41330856 -0.3995877 -0.8182334 
-0.21796793 -0.97522 -0.037895154 
-0.55590594 -0.59735227 -0.5780475 
-0.21887442 0.29262498 -0.9308409 
-0.078293175 -0.2417541 -0.9671739 
0.54735774 -0.17750877 -0.817857 
-0.100085504 -0.11819676 -0.98793346 
0.047306474 -0.49685246 -0.8665447 
0.73164386 -0.67357326 -0.10486367 
-0.12397739 -0.95921713 -0.25403196 
0.37846047 -0.92255104 -0.075281784 
-0.0649712 -0.90274835 0.42523423 
-0.143986 -0.56333476 0.813586 
-0.53180045 -0.614602 0.5826257 
-0.85237056 -0.5126405 -0.103268564 
-0.6355038 -0.7703873 -0.0513662 
-0.41554785 -0.9051826 0.08924363 
-0.833929 -0.5510263 0.030535214 
-0.21225698 -0.5010919 -0.8389601 
-0.1715862 0.05475372 -0.9836464 
0.10237732 -0.15092781 -0.9832293 
0.1457166 -0.45396158 -0.87902546 
0.67344403 -0.66325617 -0.32644203 
0.6756229 -0.6609017 0.3267151 
0.2952116 -0.85766053 -0.42103267 
0.36479154 -0.9065067 -0.21253872 
0.6937829 -0.63408726 0.3414654 
0.27996302 -0.82980525 0.48274642 
0.26454756 -0.9592754 0.09902259 
0.49375546 -0.8693127 -0.02238823 
-0.24549057 -0.8893882 0.3856462 
-0.8518528 -0.49126112 0.18168524 
-0.41681188 -0.5554591 -0.7195368 
-0.5662244 -0.48848346 -0.6639081 
-0.21260427 -0.2688803 -0.9394162 
-0.23303238 -0.46128985 -0.85610026 
0.20759141 -0.75112325 -0.6266735 
-0.43022913 -0.7603224 -0.48663422 
-0.18322532 -0.9176659 -0.35258743 
-0.5873447 -0.24177997 -0.7723785 
-0.7187938 -0.13549285 -0.68189234 
0.2741915 -0.026313461 -0.9613151 
0.4836972 -0.1839084 -0.85569555 
-0.32629898 -0.72007614 -0.6123883 
-0.08903358 -0.2980173 -0.9503993 
-0.6086702 -0.03195465 -0.79277974 
0.20892261 -0.8147189 -0.5409107 
-0.04222293 -0.8918278 -0.45040023 
-0.53597814 -0.7658366 0.35527694 
-0.77056426 -0.47425795 -0.42580527 
-0.17095737 -0.22419047 -0.9594334 
0.23252197 0.18001969 -0.9557858 
0.37453252 0.10432441 -0.92132616 
0.37269467 -0.21942423 -0.9016383 
-0.20128624 -0.12870842 -0.9710397 
0.011013941 -0.77686703 -0.6295685 
0.047997 -0.932032 -0.3591835 
-0.27576476 -0.5963111 -0.7539012 
-0.36975908 -0.678003 -0.63528746 
-0.1968305 -0.30556986 -0.9316034 
-0.4401552 -0.34531918 -0.8288655 
-0.013208807 -0.42009172 -0.9073856 
0.6391171 -0.7473382 -0.18170011 
0.14809464 -0.79934424 -0.5823373 
0.35979897 -0.92478305 0.12377798 
-0.26142502 -0.738017 0.62208354 
-0.8919811 -0.32184282 0.31746936 
-0.33892298 -0.32815924 -0.8817272 
-0.17667107 -0.8597608 -0.47916472 
-0.3854897 -0.45218638 -0.80431664 
-0.14312056 -0.86004114 -0.48974043 
0.04018996 -0.75336933 -0.65636855 
0.5703103 -0.7176369 -0.39967924 
0.88392365 -0.4618503 0.07330321 
0.4859155 -0.3007848 0.82061857 
0.007845126 -0.9859378 0.16692828 
0.15913114 -0.7082705 0.6877719 
0.062596075 -0.96629006 0.2497304 
-0.40119964 -0.9083883 0.11776907 
-0.65025634 -0.73756796 0.18209969 
-0.3799071 -0.7629579 -0.52303535 
-0.53370166 -0.8405029 0.09336764 
-0.30917704 -0.4471407 -0.83933 
0.082311824 -0.7998041 -0.5945908 
-0.26367486 -0.8127677 -0.51950383 
0.22790976 -0.36686 -0.9019262 
-0.42519635 -0.1709642 -0.8888079 
-0.51551366 -0.11510292 -0.8491155 
0.15072604 -0.049279455 -0.9873466 
0.35027006 -0.37777346 -0.857087 
-0.2475504 -0.5598361 -0.79076064 
0.3162395 -0.028013943 -0.9482657 
0.009005615 -0.67941594 -0.7336981 
-0.11294141 -0.19729762 -0.9738162 
0.56726164 -0.10064241 -0.8173649 
-0.26255888 -0.044042602 -0.9639104 
0.23779736 0.085668415 -0.96752954 
0.8493304 -0.5204676 0.08804192 
0.6692218 -0.72105247 0.17951496 
0.4845848 -0.65611637 -0.57852316 
0.6145628 -0.22764137 -0.7553092 
0.03822718 0.085765414 -0.9955818 
0.3419691 -0.17733201 -0.9228275 
0.45233813 -0.2430084 -0.8581009 
0.5754502 0.52609813 -0.6261612 
0.45340055 0.6965319 -0.5561217 
0.48597077 -0.050025593 -0.8725422 
-0.085016534 0.30166388 -0.94961625 
0.097416826 -0.19381262 -0.97618985 
0.46563068 0.25744686 -0.84670496 
0.31628984 0.31492004 -0.8948665 
0.35658395 0.119313195 -0.92661333 
-0.18312348 0.107476294 -0.97719735 
-0.13249339 -0.38882488 -0.91173506 
0.31440225 -0.3779774 -0.8707953 
0.72496176 0.19779961 -0.65977705 
-0.19563276 -0.7614084 -0.61804944 
0.19692409 -0.8604305 -0.46997926 
0.2507932 -0.45890862 -0.8523531 
-0.5594697 -0.10065602 -0.82271636 
0.19817255 0.16155826 -0.9667609 
0.3035645 -0.22489259 -0.9258899 
-0.52896637 -0.16108297 -0.8332149 
0.26727584 -0.14325196 -0.9529126 
-0.4215319 -0.2725725 -0.86487865 
-0.22747438 -0.56854165 -0.79057944 
0.13662326 -0.20777173 -0.96858925 
0.19686694 -0.1573258 -0.96772516 
0.08725676 -0.060902257 -0.99432254 
-0.4295939 -0.37613145 -0.8209594 
0.4889161 0.010631725 -0.8722661 
-0.66512454 -0.42431554 -0.6144638 
-0.6514881 -0.11014665 -0.7506205 
-0.6483438 -0.70840025 -0.27896145 
-0.87397826 0.4012936 -0.27409005 
-0.2360832 0.22173065 -0.94609743 
-0.569218 0.33435205 -0.7511323 
-0.9448595 -0.10581775 -0.30990845 
-0.7862424 -0.54352003 -0.29395363 
-0.36809695 0.25803834 -0.8932642 
0.37438124 0.44797686 -0.811884 
-0.36217287 0.5934596 -0.7187744 
-0.34538913 0.47751638 -0.807889 
-0.72963595 -0.56556785 -0.3844014 
-0.5522621 -0.34664577 -0.75818425 
-0.0662832 -0.6967381 -0.71425664 
-0.1114434 0.06675913 -0.99152595 
0.37257338 0.01942253 -0.92779946 
0.7293536 -0.29090062 -0.6192093 
0.09797378 0.26993895 -0.9578801 
0.12204903 -0.22018889 -0.9677918 
0.51675 -0.21738075 -0.8280793 
0.8008868 -0.5188515 0.29895398 
0.81239045 -0.044713497 -0.5813971 
-0.11529267 0.22900021 -0.96657467 
0.14996089 0.2114198 -0.96582264 
0.6643285 0.10953346 -0.7393714 
0.76740277 -0.40402335 -0.49785364 
0.60456336 -0.65930724 -0.44700906 
0.33065745 -0.72167695 -0.6081514 
0.61151785 0.09218143 -0.78584254 
0.51424474 -0.20486237 -0.83281684 
0.9240071 -0.2834198 -0.2566793 
-0.09348422 0.08120896 -0.9923033 
-0.7808004 -0.124626026 -0.61222476 
-0.62518615 -0.012093727 -0.780382 
-0.17737025 0.044982854 -0.98311573 
0.5081252 -0.12877615 -0.85160184 
0.42624962 0.15257165 -0.89164627 
0.71698046 0.22608432 -0.6594125 
0.7853379 -0.05922821 -0.61622757 
-0.7548865 0.03196517 -0.655076 
-0.4204219 0.26355094 -0.8682088 
-0.43398923 -0.27950403 -0.8564642 
-0.13084242 -0.83430624 -0.5355496 
-0.8365854 -0.3020509 -0.45704502 
-0.5945662 0.34848076 -0.7246049 
-0.27139914 -0.10176728 -0.95707154 
0.20660794 -0.8223858 -0.53008956 
0.23755796 -0.70722234 -0.665885 
0.5479853 -0.8306048 -0.09903461 
-0.045556374 -0.7538281 -0.65549064 
-0.5022079 -0.7911496 -0.34909818 
-0.42951497 -0.3738135 -0.8220586 
-0.5084802 -0.13200079 -0.8508958 
0.13888241 0.9287702 -0.34365365 
-0.12041392 0.20069207 -0.97222596 
-0.58545184 -0.7073389 -0.39612848 
-0.6023629 -0.26031715 -0.75458205 
-0.9399164 -0.31636766 -0.12833054 
-0.008456097 -0.14941019 -0.9887392 
-0.22512239 -0.22949396 -0.9469174 
-0.085155554 0.0019136437 -0.9963659 
-0.08317122 0.1698019 -0.9819623 
-0.685943 0.08602615 -0.72255224 
-0.11712802 0.49646914 -0.86011595 
-0.22996143 0.11886109 -0.96591395 
0.1445817 0.007022307 -0.9894679 
0.31874293 -0.44904312 -0.8347235 
-0.3547359 -0.4165629 -0.83704114 
-0.6222681 -0.7003831 -0.3496369 
-0.33662754 -0.48814598 -0.80523 
-0.6088089 -0.4029747 -0.68334705 
-0.93132865 -0.33701566 -0.13801289 
-0.5744871 0.22879902 -0.7858853 
-0.707903 0.25128084 -0.66009945 
-0.55287194 -0.11556078 -0.8252142 
0.3466703 -0.7248016 -0.5953843 
-0.010696306 -0.8092975 -0.5873017 
-0.07720292 -0.11995692 -0.98977274 
0.19484863 -0.3501407 -0.91620713 
0.18351747 -0.58879465 -0.7871735 
0.32025358 -0.74706525 -0.5825214 
-0.08981425 -0.60771036 -0.7890638 
-0.22613715 -0.5099865 -0.82992524 
0.69312024 -0.6138704 -0.3778195 
0.036886055 0.13702634 -0.98988044 
-0.063107625 -0.4865838 -0.87135166 
0.48198047 -0.58963186 -0.6480965 
-0.081237994 -0.34337607 -0.93567795 
0.6705423 -0.6015329 -0.43420202 
0.81371975 -0.5744002 -0.089021124 
0.9435431 0.1949326 -0.26782063 
0.7452502 -0.56603396 -0.35243118 
0.4504833 -0.77252483 -0.44751558 
0.7146695 -0.51101714 -0.47760767 
0.66163725 -0.63481003 0.3990644 
0.5636525 -0.75900936 0.3258845 
-0.30899802 -0.80559146 0.5055123 
0.09357926 -0.8346705 -0.5427413 
-0.0053417394 -0.66231483 -0.7492066 
-0.37207937 -0.68588036 -0.62539995 
0.07595496 -0.28519347 -0.9554557 
0.31715703 -0.46382374 -0.8272115 
-0.36753163 -0.6541801 -0.6610363 
-0.8804846 -0.13992038 -0.45295626 
-0.6110257 -0.50448716 -0.61003315 
0.11684128 -0.65297973 -0.74830854 
-0.15801947 -0.6154163 -0.7721999 
-0.17311953 0.2376017 -0.9558112 
-0.19280593 0.2660839 -0.9444709 
-0.43109092 0.5076889 -0.74593073 
0.36799186 0.30161053 -0.8795528 
0.48597544 -0.15432933 -0.86023855 
-0.08010547 -0.51582396 -0.8529412 
0.34161425 -0.51714784 -0.7847662 
0.39085314 -0.24921174 -0.88607407 
-0.079200655 0.18825032 -0.9789225 
0.42759725 -0.8013968 -0.41823897 
0.59668094 -0.11724634 -0.79386735 
0.65627545 0.14976877 -0.7395079 
0.26946774 -0.32289207 -0.90726405 
0.45501944 -0.39098355 -0.80005574 
0.19824041 -0.24513358 -0.94900495 
0.52462953 -0.32753733 -0.78580105 
0.46136734 -0.66761947 -0.5843155 
0.52908987 -0.63806045 -0.559413 
0.13820292 -0.96498555 -0.22294158 
-0.19524583 -0.3442464 -0.9183537 
-0.22825933 0.85237813 -0.47047788 
-0.488887 -0.39701664 -0.7767673 
-0.4606184 -0.561663 -0.6872885 
-0.031629432 -0.050524928 -0.9982218 
-0.08289326 -0.4452448 -0.8915637 
-0.16342957 -0.8645803 -0.4751755 
0.587214 -0.4760437 -0.65464664 
0.23886529 -0.92848724 -0.28435013 
0.09762663 -0.9416987 -0.32198265 
-0.6267882 -0.67212903 0.39418173 
-0.93068725 -0.19058 -0.31225082 
-0.4995731 -0.8619872 0.086051375 
-0.7425443 -0.6272773 0.23484305 
-0.47576004 -0.8565671 -0.19986302 
-0.45356822 -0.40104315 -0.7958897 
-0.40485927 -0.6194033 -0.67262816 
-0.5462542 -0.286049 -0.7872626 
-0.11191085 0.5394758 -0.834531 
0.11755736 -0.04514333 -0.9920395 
-0.1000149 -0.14814307 -0.98389566 
-0.4410244 -0.7252389 -0.52870214 
-0.19562645 -0.9017448 -0.38546947 
0.52490634 -0.33533567 -0.7823192 
0.5385689 -0.80748487 -0.24064873 
0.39944312 -0.9163084 -0.028707895 
-0.10376923 -0.9843394 0.14250553 
-0.3524666 -0.9306552 0.09822582 
-0.55224574 -0.83338296 0.022302983 
-0.5189789 -0.8105187 0.2715153 
0.7000255 -0.44869387 -0.5555522 
0.0012109311 -0.53355294 -0.84576595 
-0.56628835 -0.80344355 0.18383674 
-0.7563027 -0.5469202 -0.35900494 
-0.5589861 -0.49035913 -0.6686423 
-0.6108225 -0.740309 -0.2807821 
-0.54889065 -0.7842149 -0.28935462 
-0.975286 -0.13555235 -0.1744788 
-0.8878908 -0.2461749 -0.38864872 
-0.17863575 0.10019214 -0.9788007 
-0.16738485 0.014524923 -0.98578465 
-0.11208977 -0.5400198 -0.83415496 
0.09637845 -0.7878239 -0.60831314 
-0.04626219 -0.2701054 -0.96171874 
0.19942008 -0.47903016 -0.8548461 
0.42390805 -0.33614042 -0.8410183 
0.16262423 -0.4910772 -0.85580164 
-0.0037960757 0.29601595 -0.95517546 
-0.27719137 0.025173875 -0.9604849 
0.3224734 0.0051973043 -0.9465643 
0.5400517 0.115313284 -0.8336949 
0.095578246 -0.06527957 -0.99327916 
-0.43828925 -0.2246969 -0.8702953 
-0.5245609 0.13290296 -0.8409356 
0.224756 0.42963094 -0.8745869 
-0.112552814 -0.45689803 -0.8823696 
-0.24728443 -0.23494518 -0.9400273 
0.13666302 -0.05268007 -0.9892159 
-0.04031325 -0.27716058 -0.9599775 
0.65119404 -0.27392694 -0.7077503 
0.6054525 -0.74567896 -0.27819097 
0.14508946 -0.92783713 -0.3436092 
0.5915919 -0.7962348 0.12660646 
0.12573797 -0.54828095 0.82678777 
-0.19214398 -0.5445672 0.8164113 
-0.68053144 -0.73002756 0.062744714 
-0.7017284 -0.4656626 -0.539199 
0.24209744 -0.42008916 -0.8745936 
-0.6433365 -0.6238588 0.44375497 
-0.5389789 -0.6445222 0.5423034 
0.21278329 -0.9768682 -0.021253666 
-0.025882404 -0.9528561 -0.30231667 
-0.43983945 -0.85294944 -0.28110266 
-0.4664328 -0.72752506 -0.5031379 
-0.4561645 -0.87328744 0.171123 
-0.38483468 -0.9213036 0.055696085 
0.0075281886 -0.9761358 0.21703044 
0.023280708 -0.99664897 -0.07841581 
-0.2336545 -0.8587989 -0.4559277 
-0.26472008 -0.3558211 -0.89627826 
-0.2472315 -0.79934937 -0.5476471 
0.22760792 -0.8069654 -0.5449785 
-0.14856559 -0.7482732 -0.6465412 
0.8120541 -0.31899682 -0.4886813 
0.1920214 -0.5821648 -0.79007095 
0.29059774 0.035635196 -0.9561815 
0.29050443 -0.31239232 -0.9044437 
-0.43485337 -0.6642127 -0.6080494 
-0.34548867 -0.7978594 -0.49402246 
0.065754525 -0.6425973 -0.76337737 
-0.15420304 0.34190246 -0.9269975 
-0.6898982 0.17211087 -0.70314884 
0.386632 -0.5336396 -0.75215995 
-0.35228992 0.771564 -0.5296987 
0.82063985 0.5579762 -0.12334068 
0.9150643 0.23443589 -0.3281725 
0.77319205 0.051899955 -0.6320447 
-0.17112926 -0.25423092 -0.9518832 
0.33466074 0.15061688 -0.93022406 
-0.044974826 0.31896964 -0.94669724 
0.1916103 -0.09987445 -0.9763763 
0.22839013 -0.1897312 -0.9549032 
0.30546245 0.5138405 -0.80166113 
0.7190312 0.61848783 -0.31696513 
0.7375335 0.5846945 -0.33790046 
0.4042471 0.7336556 -0.5461994 
0.77464473 0.15629493 -0.6127785 
0.16138461 0.5182594 -0.8398584 
-0.010664729 0.8032083 -0.5956029 
-0.35694993 0.020639585 -0.93389547 
0.13398173 0.17405356 -0.975579 
-0.06499713 -0.49817276 -0.86463827 
0.6265497 0.1505068 -0.76471126 
0.70739216 0.6671931 -0.23334484 
-0.72645897 0.45972964 -0.5107897 
-0.6245301 -0.058329552 -0.7788196 
0.077296115 0.2763881 -0.95793265 
-0.06814243 -0.17689921 -0.9818673 
-0.29886508 0.10580823 -0.9484115 
-0.30220214 0.03483918 -0.95260704 
-0.8020087 0.3481952 -0.48532704 
-0.18941057 -0.24629562 -0.9505063 
-0.3085713 -0.5752605 -0.757535 
-0.11956386 -0.39678034 -0.91009337 
-0.261892 0.19891256 -0.94437623 
-0.3834649 -0.2370147 -0.8926247 
-0.18246973 -0.10259096 -0.9778446 
-0.5991076 -0.5510859 -0.5808394 
-0.12667772 0.2977932 -0.9461882 
-0.18534239 -0.21753442 -0.9582938 
-0.98985165 -0.06354182 -0.12710743 
-0.52304584 -0.04497525 -0.8511171 
-0.7234285 0.015598616 -0.6902231 
-0.21807633 -0.1762688 -0.95988125 
-0.069798864 0.23688917 -0.96902615 
-0.9972922 -0.025589595 0.06894552 
-0.91807747 0.043316033 -0.39402753 
0.10342521 0.105417125 -0.9890352 
-0.1685135 0.39771459 -0.9019015 
-0.16931401 0.14013135 -0.9755491 
0.12205668 0.9842221 -0.12809825 
-0.34449327 0.78013617 -0.52221847 
-0.17992407 0.13550904 -0.9743022 
-0.3947552 0.037909467 -0.918004 
-0.20174077 -0.13376194 -0.97026205 
0.0710684 0.3170295 -0.9457492 
0.4527891 -0.10383041 -0.8855515 
0.8195916 0.014736152 -0.5727586 
0.18452887 -0.2740594 -0.94384354 
0.66153145 -0.045680366 -0.74852484 
0.5505148 -0.13911594 -0.82315266 
0.63340336 0.10158806 -0.7671246 
-0.41700363 -0.56379133 -0.7129147 
-0.04863499 -0.32233155 -0.94537663 
-0.20270146 0.09520702 -0.9746014 
0.35547477 0.024937313 -0.9343532 
0.2872957 -0.14199033 -0.9472591 
0.066930495 0.19656555 -0.97820365 
0.9251426 0.18311921 -0.3325337 
0.519819 -0.6975593 -0.4931524 
0.5264392 0.22035705 -0.8211605 
0.09443378 0.2807155 -0.9551341 
-0.17344986 0.38321128 -0.90722895 
0.10782234 -0.42992923 -0.8964013 
0.2602508 -0.41803908 -0.87035215 
-0.09231335 -0.9305459 -0.35434812 
0.27343217 -0.0009647972 -0.9618909 
0.2860976 0.24691823 -0.9258399 
-0.11532613 -0.43546325 -0.8927887 
-0.71239793 0.55569714 -0.42859063 
-0.598915 0.48972592 -0.63361615 
-0.69137394 -0.2617376 -0.6734208 
-0.81916076 -0.34123963 -0.461011 
-0.71497726 -0.17346194 -0.6772876 
-0.38933226 0.43530926 -0.8117427 
-0.27969396 0.2431568 -0.9287875 
-0.39956588 -0.6530148 -0.64336526 
0.64105034 -0.54235536 -0.5430517 
-0.14687188 -0.92825174 -0.34172693 
0.055509157 -0.8999955 -0.43235055 
0.4357864 -0.37338743 -0.8189457 
0.3891949 -0.5625954 -0.72939277 
0.4245359 0.45896277 -0.780463 
0.6663324 0.49207 -0.5602395 
-0.006685626 -0.9506428 -0.31021535 
-0.5487761 -0.66883904 -0.50149703 
-0.46397427 -0.71781015 -0.51911134 
-0.56539637 -0.20561549 -0.79877996 
-0.11102794 -0.010584331 -0.99376094 
-0.6901481 0.1789248 -0.7012001 
-0.7181818 0.20410073 -0.6652503 
-0.3315555 0.6450002 -0.68850976 
0.15916888 0.04438679 -0.9862531 
-0.40797192 0.33344823 -0.84992427 
0.09228719 0.3621249 -0.9275499 
0.29836974 -0.43012068 -0.8520399 
0.0839842 -0.17575766 -0.9808445 
0.3854985 0.0665871 -0.92030275 
-0.19456449 -0.8295089 -0.5235072 
-0.04346838 -0.7337384 -0.6780402 
-0.6990926 0.2814104 -0.65732616 
0.011127137 0.18273899 -0.9830985 
0.018121105 0.56967115 -0.82167304 
-0.89804393 0.051543407 -0.43687582 
-0.33167434 -0.5910569 -0.7352849 
-0.03855196 -0.5876878 -0.8081689 
-0.029942643 -0.23013197 -0.97269875 
0.23495969 -0.41495267 -0.8789815 
0.24110763 -0.6440638 -0.7259814 
-0.32299623 -0.5808307 -0.74720097 
-0.35800734 -0.26365066 -0.8957227 
0.32436693 -0.099117264 -0.94072413 
0.24661192 -0.48796704 -0.83729976 
0.47388563 -0.80198604 -0.3636632 
0.6233309 -0.60489273 -0.49554363 
0.17312147 -0.5143854 -0.8399029 
-0.07710009 -0.8217901 -0.56455 
0.32307243 -0.8242938 -0.4649344 
0.974619 0.06659318 -0.2137363 
0.6644051 -0.12607425 -0.73666227 
0.61582464 -0.5932676 -0.5184532 
0.9533139 0.10854945 -0.28179735 
0.2086057 -0.97754276 0.029896189 
0.52343196 -0.75311756 -0.39853856 
0.5624762 -0.72633284 -0.3950459 
0.78809345 -0.5816832 0.20137902 
-0.085448176 -0.96055585 -0.2646339 
0.13867675 -0.5393935 -0.83055615 
-0.1814441 -0.37554288 -0.90887046 
-0.7755621 0.04971334 -0.62931085 
-0.52204275 -0.25875112 -0.8127234 
-0.10733045 -0.34680152 -0.93177724 
-0.457286 0.1846276 -0.8699438 
-0.5188166 0.124013536 -0.8458429 
-0.4122197 -0.251697 -0.8756275 
-0.18430997 0.12247062 -0.9752081 
-0.16748445 -0.25037557 -0.95355177 
-0.7515858 0.34100676 -0.5646532 
-0.08284768 0.9961695 -0.027976334 
-0.4253735 0.8289181 -0.36325234 
0.104189016 0.44453076 -0.8896838 
-0.18479946 -0.33679572 -0.92326486 