# OOMMF: rectangular mesh v1.0
# Segment count: 1
# Begin: Segment
# Begin: Header
# Desc: Time (s) :  6.430000000000013e-07
# Title: m
# meshtype: rectangular
# meshunit: m
# xbase: 2e-09
# ybase: 2e-09
# zbase: 5e-10
# xstepsize: 4e-09
# ystepsize: 4e-09
# zstepsize: 1e-09
# xmin: 0
# ymin: 0
# zmin: 0
# xmax: 1.024e-06
# ymax: 1.024e-06
# zmax: 1e-09
# xnodes: 256
# ynodes: 256
# znodes: 1
# ValueRangeMinMag: 1e-08
# ValueRangeMaxMag: 1
# valueunit: 
# valuemultiplier: 1
# End: Header
# Begin: Data Text
-0.7646102 0.2278311 -0.60288006 
-0.7249697 -0.35924375 -0.58767587 
-0.014473264 -0.41544357 -0.9095038 
0.2531452 0.20392448 -0.9456915 
0.936639 0.10965074 -0.33269244 
0.5046664 -0.4166735 -0.7561052 
0.00052864116 -0.9726086 -0.23244812 
-0.57986027 -0.77728856 -0.2440998 
-0.24406591 -0.8077882 -0.53657246 
-0.65817857 -0.74310017 -0.120843306 
-0.1379062 -0.94324136 -0.30212212 
-0.19782107 -0.65015244 -0.7335999 
-0.49328873 -0.7789196 -0.3872348 
-0.12088296 -0.33370483 -0.93489486 
-0.4304624 -0.15483722 -0.8892287 
0.2142975 -0.15710767 -0.96405077 
0.378802 -0.15577106 -0.9122743 
0.6336501 -0.20613067 -0.7456526 
0.6548238 -0.5519421 -0.5163 
0.36675787 -0.7400422 -0.5637608 
0.21766631 -0.94886076 -0.22865854 
-0.05349899 -0.7608039 0.6467731 
0.25737453 -0.9646173 0.05719993 
-0.2776669 -0.9512431 -0.13430421 
0.2785598 -0.96039236 -0.0071528135 
-0.14568114 -0.9184426 0.3677502 
-0.15972781 -0.97339857 -0.16426288 
0.41574618 -0.8604365 -0.29462555 
0.13236852 -0.58977294 -0.79664695 
0.52830327 -0.6704439 -0.5209613 
-0.29380754 -0.30839798 -0.90474737 
-0.010458282 -0.27441165 -0.9615555 
-0.23355778 -0.16626233 -0.95802283 
-0.47792804 -0.64281964 -0.59863824 
-0.10755338 -0.88171726 -0.45935494 
0.42095077 -0.72201765 -0.5490819 
0.63848305 -0.72676605 -0.25327954 
0.42054287 -0.19573309 -0.88590765 
-0.32137108 -0.9308322 -0.17398913 
0.29717565 -0.9389039 -0.17362605 
-0.19230781 -0.6823378 -0.7052892 
-0.044783335 -0.94633406 -0.3200724 
0.33605924 -0.87599 0.3459852 
-0.6773199 -0.67579323 0.29076 
-0.9097548 -0.41477957 0.017440276 
-0.32422358 -0.6090662 -0.7238215 
-0.35835811 0.056659687 -0.9318633 
-0.27234507 0.24859023 -0.9295327 
0.26527515 0.71697646 -0.6446503 
0.8051134 -0.23183657 -0.54593444 
-0.33036926 -0.3803666 -0.8638157 
-0.95415723 -0.27046344 -0.12819293 
-0.9893202 0.09257162 0.11258807 
-0.7158166 0.034749713 -0.69742316 
-0.30257168 -0.3080654 -0.9019679 
0.14796941 -0.82455754 -0.54608595 
-0.32353574 -0.6307778 -0.70529723 
0.74411136 -0.6032726 0.28698522 
0.22241595 -0.95528376 0.19484374 
-0.08248419 -0.96951663 0.23072483 
0.27354196 -0.93801564 0.21284196 
-0.42852107 -0.3115689 -0.8481123 
0.027919902 -0.22206883 -0.9746312 
-0.2693908 -0.6149477 -0.7411262 
0.55068415 -0.80180043 -0.232084 
-0.054541115 -0.6495533 -0.7583573 
0.17233774 -0.9826624 -0.068370245 
0.37799102 -0.87527364 0.3016936 
-0.22493726 -0.74443895 -0.6286605 
-0.7021123 -0.14092533 -0.6979817 
-0.5857462 -0.75289357 -0.30008772 
-0.3489264 -0.9362878 -0.040195983 
0.1867142 -0.92183065 0.33965603 
-0.67518497 -0.58602685 -0.4479932 
-0.20224434 -0.9790145 -0.025058806 
0.45113525 -0.890573 -0.05793655 
0.6384681 -0.73755896 -0.21992114 
-0.21106769 -0.8923516 -0.3989476 
-0.39083007 -0.5431437 -0.74313307 
-0.822368 0.0951752 -0.56093895 
-0.9807344 -0.054687846 -0.18753478 
-0.25198177 0.047534492 -0.96656394 
-0.30880216 0.65041375 -0.6939764 
0.023256922 -0.38071528 -0.9243998 
-0.07881157 -0.6483927 -0.75721574 
-0.30215916 -0.66572315 -0.68228483 
-0.65011615 -0.57386553 -0.4980235 
-0.9764748 -0.1570287 -0.1477806 
-0.8613183 -0.110524796 -0.49589822 
-0.46735802 -0.678346 -0.5669421 
-0.92332363 0.2642923 -0.27860948 
0.0006219627 -0.995903 -0.09042573 
-0.2982219 -0.2989089 -0.90648615 
0.32259396 0.18855162 -0.92756754 
0.67973614 -0.14090605 -0.7197947 
0.4800299 -0.0068043508 -0.8772258 
0.5796172 -0.32208586 -0.74853504 
0.5926549 -0.79821485 0.10776554 
-0.30410358 -0.9110774 0.27831474 
0.530103 -0.844673 -0.07428499 
0.47382554 -0.88061875 -7.851929e-05 
-0.050849825 -0.9092222 -0.4131943 
-0.987921 0.0888379 -0.12696446 
-0.33322197 -0.16621807 -0.92808115 
-0.3384522 -0.9406937 0.023358 
-0.018488536 -0.929502 -0.36835337 
0.7420537 -0.104411855 -0.6621591 
0.7973065 -0.585785 -0.14545888 
0.69116974 -0.7199724 -0.06264467 
0.53493834 -0.8183638 -0.21005179 
-0.1512236 -0.9712063 -0.18409203 
-0.040491417 -0.7318758 0.680234 
-0.025654096 -0.98286813 0.1825159 
-0.61401194 -0.7773162 -0.13699965 
-0.6642553 -0.71623486 -0.21394524 
-0.11103543 -0.96128875 0.25218073 
-0.6232893 -0.7712693 -0.12905145 
0.57489914 -0.42105478 -0.7015725 
0.7126623 -0.65769696 0.24402289 
0.7177635 -0.55790794 0.41659856 
0.48732 -0.48295933 0.72750914 
-0.13853092 -0.90193456 0.40905178 
-0.79317105 -0.51092786 -0.33140975 
0.38985774 -0.9008676 -0.19091518 
0.18833445 -0.72166365 -0.66613203 
0.14927994 0.06561344 -0.98661566 
0.051011838 -0.9403381 -0.33639595 
-0.11179288 -0.76732665 -0.6314367 
0.18004434 -0.84619945 -0.5015283 
0.8118799 -0.4492233 -0.3728935 
-0.06194814 -0.22111766 -0.9732776 
0.5880439 0.26871523 -0.76288694 
0.6269645 -0.008007258 -0.7790067 
0.8939542 0.08326714 -0.44035506 
0.583642 -0.42001954 -0.694943 
0.7041664 -0.14710028 0.6946303 
0.87888104 -0.33262375 0.3419497 
0.14738606 0.666802 0.7305152 
-0.65721667 0.23883381 0.7148599 
-0.20542797 -0.9643622 -0.16674823 
-0.57812166 -0.81552637 0.026311569 
-0.29440805 -0.9069402 -0.3013027 
-0.08459123 -0.6390861 0.7644693 
-0.4071604 -0.88113153 0.24047361 
-0.38827723 -0.9172595 0.08874609 
-0.9356504 -0.34542924 -0.07236736 
-0.91272676 -0.40696302 0.036208786 
-0.6599886 -0.51271504 -0.5491251 
-0.29174912 -0.76005507 -0.5806882 
-0.077612005 -0.89705974 -0.4350404 
0.08409531 -0.75519276 -0.65008616 
0.2626032 -0.4936767 -0.8290495 
0.47160605 -0.86283636 -0.18193713 
0.08012243 -0.45306697 -0.88786876 
0.16242486 0.3790405 -0.911014 
-0.4303521 -0.18031767 -0.8844674 
-0.15283369 -0.47800988 -0.8649557 
-0.2514763 -0.4478664 -0.8580067 
-0.11074275 -0.13373338 -0.98481035 
-0.10119263 -0.889657 -0.44527572 
0.33892897 -0.8467157 -0.41012156 
-0.50440526 -0.096676566 -0.8580379 
0.11011486 -0.7915319 -0.6011257 
0.5806828 -0.80180544 -0.14112234 
0.41904712 -0.23641416 0.8766459 
-0.38584933 -0.45128995 0.8046475 
-0.33786613 -0.60466427 0.72126806 
0.37195423 -0.9261803 -0.061968625 
0.15933543 0.47156507 -0.867317 
0.25207222 0.13093758 -0.95880914 
0.36443985 -0.6043497 -0.70848083 
0.29130104 -0.3012136 -0.9079726 
-0.05694928 -0.287086 -0.95621043 
-0.09885232 -0.51136976 -0.85365635 
-0.14001976 -0.7988013 -0.58507365 
-0.28678563 -0.4366508 -0.85269576 
0.86887807 -0.23000504 -0.43834764 
0.7523014 -0.01018371 -0.6587405 
0.25857526 -0.7667838 -0.58752155 
0.20993765 -0.58858824 -0.7806985 
0.8552341 -0.4210786 -0.30210504 
0.35430282 -0.9335544 -0.05427536 
0.9399944 -0.32945183 0.08872476 
0.26270378 -0.85747796 -0.44240057 
0.5860502 -0.77393407 0.2399402 
-0.23926714 -0.55640054 -0.79571956 
-0.08650597 -0.7393079 -0.66778785 
0.030537544 -0.87803465 -0.47762188 
-0.18929212 -0.9792004 0.073041804 
-0.06162839 -0.92866975 0.36575186 
-0.30659026 -0.58938026 -0.74741787 
0.08698914 -0.50637156 -0.85791653 
0.3330075 -0.53887135 -0.77377236 
0.4859233 -0.08377044 -0.86997765 
0.7223867 -0.67503446 -0.14995334 
0.7218582 -0.29980287 -0.62373 
0.678761 -0.17740324 -0.71260905 
0.74036545 -0.64155465 -0.20066576 
0.81579614 -0.56903005 0.10335182 
0.5363243 -0.2625951 -0.80212224 
-0.37580094 -0.90442 0.20198561 
-0.22055207 -0.9409261 0.25693393 
-0.53097135 0.09764443 -0.84174526 
-0.56649435 -0.28242105 -0.77415925 
-0.38463333 -0.6773848 -0.62706226 
0.17145966 -0.9407791 -0.29246596 
0.38803276 -0.11021628 -0.9150318 
-0.07063393 -0.2966871 -0.95235896 
-0.4390471 -0.12858345 -0.88921547 
-0.12586111 -0.36209145 -0.92360646 
0.19693351 -0.78415215 -0.588492 
0.17192748 -0.9463336 -0.27366704 
0.27268642 0.67392343 -0.68663627 
0.5441087 0.53486663 -0.6464236 
0.46573183 0.30650282 -0.83015054 
0.3046213 0.11583997 -0.9454031 
0.9461618 -0.23632787 -0.22119434 
0.8260346 -0.39745975 -0.39961568 
0.81782484 -0.39296433 -0.42040658 
0.75085104 -0.08623763 -0.6548175 
0.49921918 -0.5535212 -0.6666292 
-0.04124441 -0.93271357 -0.3582518 
-0.41260755 -0.8029895 -0.4300734 
-0.6750312 -0.46070844 -0.5762644 
0.13250498 -0.40637895 -0.90404576 
0.024619322 -0.7984236 -0.60159266 
0.76209027 -0.10655916 -0.63864195 
0.74391884 -0.43367887 -0.5084363 
0.76746535 -0.3180123 -0.55665535 
0.70367014 -0.70822 -0.05720847 
-0.2910512 -0.910331 0.2942564 
-0.6533378 -0.60014445 0.4614937 
-0.68298763 -0.7249441 0.08935342 
0.033963885 -0.9972376 0.066058934 
-0.21354093 -0.54150593 -0.81312454 
-0.49990103 -0.31599656 -0.8063778 
0.5600832 0.2733394 -0.7820439 
0.5386721 0.2762816 -0.79592764 
0.52149767 0.03805292 -0.85240376 
0.54526365 -0.83821577 -0.0090531185 
-0.0032052945 -0.99684274 -0.07933679 
0.6467464 -0.74837327 0.14716196 
-0.7368406 -0.6427336 0.20966537 
-0.30754015 -0.6347382 0.7088911 
-0.31567353 -0.9442052 0.09395083 
-0.91963625 -0.39259636 0.01171577 
-0.14709413 -0.98911875 -0.0027536799 
-0.1621352 -0.8999997 -0.40461418 
-0.063351646 -0.90340906 -0.42407376 
0.2925451 -0.9092772 -0.29602742 
-0.5674524 0.020247668 -0.8231573 
0.58930266 -0.4847577 -0.64632225 
-0.113117054 -0.9883945 0.10139555 
0.32992014 -0.35813552 -0.87343675 
0.76058805 -0.35252434 -0.54519045 
0.9747917 -0.22300526 -0.007052668 
-0.8913353 0.23799369 -0.38585028 
-0.9731564 -0.020094996 -0.22926606 
0.47212756 -0.107953995 -0.8748953 
0.37145972 -0.6413636 -0.67131996 
0.43594447 -0.7223975 -0.53674424 
-0.08894916 -0.44413087 -0.8915357 
-0.20944944 -0.8021051 -0.5592481 
-0.39205322 -0.9199422 0.0008320854 
-0.04938498 -0.9391223 -0.34001553 
-0.6642533 -0.3403884 -0.6655099 
-0.008655271 -0.4016441 -0.9157549 
-0.6228554 -0.08746015 -0.77743286 
-0.37021706 -0.38612175 -0.8448961 
-0.77867436 -0.42740008 -0.45934236 
-0.1735457 -0.41588005 -0.89270693 
-0.29372582 -0.23881091 -0.925578 
-0.3214926 -0.47804093 -0.8173857 
0.16756047 -0.3935213 -0.9039162 
0.20188186 -0.32232976 -0.92484987 
0.32834607 -0.6001564 -0.7293841 
0.29799348 -0.6872448 -0.66249126 
0.74433994 -0.6638472 0.07256074 
-0.12833525 -0.946165 0.29715607 
-0.74723476 -0.55548686 -0.36479402 
0.44694066 -0.8776476 -0.17314422 
0.121711336 -0.9566901 -0.264444 
0.8128897 -0.43717694 -0.3848204 
0.10677851 -0.99006027 -0.091536514 
-0.20148802 -0.8561904 -0.47575262 
0.25143066 -0.8129809 -0.5252091 
-0.51538014 -0.6547701 -0.5528649 
-0.0055679455 -0.40866596 -0.9126671 
-0.6116623 -0.42436576 -0.6676698 
-0.57608837 -0.60762346 -0.5467321 
-0.4176517 -0.42430237 -0.8034517 
0.46278346 -0.88175714 -0.091300674 
-0.061960753 -0.76496917 -0.6410797 
0.33898547 -0.48140028 -0.8082962 
-0.7321747 -0.31394228 -0.6044506 
-0.34495714 -0.7283594 -0.59202796 
-0.7301357 -0.6273278 -0.27085397 
-0.16448858 -0.96150726 -0.22010776 
-0.8822681 -0.38072914 0.2768547 
-0.63005364 -0.7756322 -0.0377777 
-0.77790964 -0.46514297 0.42249128 
-0.8918237 -0.1955074 -0.40795505 
-0.6020364 -0.47587603 -0.6411664 
-0.21837364 -0.020710364 -0.9756455 
-0.2508345 0.4971372 -0.8306243 
-0.16231044 -0.021503199 -0.9865054 
-0.03893991 -0.42913002 -0.902403 
-0.3660947 -0.5920493 -0.71795005 
-0.13243511 0.06462341 -0.9890829 
0.21505278 -0.4852344 -0.84752584 
0.123527884 0.301176 -0.94553363 
-0.10534792 -0.8464849 -0.5218861 
-0.41191617 -0.7915452 -0.45142135 
0.60859066 -0.7560762 -0.24076186 
0.5862943 -0.7981204 -0.1387906 
0.3274248 -0.765571 -0.5537997 
-0.33837593 -0.87348074 -0.35004753 
-0.05287983 -0.88726735 -0.45821446 
-0.7415433 -0.6545912 0.14705068 
0.31711447 -0.62553424 -0.7128432 
0.70488673 -0.49451518 -0.5085169 
-0.34235933 -0.5468385 -0.76404047 
0.3137867 -0.70302314 -0.6381978 
0.9995325 0.005427291 -0.030090015 
0.84440255 -0.20173174 0.49627492 
-0.27863607 -0.7597019 0.5875499 
-0.7092532 -0.7032814 0.048529994 
-0.49268514 -0.79377824 -0.3566195 
-0.6264079 -0.45433578 -0.6333974 
-0.41782817 -0.7643903 -0.49104694 
-0.46795297 -0.506308 -0.72434264 
-0.08891415 -0.36548987 -0.92655903 
-0.22190279 -0.7694453 -0.5989268 
-0.27359903 -0.90014976 -0.33893082 
-0.14202553 -0.6933548 -0.70646155 
-0.15573946 -0.7400606 -0.65425956 
0.024651602 -0.11280046 -0.9933119 
-0.25002205 -0.23751783 -0.9386556 
-0.6418024 -0.2303647 -0.73145187 
-0.22022967 -0.36406794 -0.90496045 
0.17356075 0.56630385 -0.805715 
-0.53707415 -0.23552662 -0.8099868 
-0.6334379 -0.48804453 -0.600474 
-0.66109383 -0.6786762 -0.31992763 
-0.67990446 -0.16203816 -0.7151738 
-0.64324236 -0.5894264 -0.48868793 
-0.8138356 -0.25272876 -0.5232588 
0.23575951 -0.5256586 -0.8173742 
-0.087399654 0.062363196 -0.99421936 
-0.2091106 0.42290512 -0.88171655 
0.5165301 -0.0560626 -0.8544318 
0.74760544 0.044008963 -0.66268355 
0.76779664 -0.3188923 -0.55569434 
-0.10116731 -0.76458687 -0.63653135 
-0.7425553 -0.6148941 -0.26555026 
0.10884356 -0.8941693 -0.43429756 
-0.09209412 -0.64120877 -0.7618203 
-0.2911247 -0.5520761 -0.7813184 
-0.40276673 -0.35769072 -0.8425179 
-0.16722678 -0.47152624 -0.86585116 
-0.21030396 -0.2307502 -0.95001405 
0.012272065 -0.25077263 -0.9679682 
0.26724577 -0.26914322 -0.9252792 
0.5423527 0.19582137 -0.81701136 
0.18697196 -0.7008773 -0.6883404 
0.42919725 -0.88422155 0.18423331 
-0.5673881 -0.7738142 -0.28157136 
0.12952675 -0.9910596 0.03199572 
0.31335264 -0.8518194 -0.4197783 
-0.58140254 -0.6137961 -0.534065 
0.42848635 -0.743904 -0.5128414 
-0.017616812 -0.9644005 -0.26385882 
-0.3163532 -0.91651064 -0.24480382 
0.9746962 0.030647587 0.22142285 
0.26457053 -0.8497962 0.4559044 
0.38997835 -0.7185646 0.5758315 
-0.0563981 -0.9125705 0.4050118 
0.1522366 -0.91740704 -0.36767977 
-0.30438367 -0.8147521 -0.4934872 
0.5099109 -0.74524826 -0.42964625 
0.797159 -0.48306873 0.3621909 
0.40624928 -0.3042592 -0.8616193 
0.44491026 -0.6068486 -0.6586272 
0.56559384 -0.72401696 -0.39484575 
0.17660758 -0.86690724 -0.46613497 
0.56950307 -0.8158615 -0.100181304 
0.55654585 -0.7284933 -0.3994426 
0.49324912 -0.67312527 -0.5510061 
0.26574975 -0.9091734 -0.3205944 
0.09879408 -0.542641 -0.8341346 
0.082960784 -0.4396371 -0.894336 
0.27812427 0.025386477 -0.96020955 
0.864578 -0.47302642 0.16956095 
0.18290058 0.56521344 0.80441356 
-0.7635861 -0.21846727 0.6076252 
-0.30138248 -0.9464704 0.115596294 
-0.33700374 -0.94028336 0.04791435 
-0.5656624 -0.8242116 0.026482461 
-0.111289345 -0.96497506 -0.2375667 
0.010744733 -0.95765084 -0.2877315 
-0.5034888 -0.65521693 -0.5631961 
-0.71738434 -0.69388795 0.062283725 
-0.5926586 -0.77163607 -0.23094074 
-0.559098 -0.5838435 -0.5886733 
-0.44029364 -0.5772685 -0.6876792 
0.11326898 -0.79205877 -0.5998443 
0.2818924 -0.17778896 -0.9428297 
0.5735484 0.074240394 -0.81580067 
-0.48571697 -0.8184201 -0.30703032 
0.5411678 -0.06435595 -0.8384485 
-0.26538813 0.17944881 -0.9472948 
-0.26976842 -0.52270406 -0.80870605 
0.39746293 -0.19036327 -0.8976554 
0.680991 -0.12057377 -0.72229725 
0.59107274 0.053457674 -0.8048449 
0.608749 0.12194172 -0.7839355 
0.5695114 -0.6818622 -0.45904326 
-0.15054905 -0.8152876 -0.55914325 
-0.28447 -0.94503134 -0.16122249 
-0.06864875 -0.88888955 0.452949 
-0.31541488 -0.9443717 0.09314227 
-0.69345546 -0.48667586 0.5312874 
-0.50902814 -0.7814007 0.36097583 
-0.41442314 -0.26007926 -0.872131 
-0.5484167 0.028370306 -0.83572394 
0.48516813 0.6925834 -0.5337979 
0.5052916 -0.8518361 -0.1380428 
0.25177154 -0.76443094 -0.5935121 
0.20698828 -0.49741125 -0.8424595 
-0.28232846 -0.2475944 -0.92681587 
0.20962189 -0.60046136 -0.7716896 
0.05283871 -0.6604373 -0.74901986 
0.96734416 -0.15906692 -0.19733983 
0.7322672 0.09071917 -0.674948 
0.42692423 -0.29222596 -0.8557686 
0.67307806 -0.67143977 -0.31005597 
0.9969106 -0.07015565 0.035321306 
-0.33825245 -0.39133897 -0.8558266 
0.39194945 -0.8947726 -0.21391034 
0.035158705 -0.3543478 -0.93445253 
0.31448445 0.12532927 -0.94095284 
0.27148524 -0.6756013 -0.68546236 
-0.17723648 -0.89641815 -0.40622866 
0.3159498 -0.852159 -0.4171342 
-0.30688903 -0.6847201 -0.66104275 
-0.2568627 -0.6914288 -0.6752391 
-0.59003305 -0.27771968 -0.75811136 
-0.23623818 -0.32684177 -0.9150771 
0.33103237 -0.46512458 -0.8210218 
0.1884339 0.09449166 -0.9775296 
0.5149252 0.1531469 -0.8434442 
0.29787925 0.35274237 -0.8870405 
0.08017562 -0.6994527 -0.7101675 
0.5274731 -0.69604725 -0.48712465 
0.21772075 -0.044195566 -0.97501 
0.33931383 -0.010870244 -0.94061047 
-0.066724814 -0.92480004 -0.37455666 
-0.6238925 -0.7253406 -0.29092827 
-0.1359521 -0.61219 -0.77893543 
-0.29154092 -0.031695552 -0.9560332 
-0.028106721 -0.22959389 -0.9728806 
-0.18978927 -0.80647266 -0.55998397 
0.59634656 -0.2749911 -0.75415576 
0.087628774 0.2833406 -0.9550075 
-0.12229246 0.46905446 -0.8746613 
-0.19768596 0.37380642 -0.9061948 
0.30971113 -0.50827026 -0.80357975 
-0.061593063 -0.6129113 -0.78774744 
0.3317546 0.15865742 -0.9299284 
-0.108390324 0.5338047 -0.8386323 
0.5166733 -0.11984862 -0.8477529 
0.6508439 -0.20003541 -0.73238516 
0.3285085 -0.8839123 0.3328382 
0.44285837 -0.7155383 -0.54026055 
0.7463387 -0.6603443 -0.08320989 
0.8643278 -0.37839407 -0.33129376 
0.1476073 -0.6565657 -0.73968476 
-0.0055342736 -0.6808799 -0.7323742 
0.27964944 -0.7707052 -0.57254666 
0.14411923 -0.96127325 -0.2349118 
0.36617744 -0.58339965 -0.72495455 
-0.09394745 -0.42311308 -0.9011932 
0.5991609 -0.61618364 -0.5111985 
0.8479029 -0.50393134 -0.164663 
0.6126488 -0.5946325 0.52064747 
-0.14236453 -0.98135936 0.12909734 
-0.22994462 -0.963722 0.13551936 
-0.58252436 -0.7787918 -0.23269922 
-0.5279265 -0.8164528 -0.23387717 
0.027922696 -0.79736155 -0.60285556 
0.5065346 -0.13831894 -0.85105276 
-0.53752106 -0.24897449 -0.8056568 
0.3322503 -0.21920665 -0.9173649 
0.6685238 -0.5899426 -0.45281756 
0.90826696 -0.25932503 -0.32833195 
0.20577426 -0.9611723 -0.18386142 
0.095635384 -0.78158003 -0.6164306 
-0.16130704 -0.9622119 -0.21938202 
-0.5528849 -0.8209236 -0.14283802 
-0.5676896 -0.630491 -0.5293483 
-0.4835748 -0.86380583 -0.14140357 
-0.116590105 -0.4909744 -0.8633371 
0.21255532 -0.7511861 -0.6249319 
-0.24835846 -0.9421172 -0.22524038 
-0.20879859 -0.62675965 -0.7507167 
-0.41560242 -0.6954687 -0.5861723 
-0.54525155 -0.19181119 -0.81603265 
-0.2632637 -0.31470376 -0.9119506 
-0.31950602 -0.10581209 -0.941658 
0.20934148 -0.20137277 -0.9568831 
0.73320043 -0.23160636 -0.6393557 
0.50059694 -0.80422664 -0.32034716 
-0.87870836 0.14398621 -0.4551261 
-0.9415097 0.0052683926 -0.33694485 
-0.20944907 -0.97666436 0.047516666 
-0.24313112 -0.39148608 -0.8874829 
-0.07165648 -0.7397589 -0.66904575 
-0.7134766 -0.68906903 0.12702398 
-0.9140924 -0.26760116 -0.3046714 
-0.18635318 0.01401785 -0.9823829 
-0.18969819 -0.5437487 -0.81752795 
-0.08630313 -0.3912545 -0.91622686 
-0.37822577 -0.49847427 -0.7800441 
0.20259257 0.09262211 -0.974873 
0.09155047 -0.703006 -0.7052666 
-0.511159 -0.1978638 -0.8364008 
-0.2650599 -0.58007884 -0.7702285 
0.36900514 0.2234075 -0.90217763 
-0.3860888 -0.19823408 -0.90091 
-0.05271499 -0.07190213 -0.99601775 
0.10079684 -0.21182378 -0.9720961 
0.56179875 -0.24386983 -0.7905123 
0.6364319 -0.56173676 -0.52858907 
0.12468868 -0.9910476 -0.04772224 
-0.14732099 -0.9749811 -0.1664586 
-0.44365573 -0.21207967 -0.8707422 
0.15115671 -0.51704 -0.84250903 
0.20565999 -0.49888802 -0.84191144 
0.61454 -0.30683708 -0.72676796 
0.55322766 -0.65057874 -0.52027535 
-0.15650024 -0.9876687 -0.00428308 
0.19541532 -0.95106715 -0.23934099 
0.31774613 -0.5406119 -0.77895844 
0.6338471 -0.36068282 -0.68421185 
-0.62321967 -0.23511523 -0.7458674 
-0.092480786 0.08987443 -0.9916501 
-0.14270261 -0.07848785 -0.98664874 
-0.2641705 -0.14281043 -0.9538445 
0.051986616 -0.62892824 -0.7757234 
0.0028707683 -0.90079445 -0.43423647 
-0.5590535 -0.31517863 -0.7668909 
-0.5727796 -0.31920633 -0.755004 
-0.46862376 -0.7974813 -0.38002035 
0.105413444 -0.9186624 -0.3807197 
-0.6708911 -0.47922754 0.565903 
-0.98889744 0.14114442 0.0464787 
-0.65110654 -0.48587033 -0.5830869 
-0.40461963 0.16413273 -0.89963514 
-0.45864272 -0.006365467 -0.88859797 
-0.01076433 0.012539668 -0.9998635 
0.10548843 -0.14963189 -0.98309845 
0.5349104 0.01611141 -0.8447552 
0.26229173 -0.08465155 -0.96126854 
0.3895981 0.48467505 -0.783137 
0.028832829 -0.14884451 -0.9884403 
0.08926163 -0.5630666 -0.8215768 
0.073234946 -0.25580427 -0.9639507 
0.029325647 0.52837205 -0.8485064 
0.30413115 0.20712568 -0.92984045 
0.25545198 0.24414912 -0.9354868 
0.6122943 -0.7155187 0.33634606 
0.17684329 -0.7428345 -0.6456961 
-0.16313925 -0.85429996 -0.49351528 
-0.49281716 -0.3421648 -0.8000341 
-0.75572294 -0.44649085 -0.4790917 
-0.29179263 -0.33932906 -0.8942667 
-0.47661945 -0.41746926 -0.77366227 
0.15153182 -0.15134647 -0.97679704 
0.67634547 -0.7347724 0.05163714 
0.9857434 -0.11710048 0.12081993 
-0.16165687 -0.8113996 -0.56169206 
-0.0083093885 -0.9847799 -0.17360751 
-0.508248 -0.8367102 0.20396124 
-0.6978193 -0.6778229 0.23152617 
-0.2881166 -0.85402435 -0.43316448 
-0.32346007 -0.7516223 -0.5748371 
-0.5227697 -0.31687307 -0.7913933 
-0.25725916 0.1199119 -0.9588738 
-0.073676065 -0.7966024 -0.5999971 
0.1497257 -0.41995904 -0.8951071 
-0.45594314 0.043025874 -0.88896835 
-0.058262948 -0.2880247 -0.95584905 
-0.4941404 0.084619105 -0.86525434 
-0.5419512 -0.48325974 -0.68756753 
-0.21616124 0.2175061 -0.95182216 
-0.35825664 0.13962914 -0.923123 
0.21781401 0.26180488 -0.94022095 
-0.7121261 0.28529555 -0.6414694 
-0.38272384 -0.2699178 -0.8835536 
-0.49199507 -0.52992815 -0.6907366 
-0.2095845 -0.6417425 -0.73772687 
-0.8019047 -0.43319994 -0.41144484 
-0.44727558 -0.5499859 -0.7053086 
-0.11070203 0.18343917 -0.9767779 
-0.47079328 0.34793404 -0.8107377 
-0.17448267 0.23348404 -0.95657784 
0.058833368 -0.007629707 -0.9982387 
0.7473146 -0.0642289 -0.66135895 
0.59239095 -0.5813525 -0.5577655 
-0.27501315 -0.32428512 -0.9051006 
-0.00044153264 -0.30853185 -0.9512139 
0.2751407 -0.6534582 -0.70518804 
-0.78949815 0.3838137 -0.47893617 
-0.47385886 0.13616395 -0.8700099 
0.11558691 -0.44353366 -0.88877314 
0.31691483 -0.37981328 -0.86908406 
0.33510017 -0.21133433 -0.9181752 
0.08392538 -0.5989033 -0.79641163 
0.58124965 0.19811474 -0.78923976 
0.0056153056 -0.19974387 -0.9798321 
0.17270486 -0.6429091 -0.7462178 
-0.10880343 -0.90341675 -0.41472873 
0.5086209 -0.7749768 -0.37512082 
0.13120335 -0.7531659 -0.64461374 
-0.043232944 -0.9983268 -0.03840026 
-0.42068696 -0.6994953 -0.5776927 
-0.30771002 -0.9111123 -0.27420598 
-0.2512178 -0.8249268 -0.50634533 
-0.34513545 -0.60555756 -0.7170646 
-0.31824458 -0.91854054 -0.23452856 
-0.020498645 -0.87957186 0.47532436 
-0.4065276 -0.8665538 0.2895167 
0.088469096 -0.8282151 -0.55338323 
0.22511575 -0.20507686 -0.9525053 
0.09440952 -0.5963377 -0.7971627 
0.64243865 -0.7644723 -0.053429537 
0.7536827 -0.6061286 -0.25410742 
0.07374438 -0.11128922 -0.99104816 
0.78026396 -0.60193914 -0.16987544 
0.13542102 -0.5103325 -0.8492479 
0.59547937 -0.8024776 0.037869215 
0.5421465 -0.79949373 -0.25862557 
0.48738694 -0.7512568 -0.4450475 
0.009403855 -0.5762822 -0.8171968 
-0.006726777 -0.9616475 0.2742059 
-0.33202907 -0.8894595 -0.31403592 
-0.26421788 -0.7626827 -0.59034234 
-0.3212369 -0.69195825 -0.6465298 
0.17307304 -0.9815641 0.0811036 
-0.27845806 -0.9067653 0.31660348 
-0.81481814 -0.57112354 -0.099445865 
-0.79050374 -0.43847921 -0.4275976 
-0.027733278 -0.40035817 -0.915939 
0.30028635 -0.89891344 -0.3190342 
0.011913878 -0.9591998 -0.2824784 
-0.12319479 -0.684336 -0.7186845 
-0.373043 -0.85226715 -0.36671472 
-0.64936495 -0.7276961 -0.22087009 
-0.09955702 -0.63458186 -0.7664166 
-0.16167468 -0.27159134 -0.9487358 
0.25865844 -0.5414471 -0.7999568 
0.5333924 -0.41611445 -0.73643833 
0.4459888 -0.22566614 -0.86612284 
0.07060267 -0.65983415 -0.7480871 
-0.37471926 -0.86067986 -0.3446965 
0.09731397 -0.07797608 -0.9921945 
-0.61117655 0.27951276 -0.74049705 
-0.05029504 -0.5747042 -0.8168143 
-0.0913694 -0.073657185 -0.9930893 
0.76312363 -0.09649253 -0.6390082 
0.62291557 -0.037014827 -0.781413 
0.50916296 -0.30401498 -0.80518824 
0.35722402 -0.76351565 -0.53799164 
0.011875153 -0.9995022 0.02923323 
-0.13796811 -0.98112684 0.13548021 
-0.07362874 -0.9450933 0.3183986 
-0.25075585 -0.8522218 -0.45917287 
-0.60614717 -0.79368377 0.051494952 
-0.5406296 -0.8063219 0.23992662 
-0.59128726 -0.29914215 -0.7489281 
-0.71722 -0.50089073 -0.48446262 
0.6232888 -0.17498323 -0.7621627 
0.6797596 -0.2911071 -0.67318916 
0.4703228 -0.1772867 -0.86450326 
0.20080453 -0.23101328 -0.9520034 
0.50440794 0.25752556 -0.82416826 
0.04951441 -0.23992419 -0.9695281 
0.07882878 -0.7453868 -0.6619551 
0.4051875 -0.83494973 -0.37240034 
0.31004965 -0.09314686 -0.9461464 
0.32210565 -0.11803307 -0.93931687 
-0.036205728 -0.79475826 -0.6058452 
0.009374072 -0.7732326 -0.63405335 
-0.21495767 -0.3280397 -0.9198822 
-0.37244558 -0.49622077 -0.78425086 
0.20511638 0.039257783 -0.97795 
0.16517815 -0.28467375 -0.9442866 
0.2733193 -0.6801231 -0.680242 
0.512553 -0.6062517 -0.6080694 
0.36291793 -0.72923875 -0.58008754 
-0.3488964 -0.8441231 -0.40709633 
0.09394939 -0.19949327 -0.97538507 
-0.29636034 0.4551311 -0.83965844 
-0.08455703 -0.3672432 -0.9262735 
-0.009235435 0.14244503 -0.9897596 
-0.23989801 0.37957442 -0.8935167 
0.17560363 -0.060316194 -0.9826115 
-0.05336234 0.57508767 -0.8163496 
0.21273033 -0.041563787 -0.97622657 
-0.15859763 0.15342964 -0.9753493 
-0.3968622 0.083462685 -0.9140758 
-0.44282237 0.15995458 -0.8822262 
-0.23468618 -0.5693911 -0.7878555 
-0.8296286 -0.2035477 0.51988924 
0.15321326 -0.90726835 -0.39165026 
0.0546592 -0.7907061 -0.60975105 
0.03153381 -0.37344074 -0.92711794 
-0.03890724 -0.16542602 -0.9854545 
0.44032043 0.091275804 -0.893189 
0.19614626 -0.009982604 -0.98052394 
-0.424382 0.12075431 -0.89739525 
0.21301389 0.32492065 -0.92144006 
0.21119045 0.053591695 -0.9759747 
0.08783535 -0.33200306 -0.93917996 
-0.5967946 -0.22927594 -0.76894 
-0.021015551 -0.21556944 -0.97626233 
0.2965591 0.66102916 -0.6892701 
0.28594252 -0.19409858 -0.938383 
0.6305014 -0.34417936 -0.69570726 
0.84775436 0.17600088 -0.5003363 
0.83915025 -0.49582705 -0.22356765 
0.6521223 -0.53352034 -0.5386025 
0.3566602 0.24367614 -0.9018956 
0.683914 -0.45401254 -0.57108176 
0.5129723 -0.7512832 -0.41525036 
-0.07361951 -0.7406896 -0.6678018 
0.18281591 -0.81050485 -0.5564714 
0.1777403 -0.33916676 -0.92378265 
0.42674267 -0.22236274 -0.8766103 
0.74366003 0.06776167 -0.6651152 
0.8499896 -0.51947874 0.08751895 
0.38004005 -0.884034 -0.27212784 
0.43725613 -0.69643915 -0.56901634 
0.1565199 -0.75732344 -0.6340054 
0.46520114 -0.44091535 -0.7675816 
0.30955172 -0.2549854 -0.9160569 
-0.22946432 -0.39314398 -0.89038414 
0.08659066 -0.31355324 -0.9456144 
0.10133305 -0.38520136 -0.9172521 
0.88765764 -0.44468796 -0.11965245 
0.66150415 -0.637121 -0.395587 
0.6692 -0.74187917 0.0422703 
0.74518335 -0.634599 0.20490465 
0.21017753 -0.97760504 -0.01066827 
0.13384876 -0.9627435 -0.23496692 
0.28263888 -0.95063496 -0.12809534 
-0.8550616 -0.49906936 0.14071055 
-0.6435174 0.047104966 -0.76398075 
-0.5942932 -0.36089638 -0.7187277 
-0.71358293 -0.4075281 -0.5698424 
-0.53569067 -0.07678323 -0.84091616 
-0.21317957 0.08457648 -0.9733454 
0.8822973 -0.056379236 -0.46730396 
0.22550449 -0.44431844 -0.86702293 
-0.33291566 -0.8128294 -0.47799125 
-0.04924084 -0.7153128 -0.6970675 
0.22708854 -0.62568986 -0.7462862 
-0.19147286 -0.95212483 0.23831996 
-0.5069678 -0.5203811 -0.6871589 
-0.7819335 -0.12706377 -0.6102743 
0.2199808 -0.017564503 -0.9753461 
0.72826654 -0.5060652 -0.4620886 
0.25947425 -0.9464376 0.19216909 
-0.922021 -0.057915956 -0.38278332 
-0.93264383 -0.2588169 -0.2513747 
-0.1882614 -0.050335344 -0.9808283 
0.24922584 0.09704897 -0.9635704 
0.5975686 -0.04700342 -0.8004389 
0.0041033556 0.691114 -0.7227341 
-0.33778 0.4288209 -0.8378648 
0.15535295 0.058006823 -0.98615456 
-0.019951852 -0.40083817 -0.9159317 
0.34040514 -0.014561088 -0.9401662 
0.0053338315 0.18231052 -0.9832266 
-0.32602718 -0.47567165 -0.8169717 
-0.12685515 -0.2122751 -0.9689413 
0.104381874 -0.025966553 -0.99419826 
0.26913375 -0.0629286 -0.9610448 
0.33959755 -0.91295207 -0.22625683 
-0.4431583 -0.61068237 -0.65626055 
-0.39374515 -0.8992807 -0.190418 
0.31526154 -0.84673935 -0.4285354 
0.2088357 -0.026444715 -0.9775932 
0.8830722 -0.34786022 -0.31492335 
0.5538345 -0.24120161 -0.7969249 
0.42130646 -0.7970142 -0.43274632 
0.59929144 -0.65045005 -0.4666525 
0.49955815 -0.58928484 -0.6349686 
0.28244057 -0.75060576 -0.5973428 
0.68095785 -0.5429729 -0.49140295 
0.1360981 -0.3969179 -0.90770787 
-0.33378813 -0.43583798 -0.83584136 
0.03654898 -0.21471521 -0.9759927 
0.26974913 0.77163607 -0.57603246 
0.25916946 0.5679887 -0.78116596 
-0.48641837 0.5910431 -0.64347905 
-0.0042252135 0.20658879 -0.97841877 
-0.30318177 -0.3853334 -0.87154984 
0.012434901 -0.470525 -0.8822991 
-0.10475803 -0.35104844 -0.9304788 
-0.2865926 -0.11710165 -0.9508691 
-0.68442726 -0.3399467 -0.64497733 
-0.15040886 -0.7761595 -0.6123346 
-0.5457641 -0.11458597 -0.8300673 
-0.16596411 -0.43157953 -0.88667643 
-0.11927114 -0.05867427 -0.99112654 
0.24152891 0.39225942 -0.88757896 
-0.45491323 0.6697799 -0.5868977 
0.0027482226 0.73112994 -0.68223274 
0.60506946 0.6100789 -0.51156116 
0.630464 -0.067628145 -0.77326685 
-0.18764527 -0.59863454 -0.7787337 
0.14013363 -0.048117742 -0.9889627 
-0.48934343 0.06988802 -0.8692863 
-0.46632645 0.26033917 -0.84543675 
0.42745894 0.37249455 -0.82372725 
0.4976592 -0.69444764 -0.5196901 
0.03897605 0.124117546 -0.99150175 
0.40279636 0.23316947 -0.88509154 
0.342417 0.36656383 -0.86509055 
0.21586776 0.74230355 -0.63433945 
-0.33650592 -0.20995943 -0.91797644 
-0.57061994 -0.19733621 -0.797152 
0.50950897 -0.6542818 -0.5588524 
0.40341356 -0.7256107 -0.5574466 
-0.16144115 -0.92035556 -0.35620573 
-0.009217042 -0.9954826 -0.09449659 
0.23591368 -0.94970375 -0.20593102 