# OOMMF: rectangular mesh v1.0
# Segment count: 1
# Begin: Segment
# Begin: Header
# Desc: Time (s) :  6.460000000000013e-07
# Title: m
# meshtype: rectangular
# meshunit: m
# xbase: 2e-09
# ybase: 2e-09
# zbase: 5e-10
# xstepsize: 4e-09
# ystepsize: 4e-09
# zstepsize: 1e-09
# xmin: 0
# ymin: 0
# zmin: 0
# xmax: 1.024e-06
# ymax: 1.024e-06
# zmax: 1e-09
# xnodes: 256
# ynodes: 256
# znodes: 1
# ValueRangeMinMag: 1e-08
# ValueRangeMaxMag: 1
# valueunit: 
# valuemultiplier: 1
# End: Header
# Begin: Data Text
-0.100214094 -0.8266246 0.5537591 
0.102901794 -0.9881219 0.11413268 
-0.04530488 -0.9966974 0.06739343 
-0.10840477 0.007860596 -0.9940758 
-0.07795896 -0.30772677 -0.9482756 
-0.1109035 0.15312454 -0.981964 
-0.7276973 -0.4532217 -0.51482695 
-0.7207742 -0.52470964 -0.45295092 
0.35216486 -0.2629681 -0.8982359 
0.032907173 0.5730861 -0.8188343 
0.19257905 -0.08961336 -0.97718114 
0.48636892 -0.8349904 -0.2573642 
0.65972495 -0.7490403 0.06084195 
0.44001573 -0.7837257 0.43836093 
-0.19129044 -0.970455 0.14705493 
0.06308276 -0.93971336 -0.33609444 
0.05514906 -0.96989876 0.23718141 
-0.64160013 -0.7666755 -0.023625711 
0.362386 -0.7007033 -0.6145659 
0.27681953 -0.711869 -0.6454561 
0.69984704 -0.6572865 -0.2796223 
0.41267765 -0.31705073 -0.8539181 
-0.7780281 -0.5178683 -0.35564703 
-0.2646903 -0.9221944 0.28195137 
-0.02861988 -0.75566596 -0.65433174 
0.6375092 -0.53374004 -0.5556111 
0.93922955 -0.008085389 -0.34319463 
0.53618443 0.26291895 -0.8021097 
0.53286976 -0.69348764 -0.48489675 
0.44994348 0.1687747 -0.8769641 
0.5651128 -0.060112085 -0.82282084 
0.20763968 -0.4458914 -0.8706702 
0.20708978 -0.8688365 -0.44970784 
0.74500155 -0.6664256 0.029147586 
0.7779825 -0.4095456 0.47646177 
-0.53803056 -0.8355538 -0.111233324 
-0.60807246 -0.7935617 -0.022534527 
-0.8197512 -0.087380014 -0.5660148 
0.1984259 -0.96114486 -0.19190581 
0.900723 -0.23331624 -0.3664175 
0.29380962 -0.9547599 0.045930065 
0.78997123 -0.5931369 -0.15535213 
0.289233 -0.9090077 0.300082 
-0.051818766 -0.8659473 0.4974437 
0.054922752 -0.74528044 0.6644853 
-0.5711715 -0.17505369 0.80194724 
-0.47234234 -0.09025945 0.87678164 
-0.7484227 -0.20381407 -0.63112867 
-0.9826474 -0.18422161 -0.021598442 
-0.9191728 -0.3874809 0.07056806 
-0.7440131 0.44247115 -0.5006634 
-0.10063008 0.9491571 -0.2982858 
-0.50989866 0.8018627 -0.31147966 
0.03596489 0.5794031 -0.8142472 
-0.59330714 -0.35408875 -0.7229162 
-0.54621536 0.11540598 -0.8296567 
0.13409708 0.37824538 -0.9159413 
-0.18052046 -0.29951438 -0.9368584 
-0.07600922 -0.04444651 -0.996116 
-0.18145639 -0.9162399 -0.35718074 
-0.47429928 -0.45796484 -0.7518699 
-0.4367956 -0.69315535 -0.5733631 
-0.14171036 -0.96730626 0.21032552 
-0.78497833 0.24072485 -0.5708422 
-0.68426275 -0.3694419 -0.6287267 
-0.5329881 -0.4696772 -0.70379484 
-0.49615407 -0.69128317 -0.5253178 
-0.301451 -0.42399096 -0.8540251 
-0.657532 -0.5429369 -0.52237076 
-0.06942853 -0.7577069 -0.6488914 
-0.5845914 -0.7144743 -0.3844209 
-0.13067585 -0.9861695 0.10194851 
0.20219089 -0.96423775 0.17136084 
0.0043638707 -0.9998658 0.01579812 
-0.1617492 -0.9288545 -0.33326638 
-0.58735937 -0.75851554 0.28224677 
-0.71644014 -0.5765086 -0.3928758 
0.26103956 -0.93435866 -0.24255376 
0.22029227 -0.56753457 -0.7933322 
0.32564157 -0.51218927 -0.79474515 
0.5261103 -0.84586 0.087913565 
0.470632 -0.88157445 0.036498126 
-0.046200044 -0.87793237 0.47655055 
-0.67431396 -0.7063331 0.21539348 
-0.14784656 -0.86580473 -0.4780414 
0.57175756 -0.66710794 -0.47755674 
0.12009014 0.38491672 -0.9151052 
0.25598022 -0.38348293 -0.88736415 
0.5674936 -0.30224925 -0.7658959 
-0.14331459 -0.42023337 -0.8960273 
0.3094253 -0.7095989 -0.6330288 
0.16130738 -0.03405257 -0.9863166 
0.5491204 0.1474192 -0.8226387 
0.55437416 -0.7113265 -0.43206942 
0.8765603 -0.40074 0.2665514 
-0.15215437 -0.9187856 0.36425558 
-0.6873821 -0.5002649 0.5265368 
-0.6052813 -0.78760844 -0.11535854 
0.21606863 -0.9726801 -0.08489927 
-0.7133208 -0.5010838 -0.48998827 
0.41046703 -0.82152915 -0.3957356 
0.1257813 -0.57455605 -0.8087426 
0.44058338 0.24488074 -0.86366653 
-0.6078266 -0.32758588 -0.72334945 
0.6569547 -0.61259645 -0.4394725 
0.5849309 -0.6240909 -0.5180411 
0.45795682 -0.8888752 0.013290961 
0.54926324 -0.826033 -0.12640962 
0.14419344 -0.9890856 0.030295666 
0.16618523 -0.9506496 -0.2620073 
-0.31549054 -0.84133637 -0.43888363 
0.16213115 -0.97329503 -0.16251236 
0.59954834 -0.06887343 -0.7973696 
0.51524603 -0.56913215 -0.6407887 
0.811401 -0.51251125 -0.2809997 
0.76603884 0.4097939 0.49523094 
-0.28428045 -0.678047 0.6778178 
-0.9711126 -0.12922227 0.20060375 
-0.42624894 0.049664482 -0.90324163 
0.27845007 0.12065445 -0.9528421 
0.6099816 -0.51482004 -0.60239756 
0.25452596 -0.63419753 -0.7300754 
0.2852046 -0.9309647 -0.22795422 
-0.3628398 -0.07644737 -0.9287105 
-0.24113685 -0.37336934 -0.89579487 
0.44236505 -0.86324143 -0.24316174 
-0.67799604 -0.595904 0.4303717 
-0.74849206 -0.64671797 0.1466815 
-0.9162733 -0.057485063 -0.39640722 
-0.55287474 -0.27618125 -0.78616387 
-0.18344171 0.30460963 -0.9346454 
0.34481063 -0.823461 -0.45057493 
0.7815408 0.12916474 -0.6103364 
0.8948823 -0.18648544 -0.4054737 
0.69219434 -0.4236825 -0.58426046 
0.30841932 -0.64215976 -0.7017895 
0.606958 -0.7909537 0.077423036 
0.39956364 -0.44312665 0.8024885 
-0.21244004 -0.9608487 0.17787383 
-0.78098965 -0.24149795 0.57596344 
-0.45242003 -0.7681552 -0.4530495 
-0.17919333 -0.8947608 -0.40901443 
-0.7930013 -0.23836443 -0.5606526 
-0.73058224 0.57883376 -0.36221692 
-0.28310874 0.4173204 -0.86353534 
-0.17322119 -0.67614436 -0.7161168 
-0.32086277 -0.031469375 -0.94660276 
0.37032422 -0.5760856 -0.7286874 
0.6732252 -0.7392996 0.014281014 
-0.17496645 -0.9815963 -0.07652129 
-0.7196715 -0.6937458 -0.028104892 
-0.6401392 -0.6489116 -0.4112611 
-0.32550937 -0.9344668 -0.1442763 
0.26908553 -0.4746525 -0.83803225 
0.45557544 -0.8880495 -0.061799824 
0.4484981 -0.8883204 -0.098673135 
-0.19369 -0.6334964 0.7491105 
-0.95066744 -0.09455989 0.2954485 
-0.7917745 -0.5678894 0.22493282 
-0.84147346 -0.53654456 0.063579895 
-0.9844105 -0.07270636 0.1601557 
-0.61750466 -0.14704326 -0.77270067 
-0.047731437 -0.8160208 -0.57604855 
-0.031919677 -0.31386325 -0.9489315 
-0.0621797 -0.80163395 -0.5945727 
0.6667481 -0.16277023 -0.7272915 
0.5220579 -0.29446897 -0.8004647 
0.1667813 -0.8957313 -0.41212812 
0.8468503 -0.44465205 -0.29176912 
-0.2635784 -0.71427274 -0.64833707 
-0.29601872 -0.53298944 -0.79265076 
0.6876989 -0.70319664 -0.1805125 
0.47525465 -0.6453474 -0.59804666 
0.16879323 -0.94592226 -0.27701968 
-0.06904647 -0.9922239 -0.103558525 
-0.05429076 -0.9656891 0.25396258 
-0.29107395 -0.8554424 0.4283623 
-0.74364084 -0.45523298 -0.48965418 
-0.86616945 -0.33456418 0.37123746 
-0.81606835 -0.3139452 -0.4852534 
-0.37579224 -0.5475846 -0.7476172 
-0.547305 -0.1838979 -0.81647956 
-0.45640823 -0.88548476 -0.08722588 
0.7961092 -0.5964066 -0.10251564 
0.85101306 -0.5091954 0.12844056 
-0.79954326 -0.553974 -0.23204184 
-0.5962365 0.35473898 -0.7201821 
-0.64594793 0.20098343 -0.7364489 
-0.20278491 -0.47929883 -0.8539035 
0.7292487 -0.13585676 -0.67062616 
-0.8872197 -0.017496295 -0.4610153 
-0.50235337 -0.5984663 -0.6240828 
-0.08188941 -0.32918856 -0.94070673 
-0.62541395 -0.45560396 -0.6334686 
-0.20307803 -0.64792335 -0.7341353 
0.47716838 -0.1524286 -0.86549175 
-0.014909609 -0.30437782 -0.9524348 
0.14384152 -0.15715504 -0.97704244 
0.11204891 -0.14069483 -0.98369205 
0.75685185 -0.6088586 0.23762713 
0.83535105 -0.38134262 0.39593726 
0.14448947 -0.82055986 0.552996 
-0.13772243 -0.84047836 0.52405035 
-0.490274 -0.5415841 0.682875 
-0.81095314 0.5644717 0.15403502 
-0.7279116 -0.19731316 -0.65666765 
-0.8633278 -0.42012277 -0.27957454 
-0.25653985 -0.3263264 -0.9097793 
-0.026415108 -0.32925072 -0.94387305 
-0.090452254 -0.76041394 -0.64310896 
0.3363362 -0.13224028 -0.9324112 
0.18496573 -0.7500531 -0.6349866 
-0.31833386 -0.921075 -0.22424209 
0.17966975 -0.97233826 -0.14925547 
-0.5692132 -0.7401794 0.35795358 
-0.66512334 -0.7226987 -0.18792982 
-0.47774315 -0.87403715 0.088433444 
-0.20735803 -0.9734378 -0.097064495 
0.0038187334 -0.9663541 -0.25718707 
-0.2564249 -0.8130484 0.52268416 
-0.9743295 -0.08575313 0.20815529 
-0.23601636 -0.9433596 0.23317137 
-0.079780325 -0.9578537 -0.27595547 
-0.108608745 -0.9917718 0.067770205 
-0.07998052 -0.77219075 0.63033694 
-0.4587067 -0.8855519 0.07339042 
-0.68122613 -0.7293091 0.06355505 
-0.54240924 -0.8247845 -0.1597588 
0.05199643 -0.7039242 -0.7083694 
0.08197709 -0.9848607 -0.1527393 
0.23046947 -0.97188973 -0.04810692 
-0.25176525 -0.7528602 -0.60812485 
-0.6537579 -0.34395546 -0.6740143 
-0.8160622 -0.09812745 -0.5695731 
0.20018815 0.10228647 -0.97440356 
0.15126443 -0.7427656 -0.65224105 
-0.5334237 -0.2779415 -0.7988791 
-0.68029714 -0.51539934 -0.5211137 
-0.030425306 -0.7197015 -0.6936166 
0.2571885 -0.4493633 -0.85552716 
0.4427279 -0.61046827 -0.65674996 
-0.42700022 -0.8255996 -0.36885783 
-0.2884434 -0.9494424 -0.123934075 
-0.4934224 0.020046122 -0.8695588 
-0.87414175 -0.4184385 0.24654707 
-0.275484 -0.3238395 -0.9051169 
0.46562552 -0.48299083 -0.741561 
0.84943974 -0.4789104 -0.2215784 
0.53076476 -0.83265233 0.1580476 
0.92995274 -0.3264659 0.16913879 
0.41076976 -0.7130308 -0.5682035 
-0.048737016 -0.0026619355 -0.99880815 
-0.4699752 -0.65730107 -0.58913386 
-0.32044613 -0.5915693 -0.73983794 
-0.023518564 -0.10491385 -0.9942032 
0.63036454 -0.00037240298 -0.7762992 
0.2952378 -0.95218843 0.0785607 
-0.40102145 -0.83345115 -0.38018566 
-0.5016347 -0.78407395 -0.3655005 
-0.9718728 -0.22573264 -0.067141816 
-0.94098157 -0.14689076 -0.30492124 
-0.8844485 -0.28094548 -0.37258613 
-0.5927214 -0.12116483 -0.7962415 
-0.17879121 -0.2945249 -0.9387699 
-0.1092675 -0.34279034 -0.9330357 
0.42778325 0.36655727 -0.82621866 
0.49779975 -0.07691212 -0.863875 
0.34402964 -0.5430505 -0.7659894 
0.7811766 -0.30390707 -0.5453472 
0.16784585 -0.90279734 0.3959608 
-0.052290898 -0.87578285 -0.47986475 
0.05252776 -0.9449672 0.32292074 
-0.63303995 0.00073808874 0.77411884 
-0.6867719 -0.72150636 0.08816408 
0.042083938 -0.6962914 -0.7165244 
0.2499757 -0.26910296 -0.9301052 
0.2166918 0.40754592 -0.8871026 
0.31608495 -0.44692495 -0.83686835 
-0.41045952 -0.6346541 -0.65478027 
0.06459916 -0.79679126 -0.6007917 
-0.54567796 -0.3283672 -0.7709803 
0.4209858 -0.27050525 -0.8657933 
0.6369243 -0.34860268 -0.6876072 
0.52700394 -0.38785914 -0.75619584 
0.7327824 -0.49810562 -0.46359554 
0.18354714 -0.19360675 -0.9637567 
0.10175435 -0.47558844 -0.87376297 
0.7389081 0.056542546 -0.67142975 
0.81733716 -0.5501148 -0.17127076 
0.6463749 -0.6699874 -0.3651252 
0.9354179 -0.3534926 0.006041197 
-0.2631981 -0.7852964 -0.5603895 
-0.63678056 -0.5605395 -0.52943945 
-0.3691263 -0.4951584 -0.7864885 
0.42145374 -0.5561379 -0.7163012 
0.6075274 0.05354488 -0.792492 
0.06717343 -0.99382055 -0.088365726 
0.6756656 -0.58318365 -0.45096883 
0.40051728 -0.9004142 -0.16982427 
0.51702213 -0.80283844 0.29688153 
0.46166015 -0.58849967 0.6637305 
-0.34980577 -0.5613231 0.750035 
-0.4946186 -0.79800713 0.3442921 
-0.97349757 -0.22297673 0.05083276 
-0.807732 -0.18000656 0.5613971 
-0.9614001 0.2705847 0.049938507 
-0.5881108 0.6945909 -0.4143297 
-0.8641049 0.28519753 -0.4147111 
-0.57531655 0.11640882 -0.80960476 
-0.61901975 0.04949039 -0.7838146 
-0.76378095 0.3669906 -0.53099585 
-0.7188149 0.3509405 -0.6001216 
0.37504596 0.22943582 -0.8981647 
-0.48519322 -0.15687507 -0.8602196 
-0.520671 -0.49964747 -0.6922819 
-0.3416728 -0.6298977 -0.6974874 
-0.54134816 -0.7550265 -0.36996925 
-0.47332975 -0.86977196 -0.13948387 
-0.7014465 -0.70621324 0.09610341 
-0.21894784 -0.85868704 -0.46337736 
-0.4703602 -0.674279 -0.56930596 
-0.236134 -0.5807457 -0.77908623 
-0.6492345 -0.0011589467 -0.7605876 
-0.1289602 0.33855623 -0.93206704 
-0.3098838 -0.3166677 -0.8964896 
-0.27697724 0.10553463 -0.95506334 
0.020651463 0.15479653 -0.98773056 
-0.25098613 -0.72259915 -0.6440936 
-0.06726936 -0.8762871 -0.47707015 
-0.19291992 -0.7235312 -0.6627855 
-0.2741079 -0.9031458 -0.330443 
-0.4235035 -0.83261716 -0.35692242 
-0.5246725 -0.84092987 0.13249835 
0.45117268 -0.8913595 -0.04383402 
-0.027398607 -0.99526787 -0.09322628 
-0.5234746 -0.7648585 -0.37545422 
0.0025932717 -0.59058005 -0.806975 
-0.11265899 -0.64744896 -0.75373584 
-0.5084594 -0.7120946 -0.4841388 
-0.99025595 -0.11324535 -0.08104821 
-0.15874779 -0.9091116 -0.3851174 
-0.20773636 -0.8364792 -0.5070978 
0.0115403235 -0.38010725 -0.92487055 
0.33640093 -0.14414763 -0.9306213 
-0.031653393 -0.25207502 -0.96718985 
0.23750755 -0.44597638 -0.86295724 
0.82155347 -0.5660012 -0.06850243 
0.12801623 -0.22574034 -0.9657398 
0.8119658 -0.31349134 -0.49237674 
0.60462713 -0.7264373 0.32667264 
0.8149565 -0.542422 -0.20402081 
0.5136284 -0.8422356 0.16378386 
0.42575884 -0.8585282 -0.28576028 
-0.07776417 -0.98992383 0.1183375 
0.1665365 -0.97488236 0.14788556 
-0.13979866 -0.86177635 -0.4876454 
-0.1655062 -0.7473005 -0.6435446 
0.25659814 -0.5038056 -0.8248257 
-0.10669728 -0.64048314 -0.7605243 
0.31710586 -0.11477175 -0.94141984 
0.875475 -0.22118336 -0.42967588 
0.51217055 -0.8367472 -0.19374119 
0.22222607 -0.90106124 -0.37243024 
0.40502456 -0.5586865 -0.72375727 
0.6658736 -0.5804191 -0.4687495 
0.4314178 -0.8256459 -0.36357623 
-0.2043538 0.09954125 -0.973823 
0.34827018 -0.25480434 -0.902099 
0.43784186 -0.48100665 -0.7595571 
0.4239284 -0.65547675 -0.62500805 
0.8931521 -0.16662604 -0.41775006 
-0.04467505 -0.4622909 0.88560224 
-0.07006905 -0.99736756 -0.01866139 
-0.3579667 -0.8474384 -0.3920562 
0.24768075 -0.017305344 -0.9686871 
0.104566135 0.3816771 -0.91836196 
-0.53141695 0.1329672 -0.83660966 
-0.21297142 -0.5918684 -0.7773899 
0.5403999 -0.5229399 -0.65916747 
0.34782583 -0.106581785 -0.93148136 
0.26011512 -0.12409682 -0.9575699 
0.30396268 -0.9493099 0.080108434 
-0.62276673 -0.7822783 -0.014221524 
-0.9945044 -0.051757146 0.09100703 
-0.59206796 -0.5996442 -0.53840727 
-0.27585068 0.08675282 -0.95727766 
0.26776156 0.17995162 -0.9465311 
0.57599497 -0.65963995 -0.48280957 
0.30400074 -0.30534357 -0.9024128 
0.77264255 -0.46178746 -0.43563256 
0.5989741 -0.62781024 -0.49707592 
0.27689302 -0.8642479 -0.42000696 
0.3724049 -0.9213269 -0.111675955 
0.19460385 -0.87247187 0.4482436 
-0.3110393 -0.9242219 0.22151384 
-0.79631215 -0.5940136 0.11417038 
-0.18721917 -0.6300341 -0.7536619 
-0.26863432 -0.3836135 -0.8835589 
-0.6841394 -0.36281672 -0.6327064 
-0.173485 0.1466801 -0.97385216 
-0.85457313 0.007605464 -0.51927555 
-0.31974754 0.5130687 -0.796569 
0.16576113 0.001249271 -0.98616517 
-0.0324891 0.18487838 -0.9822242 
0.23846713 -0.304493 -0.9221809 
-0.7532597 -0.5289348 -0.39093205 
-0.5177225 -0.6671804 -0.5355687 
0.26348653 -0.16309129 -0.95077664 
-0.51142097 -0.8553553 0.08255912 
0.36242363 -0.24654883 -0.8988119 
0.25984606 -0.9174163 -0.30137596 
-0.52993923 -0.75349724 -0.38910985 
-0.62524873 -0.75992817 -0.17768851 
-0.8192638 -0.55492646 -0.14444232 
-0.97797275 -0.17703131 0.11058588 
-0.61869586 -0.75968575 0.20023242 
-0.6559504 -0.7502086 -0.08316326 
-0.15021782 -0.41243464 -0.89851683 
-0.16399747 -0.4463869 -0.8796838 
-0.090804435 -0.69336367 -0.7148437 
0.41001382 -0.8146016 -0.41025966 
0.6201219 -0.45292056 -0.6405559 
0.67629355 -0.5162449 -0.52546966 
0.7525799 -0.5726909 -0.32503644 
0.74013335 -0.5673164 -0.36104685 
-0.37437755 -0.7048371 -0.60253316 
0.16043738 -0.30210865 -0.93967557 
0.3503063 -0.44492185 -0.8242149 
0.5204198 -0.2823167 -0.8058912 
0.20360903 -0.25964952 -0.94399446 
0.20734063 0.5624047 -0.8004442 
0.26790926 -0.7696163 -0.5795821 
-0.1535205 -0.8102816 -0.56557536 
-0.33667564 -0.2852348 -0.8973799 
0.18115483 0.1802119 -0.96680236 
-0.12147064 -0.23762447 -0.9637321 
0.01754599 -0.14781563 -0.9888593 
-0.121358104 0.10157536 -0.98739797 
0.74961543 -0.066099636 -0.65856487 
0.46642768 -0.3628555 -0.80671006 
0.5603163 -0.4362493 -0.70408255 
-0.57128894 -0.5559437 -0.60378444 
-0.14639352 -0.21264236 -0.9661015 
-0.41508168 0.008336115 -0.90974605 
-0.4124387 -0.5708238 -0.7099681 
-0.46264422 -0.03286885 -0.88593465 
-0.12616251 -0.48712906 -0.8641691 
-0.30033094 -0.2970285 -0.906408 
0.069691494 -0.06118461 -0.99569046 
0.51608163 -0.116350144 -0.8486002 
0.3195593 -0.91852397 -0.23279919 
0.6731651 -0.5727602 -0.46775478 
0.40677807 -0.5609759 -0.72099775 
-0.6785011 -0.33567122 -0.6534227 
-0.43477657 -0.8345816 -0.33829427 
-0.056121185 -0.81766033 -0.57295895 
-0.20055848 -0.7472524 -0.6335536 
0.22137149 -0.9662421 -0.13179925 
-0.07230983 -0.85066336 0.5207141 
-0.3224821 -0.8352316 0.4454141 
-0.9718517 -0.23312947 -0.033986017 
-0.5990203 -0.018890217 -0.800511 
-0.37130314 -0.59099376 -0.7161428 
-0.17325927 -0.43648928 -0.88286936 
-0.23890167 -0.1265344 -0.9627643 
-0.6488414 -0.41467202 -0.63800627 
0.06124804 -0.65698117 -0.7514149 
0.48190492 -0.62427247 -0.61485904 
0.31794143 -0.72271335 -0.61367637 
0.3815865 -0.86737627 -0.3194531 
0.040849194 -0.99518764 -0.089066945 
-0.11048329 -0.9693973 -0.21923134 
0.0072314064 -0.9998415 -0.016270464 
-0.03299759 -0.94935036 0.3124823 
0.05073305 -0.81480485 0.5775113 
-0.57215744 -0.79713243 -0.19291385 
-0.6320551 -0.69326305 0.34625536 
-0.7489841 -0.6438224 0.15657462 
-0.16636156 -0.94878626 -0.26856783 
0.06497455 -0.9925658 -0.10291494 
0.101436086 -0.91414386 0.3924942 
0.15896623 -0.92278695 0.35099018 
-0.18731219 -0.9813056 0.044198588 
-0.59326804 -0.75483924 -0.2797334 
-0.6126094 -0.6134169 -0.4984271 
-0.7745019 -0.62552464 -0.094158016 
-0.91345423 -0.31726903 -0.2548367 
-0.8869556 -0.4372277 -0.14880112 
-0.72414094 -0.33985496 -0.6000987 
-0.69052476 -0.68235385 -0.23993509 
0.014552182 -0.6038493 -0.7969657 
-0.06801118 -0.7230189 -0.6874724 
0.0641601 -0.30148834 -0.9513087 
-0.07505859 -0.01267073 -0.9970987 
-0.29689655 -0.048506733 -0.95367694 
0.059279833 -0.2576641 -0.9644145 
0.3608691 -0.7597974 -0.5408157 
0.28029102 -0.39753506 -0.87372935 
-0.41758925 -0.86799324 -0.26871362 
-0.57849896 -0.310943 -0.7540912 
0.13718528 -0.7494759 -0.6476621 
-0.24311753 -0.0411425 -0.9691239 
0.24244626 -0.69315696 -0.6787881 
0.007657528 -0.3522419 -0.93587774 
0.25658923 -0.90587866 -0.33696565 
-0.115621485 -0.8790783 -0.4624426 
-0.3270703 0.0035653606 -0.94499326 
-0.18138982 0.13272217 -0.974414 
-0.22585852 -0.50279087 -0.8343796 
0.03561168 -0.33558017 -0.94133836 
0.24461834 0.081723 -0.96616936 
0.368547 -0.24275832 -0.8973525 
0.54343045 -0.5255001 0.65462434 
-0.06990276 -0.7541272 0.6529975 
-0.2888812 -0.86673135 0.40660107 
-0.39498112 -0.59424174 -0.7006188 
-0.8151903 -0.14666958 -0.56031495 
-0.69466513 -0.48883596 -0.52771187 
-0.70359176 0.6187748 -0.34939444 
-0.32895508 0.034927852 -0.9436995 
-0.5009494 0.50307196 -0.70425016 
0.009480376 0.3355296 -0.941982 
0.036210053 -0.03815883 -0.9986154 
0.62665206 -0.31994835 -0.71059155 
0.30047518 -0.50879055 -0.8067508 
-0.42607433 -0.8764208 0.2243821 
0.255062 -0.9241727 -0.2843383 
-0.061622143 -0.76261896 0.64390624 
-0.03503853 -0.9993777 -0.0040677185 
-0.5363204 -0.5792483 -0.61386645 
-0.5530378 -0.56769025 -0.60981727 
0.06429037 -0.61482817 -0.78603643 
0.43546087 -0.42162588 -0.7953651 
-0.009737131 0.58595234 -0.81028706 
-0.22179806 -0.28196025 -0.9334367 
0.39766082 -0.6031503 -0.6914301 
0.104252905 -0.24533875 -0.96381545 
0.14061211 -0.022630947 -0.98980606 
0.6308269 -0.2733669 -0.72617364 
0.4337142 -0.5035194 -0.74723506 
0.69372094 -0.3740691 -0.61548656 
-0.44921422 -0.587749 -0.67287284 
-0.33151755 -0.65494096 -0.6790792 
0.79191905 0.08817143 -0.60422677 
0.9903531 -0.11934736 -0.0704061 
0.70517653 -0.70792764 0.03955479 
0.66305023 -0.5718978 -0.48300874 
0.43154472 -0.66233367 -0.6124405 
0.00470975 0.6223324 -0.78273904 
-0.17024449 0.40307078 -0.8991946 
-0.17553653 -0.35733625 -0.91733193 
-0.57303476 -0.70563614 -0.41678393 
0.18011458 -0.67137367 -0.71889925 
0.38730776 -0.66578573 -0.6377477 
0.6497461 -0.42818174 -0.6280848 
0.6730889 -0.7146699 0.19025874 
0.5798052 -0.21201283 0.7866871 
0.048804585 -0.69190496 0.72033715 
-0.71952945 -0.6391602 -0.27157256 
-0.7577942 -0.6401774 -0.12617831 
-0.89602923 -0.44247094 -0.036759082 
-0.8667462 -0.49853685 -0.014560315 
-0.94609964 0.3200473 -0.049650617 
-0.3756357 0.15753934 -0.9132794 
-0.38685358 0.43900478 -0.8109373 
-0.17279859 0.7217003 -0.6702906 
0.15405327 0.36826134 -0.91687036 
0.5517098 0.74755836 -0.36982825 
0.025547994 0.949055 -0.3140731 
-0.44230998 -0.24740882 -0.862062 
-0.7757293 -0.50059825 -0.38424692 
-0.7547187 -0.34984937 -0.5549821 
-0.9310591 -0.3486535 -0.107562356 
-0.500939 -0.55725026 -0.66221774 
-0.13657309 -0.29745758 -0.9449163 
-0.85028297 -0.28041756 -0.44540432 
-0.7164326 0.3275022 -0.61600876 
0.09008708 -0.40941384 -0.9078902 
0.28464484 -0.12953882 -0.94984055 
-0.6051799 0.17824091 -0.7758785 
-0.6800439 0.069712676 -0.72984964 
0.19680053 0.22326836 -0.9546837 
0.09158897 0.2302734 -0.9688063 
-0.26222467 -0.64202696 -0.72044414 
-0.5105564 -0.6902794 -0.5126857 
-0.4604036 -0.42917436 -0.7770701 
-0.3243751 -0.93979734 -0.10752567 
0.4748729 -0.73884875 -0.47811958 
0.11826065 -0.9876911 0.10237584 
0.14593565 -0.8913661 -0.42914936 
-0.15129033 -0.6790179 -0.7183634 
-0.24503909 -0.2887663 -0.9255107 
-0.12557143 0.13621143 -0.9826893 
-0.56660837 -0.42188817 -0.7077891 
-0.55284315 -0.71797 -0.42294636 
-0.8869631 -0.10329267 -0.45014122 
-0.67939955 -0.27402282 -0.6806819 
0.14878082 -0.42696384 -0.8919452 
-0.0339444 -0.3962188 -0.91752857 
-0.09370012 -0.37427622 -0.9225712 
0.37305108 -0.8502577 -0.37134185 
0.5558437 -0.4977374 -0.6658043 
0.8277103 -0.22821961 -0.51265144 
0.731066 -0.23265302 -0.6414166 
0.51754177 -0.3821323 -0.7655884 
0.96861786 -0.24727142 0.025228018 
0.12013082 -0.9820017 -0.14574353 
0.34485853 -0.9200573 -0.1859225 
0.6596868 -0.2929417 -0.69209725 
-0.2635266 -0.7804808 -0.5669246 
-0.016199114 -0.77396524 -0.6330209 
0.04727394 -0.8290265 -0.5572075 
-0.40231606 -0.67126846 -0.62252754 
-0.5392111 -0.29521134 -0.7887343 
-0.59068125 -0.7109217 -0.38168854 
0.27629727 0.1259492 -0.9527837 
0.60912204 -0.72240144 -0.32727137 
0.033861674 -0.8706428 -0.49074888 
0.21107371 -0.40009227 -0.89183754 
0.64519 -0.5773574 -0.50038826 
0.11838274 -0.69053376 -0.71354663 
0.16857234 -0.78055197 -0.601932 
-0.4466937 -0.3179902 -0.83626974 
-0.81571704 -0.44917068 -0.3644878 
0.39297092 -0.7026638 -0.5931589 
0.23046656 -0.5579255 -0.79724795 
0.24224907 -0.92650515 0.28792992 
0.1128235 -0.9161893 0.38453618 
-0.14786294 -0.73610836 -0.66051584 
-0.24862114 -0.677242 -0.6924817 
0.041813735 -0.3456389 -0.9374356 
-0.2415682 -0.115185305 -0.9635234 
0.64215714 -0.542389 -0.5417088 
0.19144394 -0.7161686 -0.6711571 
0.19277447 -0.65321696 -0.73221976 
-0.29398337 0.086747244 -0.9518659 
-0.40291736 -0.33396846 -0.8521284 
0.23716894 -0.6234199 -0.74504936 
-0.20059618 -0.8822278 -0.42595237 
-0.73425645 -0.38039947 -0.5622844 
-0.5028449 -0.7935724 -0.34262183 
-0.53128177 -0.21474108 -0.81952786 
-0.45528513 -0.6010157 -0.65688324 
-0.09305794 -0.04068517 -0.9948291 
0.39819714 -0.5082709 -0.76360977 
0.4570394 -0.565124 -0.6868406 
-0.13834327 -0.72116077 -0.6788139 
-0.29833242 -0.5265364 -0.7960887 
0.16730322 -0.9071534 -0.38611192 
-0.52581596 -0.8354702 -0.15970983 
-0.6588437 -0.5078824 -0.55495983 
-0.9542701 -0.2442826 -0.17232136 
-0.8494805 0.48252982 -0.21341957 
-0.1899801 -0.19736287 -0.9617461 
-0.25411013 -0.20522426 -0.9451513 
-0.586479 -0.031723186 -0.809343 
-0.90641785 -0.09182737 -0.41227975 
-0.6216968 0.2773741 -0.7325004 
0.012302988 -0.13632213 -0.9905882 
0.050144706 -0.25244907 -0.96631 
0.44940317 -0.69830173 -0.55714595 
0.3524483 -0.6523031 -0.6710297 
0.2727328 -0.6810428 -0.6795569 
0.1414451 -0.18070275 -0.97331387 
0.11271517 -0.18272269 -0.976682 
0.31957543 -0.51133126 -0.7977544 
0.2967662 -0.47046575 -0.8310186 
0.27864403 -0.67214346 -0.6859889 
-0.13755566 -0.56503135 -0.8135221 
-0.35081133 -0.805975 -0.4767974 
-0.31259808 -0.9433172 -0.111513145 
-0.009733916 -0.9346375 0.3554687 
-0.38562754 -0.6696659 -0.6346961 
-0.3128145 -0.5025771 -0.805955 
0.030142663 -0.07844727 -0.9964625 
0.47508606 -0.42940202 -0.7680541 
0.45546168 -0.2554587 -0.85281616 
0.6488338 -0.27074298 -0.711135 
0.65678746 -0.50538486 -0.5596575 
0.60249233 -0.12301149 -0.78858817 
0.50830054 -0.76739764 -0.39080885 
0.48094374 0.014531458 -0.87663114 
0.24619116 0.4649771 -0.8504036 
0.5872066 -0.05455094 -0.80759686 
-0.0020187492 0.10952027 -0.99398255 
-0.4171778 -0.21875398 -0.8821051 
0.1514815 -0.5014821 -0.8518035 
0.22905876 -0.2662609 -0.9362892 
-0.082079574 -0.038074933 -0.9958982 
0.18933985 0.25298375 -0.9487622 
-0.34909308 0.6662026 -0.6590206 
-0.45592353 0.5913053 -0.66520065 
-0.09043421 0.14272751 -0.9856219 
-0.17903739 0.70615685 -0.6850461 
0.29831004 -0.8007076 -0.5194982 
0.3885167 -0.8082909 -0.44240326 
-0.10884818 -0.64517343 -0.756243 
-0.04825333 -0.5970525 -0.8007497 
-0.021022793 -0.62666726 -0.7790034 
-0.35734862 -0.6230387 -0.6957908 
-0.45033365 -0.874789 -0.17872816 
-0.3114199 -0.5281047 -0.7900146 
0.15824413 0.23207924 -0.9597385 
-0.03202228 -0.18526365 -0.98216707 
0.6746518 -0.26071724 -0.69055885 
-0.13909459 -0.88690233 -0.44051906 
-0.09779897 -0.9943538 0.04118191 
0.5622443 -0.5034512 -0.6560627 
0.18426362 -0.89288276 -0.4108617 
-0.12055967 -0.39498234 -0.91074395 
-0.17836863 -0.8236778 -0.5382747 
-0.15746967 -0.4907742 -0.8569388 
-0.047971155 -0.16072954 -0.98583204 
0.5710528 -0.7920356 -0.21582055 
-0.109659865 -0.7485716 -0.65392303 
0.07037719 -0.9938793 0.08515319 
-0.36006796 -0.7589214 -0.5425768 
-0.683978 -0.57938737 -0.4432656 
-0.21685462 -0.11119029 -0.96985096 
-0.103857785 -0.47493115 -0.87387305 
-0.2429985 -0.22878836 -0.9426599 
-0.10635925 -0.05617497 -0.9927397 
0.18137988 -0.46480072 -0.86663824 
-0.36635655 -0.61326903 -0.6997743 
-0.6573507 -0.03920365 -0.7525644 
0.2301051 -0.31718335 -0.9200253 
0.19459596 -0.5569827 -0.80740505 
-0.067685455 -0.9933648 -0.09297824 
-0.6136837 -0.78187174 -0.10985866 
-0.37865672 -0.83320093 -0.40298292 
-0.49151722 -0.8026581 -0.33786213 
-0.15587799 -0.9874044 0.027102694 
-0.40585175 -0.9008546 0.15409553 
-0.8929282 -0.4124494 0.18045771 
-0.6040939 -0.7027546 -0.3757747 
-0.11794644 -0.78749794 -0.6049262 
0.38868865 -0.69335747 -0.6067755 
-0.20956834 -0.33124915 -0.91997564 
-0.22625947 -0.87330574 -0.43144402 
-0.5103391 -0.3729925 -0.7748747 
-0.37277022 -0.26529506 -0.88919127 
-0.6976247 -0.65263546 -0.29561263 
-0.58596015 -0.6747798 -0.44869033 
-0.19214602 -0.9811599 0.020132955 
-0.5710547 -0.49846238 -0.6522514 
-0.6683586 -0.093944795 -0.73788285 
-0.5095477 0.11676797 -0.8524825 
-0.49061093 0.08622394 -0.8671024 
-0.6251363 -0.3551697 -0.6950245 
0.054614235 0.21494848 -0.9750971 
0.33433902 -0.07708625 -0.93929505 
0.10627342 -0.11427864 -0.98774815 
0.1529748 -0.1700781 -0.9734846 
0.35445648 -0.5477172 -0.7578698 
0.24007072 -0.8680947 -0.43448552 
-0.7517811 -0.38101625 -0.538193 
-0.18824944 -0.4754202 -0.85938215 
-0.41371217 -0.052270245 -0.90890604 
-0.34743258 0.06306784 -0.9355817 
0.10708277 -0.5586121 -0.82248765 
0.41466522 0.26259184 -0.87126243 
-0.5255638 0.14142056 -0.83891785 
-0.12935525 0.55125594 -0.8242476 
0.53696615 0.16744994 -0.8268179 
0.45547324 0.3779698 -0.80602926 
0.11301408 0.7242011 -0.6802652 
0.28171834 0.31780759 -0.905336 
0.09952242 -0.64616776 -0.7566787 
-0.50908273 -0.8582237 0.06547486 
-0.9092481 -0.41358984 -0.0470243 
-0.67989755 -0.6365219 -0.36411452 
-0.31913564 -0.38342568 -0.8666817 
-0.22891183 0.2024049 -0.95217204 
-0.25776738 -0.062092166 -0.96420985 
-0.036724817 0.39648482 -0.9173064 
-0.18047474 0.9271971 -0.3282293 
-0.88032395 -0.065315396 -0.46985504 
-0.1742123 -0.054668043 -0.9831895 
-0.35349688 -0.11369532 -0.9285006 
0.23848772 -0.14728524 -0.9599118 
0.93899584 -0.27082437 -0.21199264 
0.020469114 -0.892487 -0.45060846 
-0.1012133 -0.8057852 -0.5834949 
-0.13802347 -0.04520194 -0.9893969 
0.4299815 -0.14286062 -0.8914633 
0.07334558 -0.121926434 -0.9898254 
0.28793013 0.027819213 -0.9572473 
-0.28732654 -0.4531605 -0.8438538 
-0.1230564 -0.089333914 -0.98837066 
0.017210795 0.0438171 -0.9988914 
0.44071043 0.6151706 -0.65371203 
0.25523117 0.1277562 -0.9584025 
0.4581482 0.43908903 -0.7728525 
0.29504007 -0.29155296 -0.90991664 
0.58929235 -0.35873815 -0.7239072 
0.7790375 -0.53580785 -0.3255926 
0.30541578 -0.3664194 -0.878896 
0.7178128 -0.44290212 -0.53719884 
0.03462688 -0.2953679 -0.9547559 
0.09993496 -0.12604381 -0.98697823 
0.6715161 -0.74022704 -0.0336162 
0.18442932 -0.84331346 -0.5047854 
0.8102127 -0.48457247 0.32976493 
0.5163025 -0.84536463 -0.13707852 
0.1572455 -0.7207337 -0.67514205 
0.42068976 -0.06319023 -0.9050013 
0.4191537 -0.2051064 -0.8844443 
0.53566736 -0.327979 -0.77813256 
-0.059815824 -0.242429 -0.96832347 
0.489237 -0.16729037 -0.8559563 
0.9157761 -0.39523765 -0.07170367 
0.44405997 -0.8219597 0.35664138 
0.32326716 -0.5586122 0.7638394 
-0.020078622 -0.93168813 0.36270398 
-0.7817139 -0.59904206 0.17341316 
-0.91443527 -0.39803624 0.07331634 
-0.8197294 -0.48213807 0.30917096 
-0.7848501 -0.58796495 -0.19572367 
-0.19428419 -0.91563714 -0.35194096 
-0.39400023 0.25571802 -0.88282055 
-0.2775154 0.32204014 -0.9051383 
-0.50982755 0.74067694 -0.43757692 
0.06270515 0.62598324 -0.7773115 
-0.3091428 0.013182107 -0.9509243 
-0.2177275 0.80356705 -0.5539629 
-0.13486077 0.21379843 -0.96752405 
-0.69863343 -0.39239162 -0.5982811 
-0.44131443 -0.2734746 -0.8546656 
-0.26622316 -0.7052669 -0.65705705 
0.009318028 -0.31417504 -0.9493194 
0.24462262 0.17168133 -0.9542984 
0.023548257 -0.19836092 -0.9798462 
0.27438948 -0.057068367 -0.9599238 
-0.028543573 -0.546711 -0.8368347 
-0.1300357 0.0462397 -0.9904306 
-0.48466733 0.8645757 0.13268957 
-0.60407764 0.6686965 -0.43351495 
0.2803114 0.009763381 -0.9598595 
-0.25716892 0.31227484 -0.914521 