# OOMMF: rectangular mesh v1.0
# Segment count: 1
# Begin: Segment
# Begin: Header
# Desc: Time (s) :  6.580000000000014e-07
# Title: m
# meshtype: rectangular
# meshunit: m
# xbase: 2e-09
# ybase: 2e-09
# zbase: 5e-10
# xstepsize: 4e-09
# ystepsize: 4e-09
# zstepsize: 1e-09
# xmin: 0
# ymin: 0
# zmin: 0
# xmax: 1.024e-06
# ymax: 1.024e-06
# zmax: 1e-09
# xnodes: 256
# ynodes: 256
# znodes: 1
# ValueRangeMinMag: 1e-08
# ValueRangeMaxMag: 1
# valueunit: 
# valuemultiplier: 1
# End: Header
# Begin: Data Text
-0.3294581 0.23751909 -0.9138063 
-0.83947456 -0.09403237 -0.5352014 
-0.8465358 0.3888391 -0.36356744 
0.039268307 0.047147296 -0.99811584 
-0.27008232 -0.5450541 -0.7937075 
-0.4525444 -0.4116505 -0.79104203 
0.10615811 -0.14240743 -0.9840989 
-0.09251491 -0.41657934 -0.9043798 
0.041134786 -0.88363945 -0.46635738 
0.52494586 -0.8102679 -0.26057222 
0.08571551 -0.4873287 -0.86900157 
0.6881109 -0.01827463 -0.7253754 
0.4609728 -0.17354837 -0.8702788 
0.81563425 -0.5464552 -0.19007258 
0.57666665 -0.7987961 -0.17140749 
0.64086306 -0.7601065 -0.1073905 
0.44446838 -0.8940041 0.056609917 
0.25583914 -0.9539984 0.15631232 
0.94051224 -0.26054165 0.21807082 
0.9533269 -0.05748483 0.2964175 
0.64643604 0.29496235 -0.703646 
0.676988 -0.5782601 -0.455305 
0.8883535 -0.3458541 0.30201486 
0.9192952 -0.38874957 0.061401986 
0.7484842 -0.545519 0.37706837 
0.06663674 -0.41084167 0.90926826 
-0.9741626 -0.15582427 0.16348116 
-0.73601425 -0.434786 0.51888746 
-0.73734105 -0.66357285 -0.12648845 
-0.8868276 -0.34495088 -0.30748287 
-0.77426577 -0.13122815 -0.61910564 
-0.5916089 -0.5663654 -0.57378495 
-0.27990547 -0.34106657 -0.8973999 
-0.3944141 -0.49026278 -0.7772258 
0.21376044 -0.91200167 -0.35008496 
0.37318292 -0.7820363 -0.49915317 
0.11065968 -0.6872479 -0.71794486 
0.29694575 -0.7565139 -0.5826749 
-0.25138384 -0.90792096 -0.3353892 
-0.34938207 -0.32572398 -0.87854207 
-0.6530614 -0.4575042 -0.60349053 
-0.09184807 0.029482597 -0.9953365 
-0.16818343 -0.6562416 -0.73556876 
-0.5454861 -0.35413218 -0.75962853 
-0.22349238 0.102978505 -0.9692506 
-0.0882854 0.3484631 -0.93315554 
-0.34702793 0.37656394 -0.8589361 
0.4443853 0.4749067 -0.7595956 
0.8875665 0.0005968481 -0.46067947 
0.8044809 -0.22598997 0.5493079 
0.71743304 0.4320053 0.5464991 
0.61446357 -0.1149005 0.78053343 
0.59083235 -0.2049788 0.780321 
-0.62362844 -0.7535268 -0.20805025 
-0.03888477 -0.8791317 -0.47499007 
0.38077265 -0.8554354 -0.35105935 
0.016936932 -0.99985224 -0.0029737623 
-0.15641712 -0.9575267 -0.24223228 
0.48356473 -0.8004447 -0.35419434 
0.34447932 -0.84822327 0.40230745 
0.12053321 -0.7460436 -0.65489745 
-0.25415212 -0.89402544 0.36895168 
-0.3923338 -0.39581177 -0.83030546 
0.40763912 -0.9129023 0.020972496 
0.3849753 -0.8677157 -0.3144256 
0.43706152 -0.7188206 -0.54062396 
0.6303096 -0.76926637 0.10459079 
0.25419602 -0.77991426 -0.57194257 
0.6807457 -0.6263113 -0.37989402 
0.7726783 -0.37964818 -0.508759 
0.7598279 -0.6175213 -0.2032956 
0.59070235 -0.6459009 -0.4836142 
-0.4620281 -0.76644313 -0.44620076 
-0.30218977 -0.4494238 0.8406544 
0.03445253 -0.35582137 0.9339188 
-0.41932568 -0.7367425 0.53044933 
0.022497792 -0.9963206 0.08269871 
-0.12824555 -0.750856 0.6478955 
0.50485605 -0.83219266 0.22929421 
-0.21435228 -0.7863965 0.57933897 
-0.45363516 -0.8692544 0.19649917 
-0.0795638 -0.5097918 0.8566107 
-0.56933206 -0.16064455 -0.8062596 
-0.08017241 -0.3121691 -0.9466377 
0.04794114 -0.1554996 -0.9866719 
0.73030454 -0.25010622 -0.6356903 
0.37054172 -0.764442 -0.52756727 
0.8162771 -0.13936365 -0.56059754 
0.8228263 -0.021143695 -0.5678996 
0.58790785 0.18413581 -0.7876919 
0.152607 0.1012914 -0.9830825 
-0.3132926 0.038040243 -0.94889456 
-0.006557706 -0.10893053 -0.99402773 
0.4276364 -0.47099456 -0.77155125 
-0.5419741 -0.6761326 -0.49910805 
-0.6734434 -0.7368122 0.059848424 
-0.5145706 -0.30156454 -0.80266815 
0.3432454 0.45660722 -0.82078785 
-0.20751685 0.46228775 -0.862106 
0.5458746 0.1607992 -0.82229227 
-0.58296674 0.13624592 -0.8009913 
-0.75399166 -0.1601721 -0.6370569 
-0.18314102 -0.29023212 -0.9392682 
-0.4016246 -0.41914612 -0.8142568 
-0.28307435 -0.4710656 -0.83544374 
0.66616446 -0.47747955 -0.57292086 
0.40490285 -0.33750257 -0.8497915 
0.43810424 -0.3344146 -0.83440495 
0.8397929 0.1538451 -0.520653 
0.85826725 0.008836827 -0.5131271 
0.22223844 -0.95260775 -0.2077226 
0.6189161 -0.6496682 -0.44144544 
-0.13410263 -0.92558056 -0.35400182 
-0.32142797 -0.6615976 -0.67747533 
0.49435923 -0.2543144 -0.831224 
0.3410064 -0.8974519 -0.27981195 
0.04572983 -0.9502759 -0.30803335 
-0.088835776 -0.2872725 -0.9537205 
0.37377188 -0.24661712 -0.8941334 
0.8967222 -0.043693505 -0.44043198 
0.9369265 -0.30325252 -0.17380126 
-0.5106933 -0.0014900074 0.8597618 
-0.6327973 0.7166711 0.2931725 
-0.39113224 0.056692425 -0.91858673 
-0.8399722 0.03848606 -0.5412629 
-0.9976314 0.027853161 0.062896095 
-0.88904417 0.29501444 0.35009584 
-0.87397176 -0.4243858 -0.23679134 
-0.5512216 -0.24795683 -0.7966632 
-0.51536727 0.23883203 -0.8230164 
-0.43653813 -0.1399356 -0.88873655 
-0.30381206 0.016449377 -0.95259005 
-0.03503441 -0.5654965 -0.8240063 
-0.37143937 0.5789485 -0.72584534 
-0.25518015 -0.82349294 -0.5066976 
-0.35429364 -0.3844001 -0.85247445 
0.5584575 -0.45002124 -0.69685453 
0.8784313 -0.43306765 -0.20201723 
0.72705835 -0.040793277 -0.68536276 
0.53758955 -0.6891573 -0.4858598 
0.39271846 -0.7681581 -0.50567317 
0.08435324 -0.5085614 -0.8568838 
-0.23514043 -0.7748244 -0.58681875 
0.4985823 -0.12315384 -0.8580495 
-0.27926144 -0.9210158 -0.27155676 
0.023233667 -0.60647166 -0.79476565 
0.066810384 -0.8873892 -0.4561545 
0.5188485 -0.6608754 -0.5422545 
0.91163963 0.055317067 -0.4072507 
0.9131252 -0.0835055 -0.39903548 
0.6490647 -0.44147122 -0.6195306 
0.4906744 -0.85183865 0.18332921 
0.5214079 -0.6308543 -0.5745927 
0.67902285 -0.27207443 -0.68183833 
-0.15952367 -0.69968337 -0.6964162 
-0.02894881 -0.7595155 -0.64984477 
0.36875358 -0.82548386 -0.427314 
0.26722044 -0.71421343 -0.64690995 
0.06485829 -0.62937677 -0.774389 
-0.00796769 -0.6494964 -0.76032305 
0.6959445 -0.34468186 -0.6299649 
0.57418716 -0.8061276 -0.14306474 
0.59277606 -0.1825212 -0.7844123 
0.5073466 -0.6192711 -0.5992518 
0.24724454 0.2897456 -0.92461765 
0.17377856 0.05180223 -0.9834213 
0.40721086 0.85011953 -0.33388034 
-0.9927835 0.10771828 -0.05270371 
-0.23413 0.31037712 -0.92133015 
0.8353885 -0.10070974 -0.5403553 
0.6091076 0.020784311 0.79281527 
0.13952175 -0.18276589 0.9732062 
0.42193356 -0.35976055 0.83219254 
0.06515428 -0.89610344 0.4390371 
0.2889346 -0.94281036 0.16620953 
-0.56447875 -0.35060003 -0.74729073 
0.17903705 -0.9423798 -0.2826059 
0.32283443 -0.04704953 -0.9452854 
0.8828713 -0.25190058 -0.39633885 
0.44957414 -0.54972553 -0.70404905 
-0.98646 -0.16315043 0.01669669 
0.20446728 -0.9425334 -0.2642423 
-0.08161534 -0.1494806 -0.98539054 
0.3051301 -0.41344643 -0.8578797 
-0.19128092 -0.53094834 -0.8255335 
0.39690578 0.24208455 -0.88535917 
0.47721437 -0.43031523 -0.7662214 
0.6800302 0.38620225 -0.62322295 
0.8725582 -0.48850763 0.0015919876 
0.106887266 -0.8504284 -0.51511824 
-0.11942832 -0.9142847 -0.38706663 
0.5469228 -0.60124856 -0.58255965 
0.1615404 -0.7574017 -0.63265103 
-0.027381726 -0.5229385 -0.8519306 
-0.25571066 -0.56502515 -0.7844481 
-0.2784753 -0.4984646 -0.82096565 
-0.39681882 -0.82504296 -0.40229225 
-0.19970322 -0.958121 -0.20523873 
0.29872754 -0.9425473 -0.14955452 
0.19182296 -0.97334015 -0.1257495 
0.42205355 -0.9033938 -0.07583125 
0.8533503 -0.4291188 -0.29605827 
0.17287673 -0.9659981 -0.19225356 
-0.2828145 -0.94882405 -0.1405308 
-0.34947616 -0.8321182 0.43063432 
-0.20121813 -0.93604565 0.2886691 
0.114151776 -0.6284013 -0.76946825 
-0.13849932 -0.23290169 -0.96258754 
0.54845303 -0.064849064 -0.83366287 
0.09688774 -0.6614149 -0.7437359 
0.20061636 -0.97800016 0.05717338 
0.26987684 -0.35386235 -0.89551544 
0.9324906 -0.3201248 0.1672768 
0.9143023 0.024443138 -0.40429434 
0.92440206 -0.049944725 -0.37813526 
0.8781636 0.18982925 -0.43908256 
0.53884125 -0.3344678 -0.77316326 
0.26777098 -0.18064637 -0.9463962 
0.11664579 -0.31574947 -0.9416454 
0.07949128 -0.13651961 -0.987443 
0.66841036 0.51668096 -0.53504056 
0.627719 -0.43207192 -0.64752054 
0.4416585 0.13298938 -0.88727206 
0.08209361 -0.55991346 -0.8244742 
-0.17020057 -0.9845465 -0.04123237 
-0.24208611 -0.96469307 -0.10373883 
0.7402219 -0.6684166 0.072737694 
0.22683524 -0.96040976 0.161737 
0.055471018 -0.87494415 0.4810363 
0.04747736 -0.9878558 -0.14794256 
-0.4838758 -0.8721494 -0.0722473 
0.07215821 -0.78093594 -0.62042904 
0.12647358 -0.46008202 -0.8788225 
0.4668489 -0.53131866 -0.7069319 
0.49998584 0.22863926 -0.8353073 
0.90133256 0.21862076 -0.3739046 
0.37466067 0.83057845 0.41202998 
0.20524055 0.97175664 -0.11647079 
0.7295974 0.6831056 -0.032473855 
0.4100527 0.43717209 -0.80046076 
0.56440216 -0.10749529 -0.81847113 
0.9013768 -0.42541355 -0.08089044 
0.11374507 -0.9933364 -0.018571213 
0.010589316 -0.8311097 0.55600786 
-0.20976642 -0.9277049 -0.30880716 
0.386619 -0.91482186 0.116734356 
-0.28952068 -0.93201643 0.21799853 
0.20686984 -0.9293679 0.30574542 
0.23435707 -0.77311325 -0.58938324 
0.8233874 -0.37647307 -0.42461917 
0.5994598 -0.8004001 -0.0027747876 
0.09760992 -0.47973284 -0.8719683 
0.2895766 -0.7823683 -0.551403 
0.37931693 -0.6324636 -0.6753582 
0.76113534 -0.18347347 -0.62210166 
0.7622946 -0.52785665 -0.37453213 
-0.6259672 -0.6892675 -0.3647951 
-0.62946033 -0.04552686 -0.7756979 
-0.43201885 0.29050308 -0.8537961 
-0.14492312 0.023665402 -0.9891599 
0.55910546 -0.75958884 -0.3323037 
-0.085021876 0.75283617 -0.6526937 
0.25001562 0.49843022 -0.83009607 
0.021875767 -0.37909785 -0.925098 
0.8022216 -0.17901894 -0.5695549 
0.18869473 -0.76565635 -0.6149511 
0.18092813 -0.44147918 -0.87884086 
0.2978384 -0.40886125 -0.86262673 
0.66461796 -0.19020802 -0.7225677 
0.7512136 -0.4063338 -0.5201644 
0.3041958 -0.9076641 -0.28915542 
0.4597358 -0.72324693 -0.5153222 
0.511492 -0.84548503 0.15339848 
0.30385336 -0.91541344 -0.26399133 
0.8480331 -0.50325024 -0.16607022 
0.8246895 -0.4308404 -0.36642033 
0.84612435 -0.5175131 0.12749128 
0.8880385 0.030330764 -0.45876765 
0.6025994 -0.6796078 -0.41833872 
0.7139544 -0.6998308 -0.022497581 
0.7581767 -0.09218531 0.6454998 
0.5183762 -0.29621536 0.8022111 
0.21377234 0.15580602 0.9643786 
-0.9308504 0.29562193 0.21476789 
-0.9733732 -0.0806666 -0.21456403 
-0.89822805 -0.09709227 -0.4286719 
-0.50443375 0.3791637 -0.7757458 
-0.46386677 -0.10878043 -0.87920105 
-0.75733924 -0.5905281 -0.27877253 
-0.0028081636 -0.7286686 -0.68486077 
0.33418918 -0.744021 -0.5785762 
-0.15086585 -0.35611686 -0.9221824 
-0.19899403 -0.8287352 -0.52306724 
-0.019712634 -0.7363852 -0.6762753 
-0.6230125 -0.5862505 -0.5178473 
-0.3234121 0.12010045 -0.9386056 
-0.3673382 0.7480752 -0.55267197 
0.34249535 0.25389656 -0.90456265 
-0.71539146 -0.020236434 -0.69843084 
-0.18840528 -0.08354158 -0.9785318 
0.3061211 -0.3379214 -0.88999945 
0.009797198 0.17160803 -0.98511666 
0.082786225 0.05987562 -0.99476707 
-0.09322699 0.20163251 -0.9750144 
0.3953483 0.117297485 -0.91101104 
0.70512235 -0.19774842 -0.68095386 
0.97253 -0.2085382 0.10342774 
-0.042353716 -0.6602312 0.7498673 
0.4531737 -0.78309697 0.42590234 
0.062084574 -0.988789 0.13580045 
-0.29257157 -0.94891673 -0.11814769 
0.40372217 -0.8546549 -0.32645592 
0.27410153 -0.8314281 -0.48331755 
-0.17275713 -0.6706708 -0.72135687 
-0.13073716 -0.84948295 -0.5111619 
0.73131424 -0.53382087 0.42451712 
0.34993958 -0.60850155 -0.7122277 
-0.50481355 -0.8347824 0.21977617 
-0.9212614 -0.26435697 -0.28529426 
-0.33591154 -0.75920856 -0.55746377 
-0.3805677 -0.51830685 -0.76585007 
-0.69408834 -0.4029194 -0.5965713 
-0.5745453 -0.6827302 -0.4514168 
0.09063945 -0.5403918 -0.8365174 
0.55782825 -0.26229826 -0.7874182 
0.8066475 -0.0838349 -0.58505684 
0.6334 -0.7041071 -0.32099473 
0.4564788 -0.88922894 -0.02998674 
0.065436155 -0.9422384 -0.3284889 
-0.011771565 -0.87086064 0.491389 
-0.09424494 -0.9831721 0.15649454 
-0.37759116 -0.92298985 -0.07426194 
0.088845536 -0.9771911 -0.19288343 
0.2633815 -0.94320214 0.20248434 
0.09369663 -0.90479076 -0.41542134 
0.42815402 -0.7572948 0.4931418 
-0.43541065 -0.8084889 -0.39593357 
-0.1734076 -0.85286134 -0.49250108 
0.31013724 -0.13840546 -0.940563 
-0.5919508 -0.30067432 -0.74778956 
-0.51708627 -0.38784698 -0.7630182 
0.20003003 -0.4879305 -0.849654 
0.6526522 -0.0044209054 -0.75764483 
0.6543024 0.3263243 -0.68220294 
0.75396746 0.50318617 -0.42229953 
0.80047727 0.398876 -0.44736335 
-0.025463132 0.14075592 -0.9897168 
-0.39392266 0.0467947 -0.91795164 
-0.018196972 0.36536592 -0.9306861 
0.3040741 -0.10356816 -0.947002 
0.14409488 -0.55335045 -0.8203901 
-0.16351245 -0.42198974 -0.8917334 
-0.16014487 -0.34552458 -0.924644 
-0.5872748 0.24008518 -0.7729602 
-0.3665569 -0.09127084 -0.9259081 
-0.47386217 -0.0035427012 -0.880592 
0.19215597 0.3735218 -0.90750074 
-0.29183948 0.1001981 -0.95120454 
-0.3389664 -0.055208914 -0.9391772 
-0.35867262 -0.6140159 -0.70309216 
-0.60930884 -0.04249824 -0.79179335 
0.23152459 -0.82484454 -0.51577884 
0.50248706 0.020277984 -0.8643469 
0.5475417 0.39654526 -0.7368515 
0.6713227 -0.7235222 -0.16075295 
0.23076916 -0.2669183 -0.9356817 
-0.101652466 -0.92018014 -0.3780679 
0.017148651 0.1276706 -0.9916684 
0.43490523 -0.59970784 -0.67172015 
0.20462367 -0.11088046 -0.9725404 
-0.03721221 0.44101894 -0.896726 
0.5463912 -0.2907677 -0.7854368 
0.036113672 -0.9093261 -0.41451392 
0.14588374 -0.4827361 -0.8635298 
0.9394804 -0.017552596 -0.3421529 
0.95760393 0.26708162 0.1079912 
0.738548 0.67010355 0.07421696 
0.19678666 0.2453258 0.9492578 
-0.16495314 0.7573873 0.63178724 
-0.69759333 0.6872878 0.20248236 
-0.9217521 0.07053183 0.3813116 
-0.88991827 0.015895408 0.4558431 
-0.88567686 0.25464645 0.38824186 
-0.9836405 -0.17196645 0.053656563 
0.107965745 0.46088007 -0.88087064 
0.02452128 -0.27181205 -0.962038 
0.10333583 -0.21119776 -0.9719656 
-0.011812524 0.30613202 -0.9519158 
0.5392924 -0.04069944 -0.84113455 
0.2752307 0.05503711 -0.9598016 
-0.119472854 0.076757625 -0.9898659 
-0.11649668 -0.45042348 -0.885182 
0.64628893 -0.52056503 -0.5579631 
0.1299434 -0.367685 -0.92082715 
0.34824258 -0.1383608 -0.9271373 
-0.008448042 -0.39903814 -0.91689545 
-0.35504782 -0.38274843 -0.85290366 
-0.26838803 0.016265262 -0.9631736 
-0.28967115 -0.54860413 -0.78429854 
-0.12620838 -0.5721062 -0.810411 
-0.12679243 -0.89225143 -0.43337178 
-0.13875845 -0.95082194 -0.27691835 
-0.3297654 -0.52040833 -0.7876739 
-0.25843123 -0.46669057 -0.845821 
0.3253316 -0.28005475 -0.9031771 
0.88426584 -0.33566576 -0.3246575 
0.2014696 -0.89113516 -0.4065565 
0.87214947 -0.4401579 -0.2135801 
0.42978492 -0.29059097 -0.85489297 
0.13604614 -0.13788643 -0.9810601 
0.22785373 -0.540128 -0.81015086 
-0.46877512 -0.05519689 -0.8815913 
0.50712544 -0.35751995 -0.78422153 
-0.14847004 -0.5476904 -0.8234027 
0.4414646 -0.31072995 -0.84175766 
0.16310085 -0.531585 -0.8311533 
-0.0077094305 -0.30550164 -0.9521604 
0.30761132 -0.3364537 -0.89004177 
0.20800026 -0.93640995 -0.2826172 
0.22849463 -0.43291813 -0.8719932 
0.072977036 -0.2270678 -0.9711409 
0.23789382 -0.48133534 -0.84363675 
-0.34112716 0.59569466 -0.7271728 
-0.54862136 0.43808326 -0.71210796 
-0.7047782 0.13408843 -0.6966406 
0.46510634 -0.29318723 -0.83529484 
-0.13510945 -0.9106787 0.390397 
-0.018788278 -0.53059953 0.84741443 
0.38728628 -0.9044926 0.17861249 
0.14911862 -0.9830667 -0.10650648 
0.08006542 -0.6032014 -0.79356 
0.052894082 -0.10000892 -0.9935797 
0.3993179 -0.07119828 -0.91404384 
0.6012463 0.7133745 -0.35999975 
-0.042625755 -0.05642336 -0.99749666 
0.362824 0.2656559 -0.8931885 
-0.9701802 -0.21288922 -0.11588199 
-0.44979557 -0.77759105 -0.43935898 
-0.20909762 -0.81824905 -0.53548735 
-0.14479415 -0.00015827363 -0.9894618 
-0.5741709 0.015559891 -0.81858766 
0.32581905 0.24059525 -0.91430634 
0.26070076 0.29427242 -0.9194775 
0.39396167 0.21398278 -0.8938711 
0.4856832 -0.30211416 -0.8202676 
0.6751788 -0.5284233 -0.5146867 
0.28816763 -0.9366816 -0.19896482 
0.32000765 -0.8621522 -0.39279625 
-0.056271568 -0.541447 -0.8388497 
-0.5744856 -0.5254687 -0.62757397 
-0.5027843 -0.57967657 -0.6412356 
-0.14876188 -0.4298791 -0.89054704 
-0.17235875 -0.73951304 -0.6507019 
0.24530818 -0.78152204 -0.57362634 
-0.3424075 -0.9364909 0.0757751 
0.013293101 -0.58818054 -0.8086204 
0.17264624 -0.57441086 -0.80015343 
0.046486937 -0.03195593 -0.99840766 
0.44224066 -0.026710585 -0.8964986 
0.017377043 -0.6151753 -0.7881989 
-0.35005432 -0.8283718 -0.4373352 
-0.18336359 -0.9737344 -0.13497917 
-0.259359 -0.535442 -0.803763 
-0.17535467 -0.6849275 -0.7071952 
0.18616562 -0.6292654 -0.7545644 
0.12636022 -0.80436957 -0.5805365 
0.05080387 -0.5820291 -0.8115794 
0.87235785 -0.30835953 -0.37934974 
0.51521915 -0.36409158 -0.775878 
0.47190404 -0.38464865 -0.7933172 
0.6975713 -0.5791787 -0.42183706 
-0.010746689 -0.867922 -0.49658433 
0.64121795 0.00733371 -0.76732373 
0.44105154 -0.8663469 -0.2343429 
0.10320719 -0.52806365 -0.8429098 
0.80297095 -0.28576773 -0.52304363 
0.6141667 0.6472498 -0.45151633 
0.07238777 0.22165559 -0.9724346 
0.15752594 0.15951292 -0.9745467 
0.79396564 -0.272767 -0.54333854 
0.51584363 -0.6505313 -0.55741775 
0.40473366 -0.63260597 -0.6603033 
0.20685661 -0.94663733 -0.24716035 
0.107345395 -0.8006019 -0.5895029 
0.021676006 -0.9431715 0.3315986 
-0.286659 -0.69240516 -0.6621192 
-0.15482861 -0.86641514 -0.47471365 
-0.12030742 -0.37747076 -0.91817325 
0.40623346 -0.3213681 -0.85539293 
0.51219994 0.15189108 -0.8453285 
0.59413147 0.31487283 -0.7401777 
0.6014084 0.751333 -0.27167356 
0.75561506 0.5353515 -0.3774187 
0.38120723 0.8838556 0.2710728 
0.545933 0.83602434 0.054959793 
0.8408845 0.5407555 0.022287494 
0.37227198 -0.34653726 -0.8610027 
0.55231744 -0.62721854 -0.5491287 
0.655155 -0.75219643 -0.070515595 
-0.36438197 -0.77038044 -0.5232017 
-0.024710346 -0.9365867 -0.34956393 
-0.035481445 -0.9730545 -0.22782919 
-0.18282907 -0.8915217 -0.41444275 
0.1843934 -0.96498287 -0.18656716 
0.2631753 -0.04429107 -0.9637308 
0.060129583 -0.4167632 -0.90702415 
-0.093607195 -0.74647236 -0.6587995 
0.5111292 -0.12609176 -0.85020465 
0.35958716 -0.24627899 -0.9000244 
-0.14474905 0.36036083 -0.92151386 
0.5680897 0.7382336 -0.36371034 
0.69671404 0.30365676 -0.64990944 
-0.24551666 -0.56726485 -0.78608674 
-0.61269224 -0.6216246 -0.48804837 
-0.36136657 0.48535198 -0.7961455 
0.43566698 -0.114304334 -0.8928208 
0.479617 0.0929657 -0.87253934 
-0.04233226 0.48751906 -0.8720856 
-0.0614652 0.4023531 -0.91341895 
-0.3153525 -0.5884037 -0.7445361 
0.6509978 -0.73787624 -0.17815873 
-0.072257586 -0.995878 0.054828025 
0.7061651 -0.55533713 -0.43923992 
0.3777283 0.012589165 -0.92583096 
0.43804765 -0.67897725 -0.58915544 
0.41028723 -0.38487068 -0.82676417 
-0.17385 -0.5828327 -0.7937773 
0.40710407 -0.69294256 -0.59506047 
0.28120208 -0.31655455 -0.9059352 
0.3704113 -0.58354694 -0.72268146 
0.24875024 -0.8899605 -0.38222206 
0.47872868 -0.5270792 -0.7021442 
0.35180375 -0.7671937 -0.5363284 
0.7495247 -0.15665706 -0.6431729 
0.5113342 0.11825497 -0.8512069 
0.21926872 -0.9720049 0.084426545 
0.062120114 -0.99078345 -0.12037174 
-0.14782326 -0.75054884 0.644069 
-0.8232848 -0.3316254 0.4606807 
-0.9551898 0.12924202 0.26628736 
-0.947695 0.25512177 0.1917994 
-0.9932846 -0.04247991 -0.10761637 
-0.9709662 0.23810266 -0.02306116 
-0.8699768 -0.03338293 -0.49196145 
-0.74819547 -0.50580466 -0.42937785 
-0.15227838 -0.69321775 -0.7044576 
-0.3583481 0.02845705 -0.9331543 
-0.8969452 0.2005482 -0.39404303 
-0.6840445 -0.06605964 -0.72644293 
-0.65256745 0.16998233 -0.73841846 
-0.1891797 -0.6534878 -0.73291534 
-0.17171682 0.21129963 -0.96221924 
-0.7726795 0.2401915 -0.5876006 
-0.13297674 0.41542798 -0.8998538 
-0.32023674 0.1109967 -0.94081247 
-0.30518246 -0.097475104 -0.94729215 
-0.23657152 0.028541055 -0.9711948 
-0.5862353 -0.3796754 -0.71566397 
-0.5115683 0.26806194 -0.8163582 
0.26002043 0.14256474 -0.9550208 
0.33565855 -0.08260824 -0.9383545 
0.33786473 -0.8773504 -0.34074023 
0.42835793 -0.6881341 -0.5856459 
-0.2625967 -0.926642 0.2690311 
0.2892222 -0.94536257 -0.1504662 
-0.13144054 -0.9656246 0.22426008 
-0.15407272 -0.77192646 -0.6167586 
0.028602907 -0.78866535 -0.614157 
-0.36441627 -0.8898616 -0.27449426 
-0.11057172 -0.5976282 -0.79411244 
0.38909185 -0.6606068 -0.6420329 
0.5692309 -0.6396175 -0.51659054 
0.32111868 -0.9135375 -0.24966381 
-0.36265188 -0.7812822 -0.5080176 
-0.47840324 -0.8173555 -0.32102993 
-0.14797097 -0.8970568 -0.41640574 
-0.018817334 -0.9512624 -0.30780804 
-0.36092857 -0.6013291 -0.7128352 
-0.543293 -0.5260134 -0.6543262 
-0.41791758 -0.49296772 -0.763104 
0.29913914 -0.41052434 -0.8613858 
0.7181781 -0.2265203 -0.65795815 
-0.174366 -0.537439 -0.8250793 
0.76631325 -0.37202033 -0.5237985 
0.033424992 -0.893272 -0.4482721 
0.15379964 -0.98169804 -0.112315536 
-0.089548014 -0.84076184 -0.53394824 
-0.61616707 -0.76529145 0.1861912 
-0.427101 -0.42949665 -0.7956867 
-0.7764872 -0.62921053 0.034086805 
0.053864196 -0.7120678 -0.7000416 
0.50072587 -0.6708115 -0.54707 
0.31074965 -0.80445886 -0.5062417 
0.3486409 -0.7556339 -0.5544971 
-0.08306081 -0.52379787 -0.8477835 
-0.44495156 -0.2621657 -0.856322 
-0.24380177 0.2525026 -0.93637776 
-0.31536835 0.106818214 -0.9429384 
0.2507039 -0.32925943 -0.9103493 
0.68649775 0.2756792 -0.67284614 
0.82396066 0.036782224 -0.5654519 
0.023856556 0.6303102 -0.77597684 
-0.44931954 0.33515748 -0.8281193 
-0.6393346 0.5580025 -0.52904123 
0.08242194 0.4779638 -0.874504 
-0.1514392 -0.14071193 -0.97839993 
0.08411896 0.058936916 -0.99471134 
-0.17945677 0.49462828 -0.85037535 
0.076324485 0.27648273 -0.9579832 
0.3126526 -0.46401787 -0.828816 
-0.4409186 -0.41168356 -0.79756355 
-0.4366347 -0.37505993 -0.81772876 
-0.4526558 0.16983189 -0.8753628 
-0.5086543 0.2590175 -0.8210851 
-0.31436354 -0.23812844 -0.9189508 
-0.39902014 -0.9079722 -0.12794316 
-0.3467036 -0.17143548 -0.922175 
0.6982907 -0.5679147 -0.43573272 
0.26471955 -0.09592693 -0.9595424 
0.19056697 -0.61949635 -0.7615172 
0.220679 -0.66247463 -0.7158409 
-0.1165648 -0.52425873 -0.84354347 
-0.9379303 -0.31913078 -0.13580309 
0.27691877 -0.3712469 -0.88627976 
0.60380876 0.089571245 -0.7920809 
0.34806395 -0.279855 -0.894725 
0.044354293 0.2704667 -0.96170706 
0.24470519 0.054126788 -0.96808565 
0.5340816 0.25395817 -0.8063883 
0.5945344 -0.03627604 -0.80325145 
0.5333834 0.1583429 -0.830921 
0.88264155 0.35551947 0.30748942 
0.33212757 -0.3042226 0.892827 
-0.18980305 0.16920456 0.9671322 
-0.17603509 0.6231128 0.76206434 
0.20286867 0.07027534 0.976681 
-0.53017694 0.36380327 0.7658719 
-0.8975133 0.35657537 0.25946873 
-0.99172425 -0.039274175 0.12223205 
-0.60841584 0.35144717 -0.7115583 
-0.5717806 0.51252615 -0.64061207 
0.30809492 0.6831565 -0.6620988 
-0.2521238 0.92024803 -0.29929477 
0.0068086325 0.89265734 -0.45068443 
0.043401234 0.53170574 -0.8458165 
-0.03739333 0.28788027 -0.9569361 
-0.09420696 -0.13183433 -0.98678505 
0.05424328 -0.4602802 -0.88611513 
0.1752388 -0.14373535 -0.9739772 
0.48948294 -0.17225748 -0.8548297 
0.11355833 -0.20048171 -0.9730939 
-0.4237212 -0.16301227 -0.8910036 
-0.82639486 -0.34484625 -0.44514337 
-0.7925593 -0.60951406 0.018501082 
-0.84074616 -0.47164643 0.26588643 
-0.07685392 -0.53637224 -0.840475 
-0.18298806 -0.8579469 -0.4800444 
-0.5065922 -0.15902676 -0.847393 
0.1514321 -0.51663697 -0.84270674 
0.10680808 -0.1908565 -0.9757899 
0.035786435 0.08459875 -0.99577224 
0.5695427 -0.26357 -0.7785576 
0.7767789 0.2355045 -0.5840824 
0.62549365 0.21640152 -0.74961865 
0.72209483 0.30123067 -0.62276745 
-0.5983705 0.05159251 -0.79955673 
0.24964245 0.4219854 -0.87155443 
-0.14791343 -0.19963485 -0.9686421 
0.40577066 -0.23735316 -0.88261753 
0.8492844 -0.24255489 -0.468917 
0.26582694 -0.4098185 -0.8725737 
0.20554973 -0.69681823 -0.6871636 
-0.018384537 -0.8411096 -0.5405523 
-0.3419682 -0.721106 -0.6025479 
-0.08843697 -0.42946383 -0.8987434 
-0.2556523 -0.8683696 -0.4249425 
0.101552375 -0.3603053 -0.92729026 
-0.56833965 -0.61037225 -0.55175704 
-0.21872734 -0.173452 -0.96024626 
-0.29938865 -0.15246662 -0.94187075 
0.13946816 0.19108802 -0.9716142 
-0.3129492 -0.76295894 -0.5656469 
-0.39661834 -0.85484076 -0.33457628 
-0.40293595 -0.89073324 0.21032573 
-0.20608073 -0.75345314 -0.624371 
0.6469131 -0.22783306 -0.72773314 
0.32415256 0.04538735 -0.9449154 
-0.007277974 -0.13415922 -0.9909331 
0.0150516 0.3397787 -0.940385 
-0.07536856 0.03101354 -0.99667335 
-0.13550772 0.12001289 -0.9834809 
-0.34537485 0.33952773 -0.87489265 
-0.6704639 -0.35926494 -0.6491586 
-0.2551661 -0.46309003 -0.84878623 
-0.41193762 0.02651865 -0.91082615 
-0.3866187 -0.53159565 -0.7536127 
-0.25634965 -0.27274624 -0.9273049 
0.113789745 0.28504995 -0.9517345 
0.20646006 -0.21769065 -0.95393145 
-0.14500652 -0.49051303 -0.8592846 
0.32962704 -0.62639934 -0.70637804 
0.30063853 -0.40836075 -0.8618921 
-0.0591577 -0.8638973 -0.50018173 
-0.13529176 -0.9848716 0.10827748 
0.343258 -0.7116172 -0.6130049 
-0.39594948 -0.22627538 -0.88995713 
-0.1364469 -0.6562379 -0.74211466 
0.085742325 -0.0008785682 -0.99631697 
0.59784883 0.12467083 -0.79185474 
0.5077608 -0.4573822 -0.7300552 
0.07142551 -0.55633336 -0.82788384 
-0.21861006 -0.44702038 -0.86739975 
0.40115258 -0.8265611 -0.39480805 
-0.47784445 -0.1227175 -0.8698306 
0.006270333 -0.085223906 -0.9963421 
0.21935853 -0.5372091 -0.8144252 
-0.06698126 -0.9141777 -0.39974084 
-0.62607145 -0.49819207 -0.5998661 
-0.26550567 -0.5062505 -0.82049817 
-0.23826702 -0.7429003 -0.62556213 
0.30123767 -0.78163624 -0.54616904 
-0.35045546 -0.35484105 -0.86675763 
0.28369552 -0.23153938 -0.9305409 
0.6542927 -0.14345433 -0.74251056 
0.43949285 -0.3788841 -0.81442803 
-0.19160616 -0.97007304 -0.14914864 
0.0987508 -0.4460188 -0.88955927 
0.18396856 -0.10186242 -0.97763985 
0.1322793 -0.9898013 -0.05287386 
-0.28681603 -0.9286649 -0.23519817 
0.028209774 -0.69797057 -0.7155706 
0.14825583 -0.13802187 -0.9792702 
0.3516969 0.6314459 -0.6910755 
0.5861649 -0.43365866 -0.68436176 
0.5688603 -0.10861029 -0.81523114 
0.5007132 -0.33028993 -0.8001218 
0.22504577 -0.12674467 -0.9660695 
-0.26076958 -0.68765104 -0.67759526 
-0.20642067 -0.38284835 -0.90045416 
-0.21980004 -0.6235601 -0.7502405 
-0.032692086 -0.86888415 -0.49393493 
-0.037117682 -0.5946355 -0.80313826 
0.08514643 -0.5471326 -0.832704 
-0.15907787 0.011750645 -0.98719615 
0.514215 0.4300126 -0.74207294 
0.25517932 0.7544968 -0.6046637 
0.53992575 0.51189363 -0.66816556 
0.496716 0.63008094 -0.59688467 
0.7325211 0.65782434 -0.17515728 
0.42962322 0.89961326 0.078230865 
0.62519914 0.53471935 0.56850797 
0.5843544 0.51329464 -0.62853694 
0.28403768 0.5821421 -0.7618617 
0.06358644 -0.7272437 -0.6834277 
0.2862211 -0.186816 -0.93977517 
0.5729053 -0.015599377 -0.81947315 
0.40574446 -0.8869384 -0.22070771 
0.47726983 -0.8572097 -0.19340415 
-0.04485773 -0.71497786 -0.69770664 
0.21336943 -0.82141995 -0.5289071 
0.54054403 -0.3606685 -0.7600858 
0.057736762 0.00519314 -0.99831843 
-0.27853456 -0.30187154 -0.9117523 
0.14062524 -0.09270996 -0.98571265 
0.20601903 -0.24330747 -0.9478174 
0.094002046 0.35877705 -0.928678 
0.3068139 0.6838317 -0.66199666 
0.3683432 0.037367582 -0.9289386 
-0.6478643 -0.72782123 -0.22482924 
-0.49414265 -0.26670402 -0.8274612 
-0.3727031 -0.66707176 -0.6450641 
-0.0048527014 -0.8728391 -0.48798424 
0.19911392 0.5464237 -0.8134956 
0.13151318 0.101568095 -0.98609746 
-0.47424576 0.2824341 -0.83385974 
-0.49237362 -0.22535267 -0.8407048 
0.21415576 -0.49744853 -0.84064394 
-0.18292521 -0.2342696 -0.95480686 
-0.13324119 -0.6782976 -0.72260594 
0.36840153 -0.30437908 -0.87842685 
0.04493938 -0.017418783 -0.9988379 
-0.42038593 -0.34075648 -0.8409286 
-0.34393623 -0.42060047 -0.83952546 
0.4147744 -0.41641185 -0.8090509 
-0.043223016 -0.68182886 -0.73023367 
0.5001003 -0.48583212 -0.7168451 
0.54765147 -0.5163005 -0.6584161 
0.50821406 -0.85044026 -0.13590445 
0.8834945 -0.42677218 -0.19313982 
0.4361945 -0.78297555 -0.4434903 
0.26888415 -0.9156368 -0.29884887 
-0.53168225 -0.76954997 0.35370457 
-0.17507213 -0.8684365 0.4638619 
-0.7321645 -0.6133668 0.2961694 
-0.77334076 -0.5637567 0.2900391 
-0.99981886 -0.00466549 -0.0184523 
-0.75698924 0.18454818 -0.62682474 
-0.80476326 0.41173258 -0.42758897 
-0.26110992 -0.31838828 -0.91129065 
0.113215506 0.07472299 -0.99075663 
-0.5127761 -0.22341192 -0.8289438 
-0.6448699 -0.36632058 -0.67078465 
-0.5725489 -0.15655452 -0.8047847 
-0.7836004 0.07318703 -0.61693937 
0.664798 0.04457639 -0.7456921 
-0.43632177 0.72045875 -0.5390385 
-0.58302885 -0.24677171 -0.7740679 
-0.106249176 0.32109156 -0.94106925 
-0.5299842 0.21771361 -0.81958383 
-0.08312935 0.5763814 -0.8129417 
0.31851777 0.379346 -0.86870205 
-0.30586612 0.06445803 -0.9498901 
0.308743 0.38323173 -0.8705235 
0.22973904 -0.099722154 -0.96812993 
-0.085101426 -0.3491766 -0.93318456 
0.6591613 0.06193571 -0.74944675 
0.74916357 -0.6494287 0.13037013 
0.35333523 -0.70901084 -0.6102932 
0.3185345 -0.69780743 -0.64156115 
0.786221 -0.5052026 -0.35584697 
0.23942448 -0.6801206 -0.6929012 
0.401198 -0.85290545 -0.3340548 
0.24483651 -0.27236274 -0.93052334 
0.06536944 -0.29326075 -0.95379514 
0.06562651 -0.89895254 -0.4331022 
0.20679556 -0.94317645 -0.26010343 
-0.3572551 -0.91250485 -0.19925794 
-0.19408011 -0.7465562 -0.6363858 
0.088676594 -0.58352643 -0.8072382 
0.09903057 -0.62711036 -0.7726097 
0.3647398 -0.9134177 -0.18064623 
-0.5143701 -0.7558669 -0.40507868 
0.02643937 -0.9091358 0.41565976 
-0.6265065 -0.6546861 -0.42293718 
-0.5079097 -0.63814664 -0.5786162 
-0.38171056 -0.3711659 -0.84648275 
0.42949083 -0.5837948 -0.6890003 
0.09611659 -0.361174 -0.9275317 
0.27864465 -0.37243792 -0.8852385 
0.37662625 -0.11298021 -0.91944987 
0.46824294 -0.81091857 -0.350941 
-0.09514356 -0.76224387 -0.64025944 
-0.5090442 -0.6130693 -0.604169 
-0.32647538 -0.8370629 -0.43902132 