# OOMMF: rectangular mesh v1.0
# Segment count: 1
# Begin: Segment
# Begin: Header
# Desc: Time (s) :  6.640000000000014e-07
# Title: m
# meshtype: rectangular
# meshunit: m
# xbase: 2e-09
# ybase: 2e-09
# zbase: 5e-10
# xstepsize: 4e-09
# ystepsize: 4e-09
# zstepsize: 1e-09
# xmin: 0
# ymin: 0
# zmin: 0
# xmax: 1.024e-06
# ymax: 1.024e-06
# zmax: 1e-09
# xnodes: 256
# ynodes: 256
# znodes: 1
# ValueRangeMinMag: 1e-08
# ValueRangeMaxMag: 1
# valueunit: 
# valuemultiplier: 1
# End: Header
# Begin: Data Text
-0.1429411 -0.093903914 -0.9852664 
0.39888936 -0.24234644 -0.88439566 
0.6696161 -0.21527398 -0.71082455 
0.4816287 -0.34998962 -0.80345565 
0.7351278 -0.18409733 -0.65245336 
0.5697535 -0.747787 -0.3408748 
0.79806304 -0.5194416 -0.30541077 
0.6914851 -0.6969617 -0.18998088 
-0.23678958 -0.80412656 0.5452625 
0.2547263 -0.94469607 -0.2065525 
0.3853065 -0.71110755 -0.5881029 
-0.3119494 -0.50532 -0.80457395 
-0.97012997 -0.24191037 -0.018089358 
-0.50297195 0.097244225 -0.85881484 
-0.31201336 -0.25120512 -0.91626614 
0.17986913 -0.5150862 -0.8380534 
-0.1412531 -0.9318754 -0.3341495 
0.91147363 -0.2558572 -0.3221071 
0.4518933 -0.8567519 -0.24853311 
0.3221213 -0.87416524 0.36341855 
0.47233742 -0.59064627 0.65424335 
0.419213 -0.51825947 0.7454312 
-0.5564933 -0.21454597 0.8026738 
-0.951764 -0.19164486 0.23961993 
-0.9198165 -0.3909534 0.03306011 
-0.7177622 -0.68597233 -0.11941341 
-0.57196265 -0.81979215 -0.028278979 
-0.72291267 -0.6618373 -0.19841562 
-0.82476175 -0.5306339 -0.19543734 
-0.57334644 -0.41711304 -0.70518833 
-0.39622608 -0.5568106 -0.7300458 
0.23089768 -0.06700059 -0.97066844 
-0.021060215 -0.9349092 -0.35426173 
-0.6106874 -0.75665563 -0.23352349 
-0.22309797 -0.2902698 -0.9305755 
0.63203657 -0.43324864 -0.642515 
0.9917308 0.10383267 0.07542506 
0.88448143 -0.29003316 0.36547688 
0.9190716 0.03551091 -0.3924874 
0.90423113 0.41736275 -0.09041312 
0.854985 -0.48610222 -0.1808462 
0.34317058 -0.83070374 -0.43836674 
0.81927586 -0.3146284 -0.4793706 
0.54651403 -0.72450346 0.42002043 
0.19964097 -0.8149373 0.54407793 
-0.33641714 -0.9298605 0.14893956 
-0.6189064 -0.6107868 -0.4938566 
0.16408843 -0.6365821 -0.7535505 
-0.49818712 -0.61771226 -0.6084745 
-0.3424692 -0.2990532 -0.89066386 
-0.61385584 -0.7892382 -0.01685723 
-0.2943049 -0.9032014 -0.31242883 
-0.086004265 -0.9945398 -0.05910994 
-0.20571008 -0.90495163 -0.3724861 
-0.042789146 -0.53162885 -0.84589595 
0.22826068 0.13889423 -0.9636418 
0.06342787 -0.653822 -0.75398517 
-0.4759196 -0.22515519 -0.85017985 
-0.53248215 -0.10548493 -0.8398427 
-0.5836051 -0.19605313 -0.7880155 
-0.05551696 0.14301834 -0.9881618 
-0.50939167 -0.3233653 -0.797468 
-0.3059708 -0.8829094 -0.3561641 
0.08632814 -0.87676454 -0.47310826 
0.95157665 -0.16441332 -0.2597502 
0.47598103 -0.8793914 -0.010624159 
0.22437032 -0.80295175 -0.55220145 
0.31873667 -0.9310168 0.17780538 
-0.36794564 -0.9280737 -0.057403546 
-0.53024155 -0.012004854 -0.8477617 
0.23446043 0.0067636496 -0.97210217 
-0.4380429 0.5473941 -0.71307653 
-0.28259465 -0.33625218 -0.8983734 
0.32634556 -0.1264975 -0.93674815 
0.43712354 -0.17197582 -0.88280654 
0.3873025 -0.7554769 -0.5284426 
0.66316724 -0.32236353 -0.6754931 
0.7910052 -0.34893286 -0.5025501 
0.78171 -0.6028183 0.15981133 
-0.17198083 -0.9054966 -0.3879415 
-0.17556119 -0.9011987 -0.39625642 
-0.12132033 -0.18772598 -0.97470015 
0.17514151 -0.85563326 -0.48704955 
-0.25709546 -0.8764933 -0.4070156 
0.3627218 -0.92220426 -0.13406032 
-0.5934444 -0.36876237 -0.71542865 
-0.57267725 -0.11221623 -0.81206423 
0.03051172 0.26364797 -0.96413636 
0.12809582 -0.42790267 -0.8947016 
0.17038143 -0.76172143 -0.6251006 
0.35260773 -0.92079026 -0.1667729 
-0.056456324 -0.8582751 -0.51007503 
-0.14725682 -0.37388816 -0.915709 
-0.48122665 -0.30747262 -0.8209029 
-0.540604 -0.5067619 -0.6715205 
0.4100384 -0.8042972 -0.43008667 
0.52406806 -0.38765398 -0.7583384 
0.9581286 -0.022815619 -0.28542808 
0.5803234 -0.47105205 -0.66433036 
0.45890334 -0.6685559 0.5851844 
-0.5004575 -0.85130084 -0.15757291 
-0.67640704 -0.6643216 -0.3180414 
-0.09709223 0.29676732 -0.9500012 
0.60138655 -0.43152493 -0.67239916 
0.28490672 -0.61955106 -0.73142654 
0.72169447 -0.4574706 -0.5194976 
0.487024 0.07091243 -0.87050515 
0.34660333 -0.30173653 -0.88815606 
0.28442785 -0.48742908 -0.8255385 
0.3349853 -0.6319136 -0.69890636 
0.81390285 0.066283114 -0.5772078 
0.9153014 0.06435453 -0.39759505 
0.40336835 -0.035298675 -0.9143566 
0.30374327 -0.1746638 -0.93660706 
0.9539325 -0.29787046 -0.035859853 
0.3199391 0.23655872 -0.91743064 
0.028415091 -0.06778477 -0.9972953 
-0.46300423 -0.2140603 -0.86011934 
-0.4233539 -0.45578486 -0.7829634 
-0.17570435 -0.9493131 -0.26063925 
0.22666672 -0.7416758 -0.6312996 
0.515195 -0.24756294 -0.8205406 
-0.33576384 -0.11167261 -0.9353031 
-0.4314105 -0.3847156 -0.8160142 
-0.7067638 -0.60397685 -0.3683706 
-0.7531708 -0.65577024 0.05195357 
0.2855545 -0.6663509 -0.6887925 
0.17281216 -0.79663175 -0.5792356 
-0.12716207 -0.76478153 -0.63161635 
-0.028253365 -0.9425255 -0.33293778 
-0.2801639 -0.8920725 -0.3545629 
0.5453036 0.03930944 -0.8373165 
0.18950826 -0.014029614 -0.981779 
0.33250305 -0.6311642 -0.70076644 
0.19778313 -0.856095 -0.47747594 
-0.17930979 -0.9727374 0.14707193 
-0.40249917 -0.7285385 -0.5542798 
-0.447702 -0.88665456 -0.11578793 
-0.07522662 -0.9510192 -0.29983914 
-0.3132902 -0.9244206 0.2174761 
-0.6609555 -0.25389022 -0.7061711 
-0.6719884 -0.1258338 -0.72979283 
-0.5939987 0.029123468 -0.8039387 
-0.61975676 0.42292392 -0.6610878 
-0.16559128 -0.33289826 -0.9283094 
-0.26423916 0.026653305 -0.96408886 
0.71017194 0.17601311 -0.6816709 
0.5809397 -0.56782925 -0.58316296 
-0.34748518 -0.7887512 -0.50707567 
0.15971485 -0.80367345 -0.5732366 
-0.10706307 -0.5698499 -0.8147445 
-0.30337554 -0.73995787 -0.6003547 
0.3157375 -0.7888419 -0.5272934 
0.89683217 -0.17567213 -0.40599436 
0.40303835 -0.32704896 -0.8547509 
0.6224198 -0.16973978 -0.7640564 
0.36198708 -0.4945636 -0.7901723 
0.32597032 -0.41183233 -0.85096276 
0.6151604 0.007557615 -0.78836584 
0.4264198 -0.023075463 -0.90423095 
0.24943615 -0.9013585 -0.3540264 
0.29438487 -0.9457195 0.13766745 
0.048766423 -0.8166313 0.5750959 
-0.33779284 -0.66304773 0.6680297 
-0.049116876 -0.99860346 0.019459154 
-0.18324214 -0.9273134 0.3263624 
-0.5182218 -0.40023917 0.7558141 
-0.2674494 -0.5437248 0.7955088 
-0.5201609 -0.85336196 0.034730747 
0.33414435 -0.89614236 -0.29202157 
-0.28094372 -0.76839703 -0.57501024 
-0.39659187 -0.24906096 -0.883563 
-0.043307476 -0.99902743 -0.00828863 
0.008706693 -0.7849286 0.61952496 
-0.1214117 -0.5615054 -0.8185175 
-0.30570593 -0.43836454 -0.8452103 
-0.090683594 0.32798633 -0.94031984 
0.34746298 -0.60353816 -0.71764284 
0.32748532 -0.6659435 -0.670278 
-0.5406983 -0.38989082 -0.7454063 
-0.5657873 0.5635879 -0.601875 
-0.5729088 -0.30638662 -0.7601991 
-0.7188212 -0.048267994 -0.6935174 
-0.20636423 -0.6498417 -0.73151875 
-0.6528605 -0.19469066 -0.73203063 
0.059079997 -0.5666175 -0.8218603 
-0.17016286 -0.8007002 -0.5743901 
-0.24974076 -0.830905 -0.49721873 
-0.37996772 -0.7149035 -0.58697325 
0.16818796 -0.9772652 -0.12909557 
0.19267653 -0.9392286 -0.28412247 
-0.04711868 -0.620596 -0.7827135 
-0.11240676 0.38690475 -0.9152428 
0.10225755 0.46940887 -0.8770398 
0.059917912 0.75274503 -0.65557975 
-0.18188223 0.3648865 -0.9131137 
0.14290935 -0.64071095 -0.754365 
-0.24290295 -0.028576704 -0.96962965 
-0.25299665 -0.6111603 -0.74998397 
-0.08678088 -0.46360466 -0.8817822 
-0.4403104 -0.69634366 -0.56677365 
-0.39907914 -0.8998493 0.17608836 
-0.571467 -0.71415174 0.40424353 
-0.9426298 -0.11400986 0.313769 
-0.736884 -0.5579625 0.3816805 
-0.9191023 -0.20976655 -0.33354014 
-0.85535735 0.19992292 -0.47790653 
-0.6264871 -0.5032369 -0.595203 
-0.57740325 -0.29658127 -0.7606872 
0.11431505 -0.85927653 -0.49857414 
-0.14115393 -0.9399808 -0.3106634 
-0.5822127 -0.33850214 -0.739219 
-0.6253963 -0.09667057 -0.7742959 
-0.60909164 0.20354912 -0.7665345 
-0.93671167 0.025502324 -0.34917203 
-0.082890384 -0.7469939 -0.6596433 
0.286275 -0.86290556 -0.41646215 
0.29720923 -0.42285037 -0.856075 
0.18591739 -0.9742678 -0.12742443 
0.17870604 -0.96957695 0.16728629 
-0.32188302 -0.94654405 0.021114768 
-0.42076948 -0.8401581 0.3421806 
-0.56004864 -0.7041356 0.43650734 
-0.48075178 -0.6150053 0.625017 
-0.13453397 -0.16075306 0.9777828 
0.6095277 -0.78922874 -0.07479293 
0.15136442 -0.9627405 -0.22409713 
-0.045176405 -0.98573786 0.16211087 
-0.4851268 -0.82828116 0.28036135 
-0.5058994 -0.5739565 -0.64392525 
-0.38257915 -0.82207465 -0.42169482 
-0.09161995 -0.99389654 0.061445422 
-0.28247014 -0.8437707 0.45635718 
-0.39315 -0.919458 0.005482266 
0.2190999 -0.10817492 -0.9696873 
0.071160145 -0.40018895 -0.9136658 
0.19321576 0.22779033 -0.9543476 
-0.05184214 0.08614761 -0.9949327 
-0.08358457 -0.99151635 -0.09954419 
0.2613984 -0.036282953 -0.9645489 
-0.21513917 -0.004595791 -0.97657263 
-0.7844774 -0.31764016 -0.532635 
-0.19089992 -0.31089813 -0.9310745 
-0.06942008 -0.53750587 -0.84039766 
0.02737795 -0.46352008 -0.88566345 
0.41193634 -0.33027443 -0.84925103 
0.048712984 -0.6542651 -0.75469494 
0.503146 -0.45534703 -0.7345088 
0.39513132 -0.10778745 -0.91227907 
0.31296933 -0.18423986 -0.93172204 
0.29306123 -0.032774497 -0.9555318 
0.062052038 -0.5803587 -0.8119934 
0.9672556 -0.22082433 -0.12511346 
0.9495454 -0.06785541 -0.30620146 
0.98156726 -0.13983595 0.13027583 
0.14099915 -0.9900082 0.0017794995 
-0.26290724 0.08829478 -0.9607725 
0.72320175 -0.019733446 -0.69035494 
0.79150146 -0.06148148 -0.6080671 
0.27373713 -0.7002302 -0.65935254 
-0.022693254 -0.5793256 -0.8147803 
-0.02772447 -0.11125412 -0.9934053 
0.47565618 -0.86850214 -0.13948226 
0.6127019 -0.79025584 0.009600553 
-0.94012564 -0.33116138 -0.08059791 
-0.29628637 -0.6141279 -0.73147887 
0.3309333 -0.9261261 -0.18103476 
-0.26832798 -0.955912 -0.11929989 
-0.6706609 -0.49476346 -0.55265105 
-0.40496427 -0.61290425 -0.6784927 
-0.958157 -0.11437017 -0.2624018 
0.44005865 -0.4657035 -0.7677687 
0.47145477 -0.7477141 -0.46760473 
0.8434501 -0.39539957 -0.36366355 
0.44148847 -0.8037482 0.39884418 
0.36040816 -0.7871715 0.50046694 
0.117238306 -0.8282391 0.54797375 
0.065396816 -0.9857047 0.15527266 
-0.32537985 -0.8809496 0.34359267 
0.034632906 -0.99221534 -0.11962174 
-0.72086906 -0.6709448 0.17372663 
-0.8561289 -0.43228275 -0.28315204 
-0.5699106 -0.8086346 0.14598677 
-0.2054191 -0.97101116 -0.12223073 
0.3246762 -0.86446506 -0.38377792 
-0.86911774 -0.1875997 -0.457647 
0.008899378 -0.9662687 -0.25738245 
-0.30563918 0.7060194 -0.6388437 
-0.26020622 -0.20252772 -0.94407374 
-0.17331985 -0.053859726 -0.98339176 
0.12858088 -0.011092389 -0.991637 
0.37295157 -0.46121404 -0.8051018 
0.5437368 -0.11334071 -0.83156735 
0.8567213 -0.18049435 -0.48316708 
0.9835716 0.10171186 -0.14913638 
0.9769809 0.194123 0.088457614 
0.96718794 0.1937251 -0.1643718 
0.9228109 -0.24282096 0.2990954 
0.11225569 -0.99347585 -0.020110337 
0.5017904 -0.41721922 0.75771666 
0.22766925 -0.8642569 0.44858298 
0.1506375 -0.90587896 -0.39584288 
0.066821694 -0.82172316 -0.5659557 
0.31156668 -0.9495232 0.036494 
-0.14307226 -0.94657487 -0.28900942 
-0.38117576 -0.26770633 -0.88489455 
-0.4866976 -0.05436405 -0.8718773 
0.35554433 -0.16438264 -0.92009056 
0.11646413 -0.8747263 -0.4704148 
-0.029068714 -0.746865 -0.6643401 
-0.26332137 -0.32688677 -0.90763813 
-0.19256645 0.06787893 -0.9789335 
-0.69633275 -0.40915072 -0.58967495 
-0.32282558 -0.16277449 -0.9323563 
-0.18966138 0.57980305 -0.7923743 
0.063582055 -0.09365621 -0.99357224 
-0.34740925 0.3083861 -0.8855535 
-0.2530221 0.12223858 -0.959707 
-0.19333252 -0.15777665 -0.9683642 
0.33687785 -0.34248275 -0.87705135 
0.6520338 -0.21405667 -0.72734565 
0.29895258 -0.38267943 -0.87417614 
0.25550866 -0.5879462 -0.767486 
0.82413036 -0.5663459 0.007850858 
-0.45845258 -0.842212 -0.28372574 
0.041974813 -0.27118486 -0.9616117 
-0.48987293 -0.28005627 -0.82558656 
-0.9124725 -0.0687725 -0.40331668 
-0.02422877 -0.12627788 -0.991699 
0.17875291 -0.7442543 -0.6435316 
0.79050493 -0.107260615 -0.60299027 
0.85006386 0.08877465 -0.51914406 
0.32209423 -0.6562826 -0.68231124 
0.20680355 -0.099252775 -0.97333515 
0.6389121 -0.16362025 -0.751678 
0.4238288 -0.6346258 -0.6462347 
-0.27950975 -0.82727015 -0.4873381 
0.24348274 -0.77783144 -0.57939154 
0.05740818 -0.9977008 -0.036018573 
0.49048126 -0.8159321 -0.30607677 
-0.49204865 -0.7023121 -0.51443756 
-0.8085433 -0.52748233 -0.26080662 
-0.8725607 -0.25795913 -0.4148434 
-0.2603932 0.5367157 -0.80257815 
-0.49848574 -0.22519629 -0.8371371 
-0.20935689 -0.7523301 -0.6246352 
-0.2872471 -0.92488396 -0.24915648 
-0.4612414 -0.5433726 -0.70142907 
-0.014044019 0.06352628 -0.9978814 
-0.5497856 0.21430154 -0.80734795 
-0.31106105 -0.222791 -0.92390764 
-0.26773152 -0.4731603 -0.8393088 
0.69106466 -0.39575928 -0.6048176 
0.70177484 0.029469702 -0.71178913 
0.8522198 -0.15078554 -0.5009844 
0.4060277 -0.8677754 -0.2865441 
-0.14274181 -0.90174854 -0.4080128 
-0.64273953 -0.4648535 -0.60893124 
0.20926146 -0.5941721 -0.7766397 
0.6242979 -0.09119858 -0.7758447 
0.24212778 -0.19999866 -0.94940764 
-0.09197868 -0.32725474 -0.940449 
-0.44594005 -0.45116234 -0.7730394 
-0.50461906 0.031985473 -0.8627494 
-0.4695265 0.1687543 -0.8666412 
-0.25209585 -0.23889397 -0.93775123 
-0.30660495 -0.29963866 -0.90344346 
0.44682395 -0.14568533 -0.8826801 
0.28776747 -0.16207036 -0.94388723 
0.17454405 -0.75618434 -0.6306501 
-0.08299509 -0.29105377 -0.9531 
-0.054724626 0.118714295 -0.9914193 
0.18847284 -0.4728034 -0.8607758 
0.017867452 0.13689874 -0.990424 
0.166029 -0.32211947 -0.93202657 
0.6650234 -0.7378037 0.11571331 
0.56865627 -0.43001437 -0.7012259 
0.27785766 -0.24228826 -0.9295653 
0.3615285 -0.76008517 -0.5399702 
-0.8164941 -0.5772865 -0.008816706 
-0.5835835 -0.7996785 -0.14122579 
-0.13980114 -0.99016327 -0.005700232 
0.041070312 -0.9984767 -0.036845706 
-0.02915665 -0.9161379 -0.3998017 
0.11494086 -0.88255924 -0.45593634 
0.13857682 -0.88253367 -0.4493672 
-0.36479804 -0.80210507 -0.47281063 
0.03185871 0.0663318 -0.99728894 
0.22924118 -0.17977253 -0.95662445 
0.38431323 -0.4138195 -0.82526165 
-0.44728878 -0.77598804 -0.4447194 
0.41788122 -0.22345504 -0.8805926 
-0.31956097 0.5282681 -0.7866471 
-0.33361372 -0.76333505 -0.5531921 
-0.638521 -0.27656972 -0.7181923 
-0.6369782 -0.269685 -0.7221695 
-0.7647013 -0.14023395 -0.62894064 
-0.50870526 -0.434 -0.7435477 
-0.32710814 0.5356379 -0.77851933 
-0.6394794 0.38461038 -0.6656884 
-0.83483356 -0.16794664 -0.5242585 
-0.34480578 0.031982724 -0.93812907 
0.20236947 -0.31488255 -0.92730564 
0.15375589 -0.24238129 -0.9579199 
-0.3817775 -0.12891737 -0.91521925 
-0.124883965 -0.31618804 -0.940441 
-0.44319573 -0.14174384 -0.88514763 
-0.35287273 -0.5315399 -0.77003 
-0.098039284 -0.23157215 -0.96786505 
0.6209541 -0.6951568 -0.3621784 
-0.2714203 -0.8335028 -0.4812526 
0.35647306 -0.5115706 -0.7818073 
-0.080060765 -0.6772154 -0.7314162 
0.40662783 -0.08885086 -0.9092631 
0.43790135 -0.6577174 -0.6129031 
-0.13251324 -0.22420369 -0.9654911 
0.3248467 -0.61025816 -0.722537 
-0.23950778 -0.4433501 -0.86375743 
0.110369846 -0.9402896 0.3219844 
0.13751072 -0.9815328 -0.13298213 
0.277728 -0.831113 -0.48178676 
-0.031043278 -0.65470374 -0.7552479 
-0.1915454 -0.9199777 -0.3419815 
-0.5425315 -0.6683017 0.5089523 
-0.22404523 -0.7925453 -0.5671648 
0.54740584 -0.7001436 -0.45841667 
-0.18569201 -0.6993949 -0.6901922 
0.14693265 -0.25955394 -0.9544856 
0.20439796 -0.97787964 -0.044417854 
0.3598277 -0.9033396 -0.23345597 
0.08620834 -0.20411877 -0.9751429 
-0.3972225 -0.75892925 -0.51598525 
-0.35604256 -0.35906017 -0.8627338 
-0.1231463 -0.07897219 -0.9892413 
0.3965859 -0.44601753 -0.8023641 
-0.22275129 -0.80795056 -0.5455252 
-0.570613 0.6836779 -0.45495638 
-0.7815738 0.023345925 -0.6233759 
-0.4709849 0.036838226 -0.8813718 
-0.3645532 -0.013701376 -0.93108183 
-0.036923885 -0.98782784 -0.15110533 
-0.22493559 -0.5354011 -0.8140944 
0.68064535 -0.32227808 -0.65792006 
0.19893111 -0.8966622 -0.39550382 
-0.14912155 -0.7989896 -0.58256185 
0.1378428 -0.98982596 0.035269015 
0.46259412 -0.88646686 0.013536763 
-0.49925083 -0.83792406 -0.22052681 
-0.9202369 -0.32671314 -0.21545914 
-0.29547963 -0.14989865 -0.9435159 
-0.09351398 0.16859052 -0.9812402 
0.008195459 -0.20893702 -0.9778948 
0.018782917 0.1289052 -0.99147904 
0.19075127 -0.13661042 -0.9720862 
0.4257608 -0.15508151 -0.8914469 
0.037513677 0.07052706 -0.99680424 
-0.45594892 0.24843314 -0.85462946 
0.1783211 -0.69818 -0.6933588 
-0.39201835 -0.8082902 0.4393046 
-0.65087485 -0.6886395 -0.31958976 
-0.7546807 -0.65608585 -0.0029110117 
-0.80574477 -0.092295386 -0.5850273 
-0.76453614 0.32192174 -0.5584362 
-0.81550694 0.23397526 -0.52934307 
-0.42870837 0.33055365 -0.8407994 
0.034492664 -0.08020174 -0.9961817 
0.42272928 -0.58664554 -0.6907583 
-0.17189999 -0.1353653 -0.97576976 
-0.050740004 -0.0026721966 -0.99870837 
-0.6539438 -0.48842585 -0.57775235 
-0.5055845 -0.17377357 -0.845096 
-0.63906956 0.060683444 -0.76675135 
-0.26200628 -0.9638053 -0.049314648 
0.35752246 -0.5714479 -0.7386644 
0.10112638 -0.79670656 -0.5958458 
0.3050356 -0.4441675 -0.8424184 
-0.27950898 -0.8746459 -0.3960675 
-0.8083566 -0.46184832 -0.36504215 
-0.5359833 -0.6004943 -0.5934042 
-0.33863524 -0.93038136 -0.14041676 
-0.40746346 -0.9132108 0.00444117 
0.14596228 -0.9814531 -0.12427775 
0.10825961 -0.9254961 -0.36295584 
-0.08803521 -0.8557577 -0.509832 
-0.58050036 -0.7389133 -0.34209144 
-0.24058838 -0.9111564 -0.33453125 
-0.51127225 -0.81990397 -0.25760108 
-0.90898234 -0.3786688 -0.17424443 
-0.75920665 -0.6140889 -0.21563897 
-0.07518703 -0.5452384 -0.83490247 
0.10612063 0.115182154 -0.9876596 
-0.4513064 0.4423993 -0.77498746 
0.19779222 0.13121983 -0.97142154 
-0.3150889 0.44219434 -0.8397519 
-0.26095727 -0.58842444 -0.76528305 
-0.6002826 0.5335366 -0.59581846 
-0.7599098 0.6349785 -0.13906634 
-0.6497115 0.17349787 -0.74011725 
-0.66673213 0.04304637 -0.74405336 
-0.38600206 0.21441165 -0.89723474 
-0.20392491 -0.3723717 -0.90540266 
-0.25723705 -0.69096965 -0.6755665 
0.30270097 0.06977869 -0.9505278 
0.56768626 0.35383666 -0.74332494 
0.694477 0.28776917 -0.65946245 
0.37581757 -0.4032605 -0.8343515 
0.37830138 -0.34903842 -0.85735655 
0.29721835 -0.36388105 -0.88275254 
0.7993676 0.35737035 -0.48300928 
0.86763054 0.4749154 -0.14721642 
0.7282449 -0.3943818 -0.56046635 
0.6795893 -0.2790394 -0.6784508 
-0.16559066 -0.41301572 -0.8955433 
0.629092 -0.38672635 -0.67430407 
0.6199049 -0.643376 -0.44920525 
0.36510664 -0.6416893 -0.6744866 
0.42087156 -0.28307182 -0.8618222 
0.32955754 -0.23430152 -0.9146009 
-0.023936057 -0.03674281 -0.9990381 
0.87985444 0.118574984 -0.46021333 
-0.1520796 -0.9072489 -0.3921368 
0.0323041 -0.31577456 -0.94828427 
-0.43027532 -0.73296726 -0.52689874 
-0.35923117 -0.19675666 -0.91227186 
-0.2097664 -0.041812338 -0.9768571 
-0.5188788 0.5402445 -0.66249573 
-0.33683702 -0.22405769 -0.91451573 
0.108471036 -0.51021534 -0.853179 
0.32782155 -0.4468865 -0.8323615 
0.7271241 -0.6296785 -0.27348778 
0.47109297 -0.42243093 -0.77435374 
0.28599358 -0.95707685 0.04702843 
0.49666595 -0.8599451 0.117547415 
0.19398674 -0.9697546 -0.14813969 
-0.38235652 -0.9062351 -0.18039252 
0.214677 -0.97339576 0.08009102 
0.11026059 -0.96680117 -0.23051704 
-0.49470308 -0.84864575 -0.18726823 
-0.5049957 -0.77153337 -0.3869309 
-0.49854723 -0.21923915 -0.83868045 
0.040146872 -0.37065983 -0.9279007 
-0.32337746 -0.22544286 -0.9190226 
-0.16382028 -0.9736458 0.15867203 
0.36850592 0.083933406 -0.92582864 
-0.085653014 0.2626134 -0.96109205 
-0.3731747 -0.10180928 -0.9221582 
0.37285268 0.10370137 -0.9220776 
0.72087795 0.16360073 -0.673476 
0.45863155 0.6885574 -0.5617348 
0.33950475 0.22584635 -0.91308814 
0.8845719 0.26551697 -0.38344926 
0.7269901 -0.5181473 -0.45056516 
0.48927516 -0.8630215 -0.12571307 
0.80736226 -0.4313983 -0.40256897 
0.46913576 -0.8809266 -0.06228954 
0.42471987 -0.90207565 -0.07663393 
-0.4081834 -0.7775448 -0.47834125 
-0.37999845 -0.51167256 -0.7705792 
0.47844177 -0.70747584 -0.5201648 
0.14688307 -0.3641148 -0.9196988 
0.16347738 0.16448088 -0.97273904 
-0.57070744 -0.6021552 -0.558303 
0.034905232 -0.5440936 -0.83829826 
0.46934867 -0.8642233 -0.18119054 
-0.22398226 -0.55147284 -0.8035606 
0.047900937 -0.88245046 -0.4679603 
-0.20813166 -0.69242465 -0.6908179 
-0.29237738 -0.29238993 -0.9105073 
-0.17221417 -0.547118 -0.81914854 
-0.09269637 -0.13034174 -0.98712635 
0.2449977 0.16871287 -0.9547314 
0.7094727 0.003463009 -0.70472443 
-0.011584587 -0.378573 -0.925499 
-0.17851509 -0.59030217 -0.78719485 
0.6272461 -0.3338354 -0.70364505 
0.6084525 -0.25823015 -0.75040185 
0.4950503 0.7095978 -0.5013942 
0.43185264 -0.09610789 -0.8968091 
0.11361695 -0.6031831 -0.7894691 
0.51751363 -0.4806667 -0.70791185 
-0.14793035 -0.51490736 -0.8443856 
-0.34426302 0.030861944 -0.93836594 
-0.5311584 -0.37894994 -0.7578045 
-0.34258378 0.036991782 -0.93875873 
-0.38566875 0.053513214 -0.9210841 
0.012181089 0.20059054 -0.97959954 
-0.12285083 0.25573316 -0.95891 
0.5485787 0.4422169 -0.7095814 
-0.52961135 0.048925508 -0.84682834 
-0.033587072 -0.5538683 -0.83192664 
0.2594278 0.38916793 -0.8838811 
-0.18363349 0.14026089 -0.9729367 
0.025680838 -0.18833305 -0.9817694 
-0.36670727 -0.9023772 -0.2263654 
0.017244406 -0.87792385 -0.47848985 
0.5136899 -0.60869056 -0.6046641 
-0.106461026 -0.42568967 -0.8985847 
-0.12477407 -0.1521988 -0.9804422 
-0.23887402 -0.026902223 -0.97067785 
-0.30354884 0.81860983 -0.48758185 
-0.060571622 0.2817902 -0.95756227 
0.5184829 -0.2906651 -0.80416995 
0.32641008 0.08419026 -0.94147146 
0.38171914 -0.49716255 -0.7791791 
0.018387847 -0.2532536 -0.9672252 
0.24947393 0.28512272 -0.9254556 
-0.24010433 0.15759107 -0.9578701 
-0.20946202 -0.30321237 -0.92961717 
0.19271128 -0.35800067 -0.913618 
0.34564015 -0.54489577 -0.76395124 
0.3255107 -0.2744585 -0.9048289 
-0.07150299 -0.56257045 -0.8236515 
-0.60238546 -0.59390014 -0.5333052 
-0.65667564 -0.2193617 -0.72156614 
-0.15417542 -0.7902884 -0.59302133 
0.4052451 -0.7207117 -0.5624509 
-0.09036045 0.53089607 -0.8426058 
-0.20758082 0.09318749 -0.9737691 
-0.12556423 0.44602135 -0.88617086 
-0.6691258 0.6833399 -0.29209116 
-0.7525068 0.16384953 -0.6378769 
-0.6956076 -0.29177344 -0.6565047 
-0.17450415 -0.15432002 -0.9724884 
0.43270212 -0.7206641 -0.5416753 
-0.81844413 -0.07965126 -0.5690386 
-0.5308514 -0.4837985 -0.6957987 
-0.5732737 0.5058052 -0.6446071 
-0.77384853 0.36226052 -0.5195437 
-0.5872332 -0.5240146 -0.6169002 
-0.58994 -0.27856243 -0.7578746 
-0.377822 0.02356115 -0.9255784 
-0.08532153 -0.7924527 -0.6039363 
0.16746631 -0.44334763 -0.88056684 
0.26744056 -0.5081388 -0.8187006 
-0.20146115 -0.4514298 -0.8692666 
0.030447112 -0.7803537 -0.62459666 
-0.4800567 -0.41974294 -0.7702996 
0.40005723 -0.7659714 -0.5032317 
0.22392292 -0.648601 -0.72744435 
0.19262554 -0.8780358 -0.43811956 
0.6017143 -0.6429965 -0.4738095 
0.19412062 -0.8661261 -0.4605896 
0.15707433 -0.9254923 -0.34466168 
0.09858196 -0.98033196 -0.17097041 
-0.08300583 -0.63340163 -0.7693585 
0.22901572 -0.6763776 -0.7000466 
0.340142 -0.1252884 -0.9319905 
0.40872365 -0.36018884 -0.83857566 
0.3901314 0.035214473 -0.92008555 
0.18313985 -0.34603757 -0.9201727 
-0.077380724 0.085231304 -0.9933519 
-0.70871836 0.39990819 -0.58119863 
-0.35506016 0.3394513 -0.8710369 
-0.4702277 -0.82349515 -0.31739846 
-0.91844344 0.09617178 -0.383683 
-0.9477262 0.31890395 0.010737562 
-0.47180206 -0.66858953 -0.57479644 
-0.632304 -0.30210066 -0.7133912 
-0.1686586 0.68000007 -0.71355045 
-0.61396104 0.036100045 -0.78851044 
-0.29205513 -0.3932793 -0.8718 
-0.44257817 -0.30140248 -0.8445597 
-0.7381327 0.053542018 -0.6725276 
-0.5938071 -0.43358368 -0.67778933 
0.27863383 -0.046895355 -0.9592519 
-0.5182524 0.011026858 -0.8551567 
0.22446921 -0.668039 -0.7094628 
0.052271646 -0.90218645 -0.4281673 
0.638975 -0.3470055 -0.6865116 
0.0868975 -0.78203404 -0.6171481 
0.3709901 -0.866262 -0.33459896 
-0.29025638 -0.9283319 -0.23227395 
-0.3900812 -0.85097086 -0.35168943 
-0.2562048 -0.77387756 -0.5792001 
0.33547577 -0.7415553 -0.5809921 
0.13758683 -0.9465888 -0.29161564 
0.6007806 -0.73887354 -0.30516994 
-0.14414382 -0.82842666 -0.541232 
0.017879542 -0.8812707 -0.4722737 
-0.1973394 -0.94117355 -0.27431628 
-0.21560575 -0.6511886 -0.7276453 
0.19072929 -0.7917792 -0.5802656 
-0.19915585 -0.7449001 -0.6367581 
-0.0074001774 -0.7138975 -0.70021105 
-0.22941175 -0.717347 -0.65786284 
0.5031883 -0.38765365 -0.7723511 
0.22879979 -0.22920641 -0.9461053 
-0.10772693 -0.07128487 -0.9916217 
-0.12754478 -0.6076882 -0.78386706 
0.831716 -0.024181481 -0.55467445 
0.86864656 0.025621306 -0.4947695 
-0.2943075 0.37015843 -0.88111633 
-0.5639444 0.54965806 -0.6163139 
-0.64099497 0.094663195 -0.76168525 
-0.5607458 -0.33051258 -0.75916106 
-0.47980994 -0.26168188 -0.8374396 
-0.025160829 -0.49467763 -0.8687123 
-0.13079959 -0.06647801 -0.9891776 
0.67923087 0.21719795 -0.7010496 
0.6259803 0.578467 -0.5229959 
0.06571406 -0.6336155 -0.7708523 
0.0273522 -0.9292745 -0.368376 
-0.4735318 -0.87289906 0.117536336 
0.1367063 -0.75545925 -0.64077526 
-0.5316504 -0.18511358 -0.826487 
-0.3229394 -0.3184632 -0.8912303 
-0.36169583 0.27042082 -0.8922157 
-0.8831876 -0.00022219887 -0.46901986 
-0.25305402 0.22779371 -0.94025195 
-0.05677323 0.97137904 -0.23065068 
0.5074472 0.45799446 -0.72988933 
-0.22902563 0.6538196 -0.7211569 
-0.7099911 0.2837507 -0.644514 
-0.44591644 -0.044026367 -0.8939912 
0.3081289 -0.94408494 -0.117304385 
0.057696156 -0.9322991 0.35705674 
-0.89209855 -0.44642732 -0.069733374 
0.064909466 0.43573785 -0.89773005 
-0.36307243 -0.34398523 -0.8659404 
-0.5088931 0.293866 -0.80911714 
-0.24083365 -0.53873914 -0.8073161 
-0.43080732 -0.37948903 -0.8187754 
0.25628865 0.71324646 -0.65237695 
-0.35958523 0.037233397 -0.9323691 
-0.19078015 -0.18887162 -0.9632915 
-0.23123752 -0.5004108 -0.83433706 
-0.7584819 -0.14460264 -0.6354489 
-0.7589283 -0.40942395 -0.50635964 
-0.027826382 -0.782438 -0.6221065 
0.30593282 -0.83245355 -0.4619807 
-0.13347027 -0.47134697 -0.87179 
0.33952248 -0.8153686 -0.46893328 
-0.15942934 -0.28925607 -0.94388205 
0.046660736 -0.62415236 -0.7799081 
0.51390153 -0.82751447 -0.22610849 
0.21562918 -0.86849207 -0.44634724 
0.10287712 -0.6598975 -0.7442793 
-0.26332307 -0.70309806 -0.66054076 
-0.0010874067 -0.5162956 -0.85640985 
0.0041785156 -0.22244887 -0.9749354 
-0.6484667 0.029157983 -0.76068443 
-0.6652907 -0.71095043 -0.22789891 
-0.81238705 -0.4697228 -0.34552526 
-0.9095115 -0.08108326 -0.40769398 
-0.3785619 0.44205347 -0.813191 
-0.039963003 0.24107946 -0.9696822 
0.07665911 0.6455429 -0.759867 
0.14302143 0.8584247 -0.49259713 
0.006402095 -0.07100246 -0.9974556 
-0.5050555 0.08832099 -0.858556 
-0.75292075 -0.4319129 -0.49654981 
-0.7530759 -0.25270504 -0.60746765 
-0.8845603 0.4275583 -0.1864055 
-0.2747517 0.20543274 -0.93931305 
-0.6978214 -0.10757543 -0.7081476 
-0.2572646 -0.6668765 -0.6993502 
-0.3051409 -0.18464276 -0.93423563 
-0.32446378 -0.40923357 -0.8527902 
0.56844306 -0.4685695 -0.6762509 
0.42769027 0.046460472 -0.90273064 
0.5544528 0.4114971 -0.72336185 
0.8312798 -0.23545218 -0.5035237 
0.5575978 0.07831427 -0.8264088 
0.31489462 0.26046586 -0.91268784 
0.47321847 0.6227617 -0.6230829 
0.8326839 0.17481941 -0.5254292 
0.57298195 0.1947951 -0.7960821 
0.61928326 0.080641285 -0.7810155 
-0.16410796 0.61906666 -0.76800084 
0.21869129 -0.537164 -0.81463426 
0.55827254 -0.72010446 -0.4120453 
0.28973758 -0.38564724 -0.87597275 
0.42075512 -0.20956425 -0.88263696 
0.15019098 0.37602893 -0.914355 
0.01974164 0.08357678 -0.9963058 
0.2830417 -0.15763845 -0.9460643 
-0.12777813 -0.45575538 -0.88088584 
-0.23057885 -0.882354 -0.41022548 
-0.67917866 -0.42865115 -0.59579754 
-0.44026944 -0.04218211 -0.89687437 
-0.038364924 -0.31073594 -0.94972175 
-0.5065705 -0.23474522 -0.8296271 
0.2691135 -0.115674 -0.9561367 
-0.04523792 -0.18645409 -0.98142165 
0.35457712 -0.2428833 -0.9029302 
0.6536547 -0.6530064 -0.38251564 
0.4111404 -0.9115209 -0.009655368 
0.50434005 -0.82323164 0.26063552 
0.70764744 -0.70554286 -0.03800595 
0.10417143 -0.97610646 -0.19069487 
0.22056201 -0.8610141 -0.45826536 
0.44100654 -0.7308199 -0.52097565 
0.6925284 -0.41613692 -0.589266 
0.13109025 -0.98266506 -0.13109046 
-0.35555467 -0.92707247 -0.11881728 
-0.31540167 -0.9144668 -0.25351956 
-0.26770663 -0.6372465 -0.72266877 
0.10152496 -0.39361113 -0.91365373 
0.68768495 -0.17715909 -0.7040626 
0.477688 -0.1576145 -0.8642753 
0.16318159 0.58176434 -0.79682004 
0.43582147 0.5013422 -0.74747294 
0.4337761 0.31681535 -0.84348464 
0.7844376 0.27983245 -0.55349046 
0.935053 0.076106735 -0.34624216 
0.5962806 0.50035137 -0.6277723 
0.9096365 -0.21690783 -0.35427743 
0.80477923 -0.48855925 -0.33710584 
0.16523214 -0.97066706 -0.17465372 
0.17098649 -0.895804 -0.4102426 
0.5812442 -0.8085287 0.09185049 
-0.5566344 -0.78955716 -0.2583751 
-0.010643002 -0.43101093 -0.902284 
-0.6387067 -0.6657509 -0.38578445 
0.3772307 -0.53829044 -0.75361824 
-0.34500468 -0.7315208 -0.58808935 
-0.17405075 0.10865474 -0.97872394 
-0.7406653 -0.15700014 -0.6532732 
0.34487885 -0.67858475 -0.6485225 
0.030555017 -0.6202868 -0.78377986 
-0.2798513 -0.7676595 -0.5765261 
0.3488821 -0.037559867 -0.93641365 
-0.16720515 -0.2398902 -0.9562924 
0.025775982 -0.21948397 -0.97527564 
-0.23953202 0.41060296 -0.87978953 
-0.2662228 0.65633565 -0.70593834 
0.36401874 0.12081336 -0.9235229 
0.6380972 -0.08819236 -0.76488835 
0.2510433 0.05660372 -0.96631956 
-0.46243563 -0.34744114 -0.8157439 
0.39289272 -0.0065551773 -0.919561 
-0.16642877 -0.52915317 -0.8320448 
0.1118627 -0.040009372 -0.9929179 
0.66669005 0.106761746 -0.7376492 
0.081287436 -0.6086805 -0.78924036 
0.10808994 -0.26420105 -0.95839155 
0.024754345 -0.051928885 -0.998344 
-0.842341 0.14124975 -0.5201061 
-0.9231463 -0.04633441 -0.38164634 