# OOMMF: rectangular mesh v1.0
# Segment count: 1
# Begin: Segment
# Begin: Header
# Desc: Time (s) :  6.970000000000015e-07
# Title: m
# meshtype: rectangular
# meshunit: m
# xbase: 2e-09
# ybase: 2e-09
# zbase: 5e-10
# xstepsize: 4e-09
# ystepsize: 4e-09
# zstepsize: 1e-09
# xmin: 0
# ymin: 0
# zmin: 0
# xmax: 1.024e-06
# ymax: 1.024e-06
# zmax: 1e-09
# xnodes: 256
# ynodes: 256
# znodes: 1
# ValueRangeMinMag: 1e-08
# ValueRangeMaxMag: 1
# valueunit: 
# valuemultiplier: 1
# End: Header
# Begin: Data Text
-0.3932416 0.82614595 -0.4035393 
-0.91023463 -0.06767509 -0.40852544 
-0.5884568 -0.4592488 -0.6654391 
-0.25707015 -0.86643326 0.4280287 
-0.70289695 0.5379272 -0.4653712 
-0.327504 -0.18053877 -0.927441 
-0.7028935 -0.3892815 -0.5953156 
-0.82146096 0.18806066 -0.5383634 
-0.4544936 -0.36654449 -0.811838 
-0.18375929 -0.10991097 -0.9768071 
-0.31192783 0.17758924 -0.93336123 
-0.34175262 -0.5150634 -0.78607565 
-0.72494143 -0.04349187 -0.6874362 
-0.5293894 -0.77787066 -0.33862123 
-0.76820296 -0.35709703 -0.5313623 
0.2799238 0.2855678 -0.9165663 
0.16374496 0.16875115 -0.97196233 
-0.93484056 -0.25128338 -0.2508583 
-0.66264695 0.1797726 -0.7270357 
0.22402154 -0.77177966 -0.5951224 
0.6905981 -0.53327596 -0.4885602 
0.33577046 0.28665698 -0.8972659 
0.4183036 0.031120501 -0.907774 
0.6326747 -0.46428722 -0.6198065 
0.5772177 -0.061569754 -0.81426585 
0.9947271 0.10176284 0.012741487 
0.8853332 0.08161264 -0.45773843 
0.8232225 0.25546873 -0.5069915 
0.6228295 0.12352024 -0.7725452 
0.08315152 0.06533765 -0.9943927 
0.16591679 -0.0032774056 -0.98613435 
0.024869809 -0.55013335 -0.8347065 
-0.5488542 -0.56762433 -0.6136463 
-0.13646948 -0.51060987 -0.8489133 
-0.014399847 -0.78423125 -0.62030154 
-0.39135215 0.7113582 -0.58379203 
-0.06369966 0.013672968 -0.99787545 
-0.54235667 -0.3336721 -0.77104616 
-0.10072581 -0.26783144 -0.95818615 
-0.024906263 -0.66365796 -0.7476215 
0.58576536 -0.7816394 0.2142869 
0.59201545 -0.80544835 0.027760075 
0.59568113 -0.77478117 -0.21184483 
-0.19262533 -0.56499356 -0.8022953 
-0.12434314 -0.74505144 -0.6553146 
-0.2985438 -0.94912326 -0.10018387 
-0.33677277 -0.9333607 -0.12418563 
0.45506212 -0.8902756 0.018103799 
0.72318405 -0.6026663 -0.33734 
-0.4073418 -0.9131571 0.014723985 
0.3521492 -0.89740556 0.26580867 
-0.30010766 -0.72191894 0.623513 
-0.34471604 -0.81562 0.464688 
-0.29399708 -0.9551744 0.03474993 
-0.15143934 -0.8727374 -0.4641074 
-0.25113013 -0.81992626 -0.51444584 
0.1645948 -0.6798407 -0.71465045 
0.54248095 -0.8134662 0.20973137 
0.17486276 -0.63025063 -0.75644386 
0.5063954 -0.7804937 -0.36659715 
0.29459184 -0.58682555 -0.7542224 
-0.10098105 -0.93290085 -0.34568623 
0.10905633 -0.98061657 0.16278186 
-0.23293711 -0.9300322 -0.284219 
-0.20538537 -0.9561585 -0.20875314 
0.34568188 -0.91214377 -0.22022225 
0.19371605 -0.8216595 -0.5360503 
0.36913884 -0.24953881 -0.8952469 
0.092642136 -0.75214916 -0.65244853 
0.022700157 -0.87159616 -0.48969868 
0.37107855 -0.90849924 0.19217157 
0.30575803 -0.8966663 0.32015878 
0.3735346 -0.92669487 0.041334756 
-0.18816783 -0.81901926 0.5420336 
-0.76344913 -0.53648734 0.3596205 
-0.3564148 -0.15330894 -0.9216642 
-0.20130585 -0.8201585 -0.5355522 
-0.46683583 -0.8197032 -0.33189008 
-0.10550097 -0.79996186 -0.5907035 
-0.54541904 -0.51056653 -0.66471046 
-0.6616001 -0.1750276 -0.7291438 
-0.09354008 -0.90365106 -0.41792953 
-0.11755702 -0.9034765 -0.41220227 
-0.8172442 0.08296288 -0.5702886 
-0.74768364 -0.13010973 -0.651184 
-0.51013255 0.49410486 -0.70400655 
-0.074170865 -0.6940257 -0.7161195 
-0.55919605 -0.4684791 -0.68397886 
-0.4129547 -0.25201663 -0.87518924 
0.31547675 -0.1536057 -0.93641865 
0.06097745 -0.07797055 -0.9950891 
-0.5038836 -0.31402877 -0.8046659 
-0.94091284 -0.20422299 -0.2701408 
0.11524391 -0.21360034 -0.9700999 
0.6496082 -0.60874534 -0.4554541 
0.7602771 -0.08984692 -0.6433556 
0.69649076 -0.4180811 -0.5831885 
0.5136552 -0.2593337 -0.81786585 
0.059457477 0.74554104 -0.6638023 
0.24056542 0.23211318 -0.94247115 
0.47899526 0.30538964 -0.82298285 
0.71660113 -0.35451034 -0.6006707 
0.88331985 -0.289016 0.36907417 
0.374814 -0.7430578 0.55441827 
0.6675561 -0.7406967 0.07574503 
0.9033204 -0.42458707 0.061140638 
0.46462044 -0.82312757 0.32647938 
0.10367217 -0.727232 0.67851734 
0.33077717 -0.9134289 0.23713754 
-0.20430206 -0.9771867 0.05802533 
0.1368394 -0.94317496 -0.30281353 
-0.52608854 -0.6096482 -0.5929249 
0.035911016 -0.9622442 -0.26980853 
-0.9808011 0.14932944 -0.12541883 
-0.11558903 0.5128372 -0.8506687 
-0.1320758 0.3995341 -0.907154 
0.4556371 -0.028441876 -0.88971114 
-0.15898106 -0.66738266 -0.7275476 
0.091781706 -0.98515624 -0.14506325 
-0.18017717 0.30805627 -0.9341507 
0.4277561 0.0051066815 -0.9038799 
0.50269973 -0.6630216 -0.5547029 
-0.37356937 -0.92723817 -0.025990002 
-0.40775713 -0.32167202 -0.8545533 
-0.43637383 -0.24192771 -0.8666308 
-0.7206245 -0.046682592 -0.69175225 
0.17261557 -0.31064358 -0.9347216 
0.32608816 -0.43639603 -0.83858526 
0.5243252 -0.21871257 -0.8229508 
0.55003756 -0.14632976 -0.82222044 
0.6058497 -0.42021486 -0.67554843 
0.7098271 -0.45649892 -0.53642726 
0.6307994 -0.2953467 -0.71753913 
0.60581243 -0.7081167 -0.36271486 
0.5939112 -0.70609957 0.3856072 
-0.24823354 -0.67215383 0.69755954 
-0.68718565 -0.7259254 -0.02843162 
-0.48775625 -0.6921991 -0.5319345 
0.096324585 -0.55859447 -0.8238288 
0.152211 -0.90341455 -0.4008417 
-0.17253488 -0.64761543 -0.7421766 
-0.37820312 -0.89175147 -0.24847889 
0.6996935 -0.71132183 0.066710696 
-0.28225222 -0.95697796 0.06728243 
0.4381113 -0.85347664 0.28219914 
0.24652328 -0.74546516 -0.6192802 
-0.20755972 -0.0143277105 -0.9781174 
0.28778568 0.4146701 -0.863266 
0.053751383 0.04605235 -0.9974919 
0.4589224 0.36797556 -0.808693 
-0.8865234 -0.07660532 -0.456298 
-0.17745917 0.2113141 -0.96117365 
-0.09429714 0.2683738 -0.95868856 
-0.5400177 0.23223601 -0.8089792 
0.021083279 -0.9519102 -0.30565086 
0.55611926 -0.81621563 -0.15659924 
0.09456205 -0.95189774 -0.29145962 
0.21928993 -0.97077906 0.097468235 
-0.42817718 -0.89891654 0.09280886 
-0.43877897 -0.4098194 0.79970074 
0.7988892 -0.12831749 0.58763146 
-0.46930984 -0.82447714 0.3162052 
-0.64442056 -0.764631 0.007846925 
-0.120884396 -0.9831114 -0.13740085 
-0.3663024 -0.70575505 -0.6064095 
0.09402911 -0.9825038 -0.16076389 
0.000659015 -0.37711602 -0.9261659 
-0.52983236 -0.51231074 -0.67588127 
-0.22532612 -0.77895224 -0.5852021 
-0.5803858 -0.79878527 -0.15841271 
0.29952413 -0.20399655 -0.9320251 
-0.35391694 -0.35758585 -0.8642194 
-0.4305804 -0.8759451 -0.21753365 
-0.25842255 -0.83081234 0.4929186 
-0.8458903 0.24501523 0.4737479 
-0.018403465 -0.9917184 -0.12710613 
0.11348845 -0.97827137 -0.17350954 
-0.39784974 -0.4694115 -0.7882692 
-0.54969925 -0.83187497 -0.0762555 
-0.34710267 -0.65414774 -0.6720197 
0.2344635 -0.9549934 -0.18169862 
-0.12002105 -0.8754449 -0.46817848 
0.10497157 -0.8274301 -0.55167055 
0.23582146 -0.9149481 -0.3275032 
-0.028728792 -0.7920132 -0.60982764 
0.35494426 -0.895006 -0.2701461 
-0.076667026 -0.71376526 -0.6961763 
-0.5228493 -0.14266548 -0.84040177 
-0.5790865 -0.77074856 0.2657172 
-0.41298646 -0.9007454 -0.1345366 
-0.17651272 -0.7479388 -0.6398678 
-0.5190305 0.047945797 -0.85341007 
-0.017924672 -0.067364976 -0.9975674 
-0.4611272 0.10212802 -0.88143724 
-0.18080214 -0.2201638 -0.95856065 
-0.4651999 -0.79767084 -0.38381037 
-0.2245031 -0.8817682 -0.41482902 
0.24394417 -0.6363049 -0.73185205 
0.38142878 -0.46459648 -0.7991636 
0.7145611 -0.60035366 -0.35913515 
-0.27546108 -0.7287739 -0.626905 
-0.1837554 -0.85285497 -0.48874584 
-0.7456605 -0.53383577 -0.39876053 
-0.78526485 -0.51945853 -0.3369302 
0.07638914 -0.30469447 -0.9493819 
0.3479405 -0.20789248 -0.9141763 
0.1712306 -0.9759502 -0.13491248 
-0.8158347 0.47671828 -0.3273431 
-0.5723271 0.29502207 0.7651169 
-0.8397394 -0.5327761 0.10482167 
-0.614266 0.31072733 -0.7253454 
-0.57630193 0.17187816 -0.79895806 
-0.8849694 -0.012844768 -0.46547198 
-0.99531937 -0.088839196 0.03803951 
-0.46936432 -0.5875751 -0.6591302 
-0.77216834 -0.49650887 -0.39652872 
-0.012782289 -0.6161211 -0.7875478 
0.11803192 -0.19517766 -0.9736396 
0.2887824 -0.0073855473 -0.95736635 
0.08913404 -0.9414002 -0.32530132 
0.038376085 -0.81632966 -0.5763099 
0.21745285 -0.8938075 -0.39220214 
-0.12914021 -0.73019636 -0.6709219 
-0.22458446 -0.30963883 -0.9239512 
0.25244418 -0.4133677 -0.87487096 
0.09740344 0.37512553 -0.9218425 
-0.06275101 0.744496 -0.6646715 
-0.5100431 0.075023144 -0.8568708 
-0.6341836 -0.5964485 -0.49199644 
-0.08625274 -0.6807194 -0.72744876 
-0.3705042 0.22491741 -0.9011875 
-0.36209527 -0.07435115 -0.9291711 
-0.7975311 0.25113592 -0.54852057 
-0.5998739 0.5925441 -0.5376271 
-0.13202076 -0.2547102 -0.9579631 
-0.4644729 0.19519465 -0.8638078 
-0.2768202 -0.6193764 -0.73467237 
-0.31166843 -0.894496 -0.3205305 
-0.452189 -0.8008424 -0.39265358 
-0.04483895 -0.9816224 0.1854913 
0.3977656 -0.9171774 0.023837268 
-0.7563105 -0.65400577 0.01645953 
-0.8563409 -0.4253095 -0.2929027 
0.3049741 -0.22897957 -0.9244237 
-0.74899316 -0.6241115 -0.222473 
-0.5933598 -0.3615659 -0.7191623 
0.43203625 -0.3018254 -0.8498507 
0.22691537 -0.42729887 -0.8751714 
0.48710597 -0.09752046 -0.86788106 
0.46809694 -0.08281439 -0.87978816 
0.7380876 -0.5108363 -0.44076413 
0.7316287 -0.6158659 -0.29228204 
0.9283552 -0.19142786 -0.31860963 
0.4703431 -0.87638694 -0.10355305 
0.786959 -0.5397869 -0.29887435 
0.9753782 -0.13092256 -0.17747298 
-0.7330838 0.36395553 -0.57456475 
-0.4190721 0.22528705 -0.87955916 
-0.6521253 0.16055095 -0.7409157 
-0.9786386 -0.16380821 -0.124231964 
-0.8086015 -0.4240381 -0.4078667 
-0.85351205 -0.27094892 -0.44508857 
-0.65338075 -0.15648304 -0.7406799 
-0.7251219 0.03899613 -0.6875155 
-0.71036726 -0.15008408 -0.6876432 
-0.78570616 -0.5211694 0.33323926 
-0.6452419 0.2868912 -0.7080653 
-0.3311004 0.010779305 -0.943534 
-0.51528645 -0.7635287 -0.38923487 
-0.2655516 -0.67648935 -0.6869094 
-0.26315436 -0.5147129 -0.81597817 
0.27638572 0.20967184 -0.9378959 
-0.30826145 -0.45262396 -0.83672374 
-0.8696813 -0.08387176 -0.48643622 
-0.56022847 -0.4698414 -0.68219733 
0.1180038 -0.261748 -0.95789516 
0.13033415 -0.29640448 -0.9461276 
-0.2520716 0.30165097 -0.91949254 
0.47445932 0.051926702 -0.87874454 
0.60210454 0.19160512 -0.7750856 
0.32036757 -0.012346514 -0.9472128 
0.3956885 0.24114023 -0.8861615 
0.6211434 -0.17178313 -0.76463825 
0.40179965 0.22866182 -0.8867192 
0.57704526 -0.1578391 -0.80131495 
0.35908696 0.18978265 -0.9138047 
0.4276713 -0.13452843 -0.8938677 
-0.2570636 0.54025537 -0.80127555 
-0.5812938 -0.16825756 -0.7961074 
-0.5216189 -0.30914977 -0.79519826 
-0.12966608 -0.2672678 -0.9548585 
-0.15259479 0.32186767 -0.9344068 
0.22715229 -0.07216161 -0.97118205 
-0.05779987 -0.35522243 -0.93299323 
0.03200466 -0.13785712 -0.989935 
-0.0064835087 -0.4718114 -0.8816757 
0.7878025 -0.5741979 0.22285429 
0.4300088 -0.8353696 -0.34241837 
0.4299827 -0.7854285 -0.44521576 
0.28412026 -0.50579363 -0.8145235 
-0.13387413 -0.7029841 -0.69849205 
-0.65721947 -0.75283074 0.036174413 
-0.2244821 -0.9564105 0.1867799 
0.54043114 -0.7115536 0.44902757 
0.6429562 -0.7226444 0.25375667 
0.0039069247 -0.7066763 -0.70752627 
0.26639506 -0.9638497 0.0052269218 
-0.44544822 -0.4484172 0.774918 
-0.989445 -0.13978119 0.03820904 
-0.51121455 -0.5411518 -0.66769344 
0.033707045 -0.8926169 -0.4495542 
-0.4303525 0.03359648 -0.90203553 
-0.21396977 -0.24086626 -0.9466786 
-0.16332866 -0.6257172 -0.76275927 
0.03763551 -0.48497877 -0.87371576 
0.6573493 -0.74701977 -0.09926413 
0.43517637 -0.6964112 -0.57064265 
-0.085919194 -0.8752539 -0.4759711 
-0.104035296 -0.8747952 -0.47319138 
-0.16051416 -0.9091629 -0.38426286 
-0.49831194 -0.8102534 -0.30850407 
-0.19791472 -0.6274142 -0.75311434 
0.49607816 -0.6336543 -0.5936234 
0.46941692 -0.19601972 -0.8609438 
0.14520408 -0.5646911 -0.81242836 
-0.48869514 -0.18770197 -0.85202414 
0.13795029 -0.4755593 -0.8687998 
0.34330365 -0.15134615 -0.9269504 
0.27132273 -0.15128215 -0.950525 
0.08670627 -0.8754393 -0.4754872 
-0.8289603 -0.39157182 0.39937 
-0.714461 -0.60975915 -0.34313157 
-0.36919826 -0.5357484 -0.7593854 
-0.47284967 -0.6066122 -0.63908917 
-0.58945024 -0.42026705 -0.68987256 
-0.36522606 -0.22106877 -0.90428895 
0.024096465 0.0084978435 -0.9996736 
-0.5713521 -0.4686858 -0.6737139 
-0.042897504 -0.47038916 -0.88141584 
0.34908146 -0.07307609 -0.93423885 
-0.37854737 -0.04683647 -0.92439616 
-0.48566732 0.43928087 -0.755751 
0.3645529 -0.35757414 -0.8597918 
-0.0867097 -0.6690624 -0.73813075 
-0.09236973 -0.7161212 -0.69183695 
0.28485978 -0.7821427 -0.55417305 
-0.116577856 -0.48605284 -0.8661192 
0.38971192 -0.5060177 -0.76946133 
0.42859685 -0.709894 -0.55888754 
-0.02863294 -0.5046917 -0.8628247 
0.643232 0.036027305 -0.7648234 
0.55441177 0.18118913 -0.81227964 
0.6805515 -0.018110598 -0.73247635 
0.8249777 -0.20659076 -0.5260534 
0.5010604 0.0070117065 -0.8653839 
0.5454712 -0.08240329 -0.8340689 
0.50948024 -0.2520144 -0.8227507 
0.8460125 -0.4446246 -0.29423076 
0.7719235 -0.5717724 0.27786776 
0.54179054 -0.83577144 0.089159116 
0.91014385 -0.24954486 0.33070466 
0.6386375 -0.7693028 -0.017763963 
0.3155121 -0.86246866 0.3957271 
0.02342227 -0.87173253 -0.48942202 
-0.25228345 -0.8946898 -0.36862358 
-0.14171006 -0.9088102 0.39240578 
-0.26120952 -0.9365967 -0.23357289 
-0.2713871 -0.6821206 -0.6790144 
0.06362334 -0.5956453 -0.80072385 
-0.7539335 -0.10035487 -0.6492406 
-0.37001473 -0.29039615 -0.8824734 
0.08298896 -0.13949075 -0.9867397 
-0.39634898 0.31018963 -0.8641122 
0.39022294 -0.36358133 -0.8458929 
0.6219298 -0.6900966 -0.37009463 
0.15343639 -0.76208115 -0.62903863 
-0.004325845 -0.08296057 -0.99654347 
-0.5680721 -0.8126949 -0.12969668 
-0.04220753 -0.4771486 -0.8778085 
-0.25984582 0.24603188 -0.93378186 
-0.73989433 -0.5191769 -0.4277988 
0.18213683 -0.5950986 -0.78274125 
-0.6075654 -0.7176125 -0.34043586 
-0.7218707 -0.46607366 -0.5115447 
-0.2962848 -0.4191947 -0.8581906 
-0.014094059 -0.34684733 -0.9378158 
0.021299813 -0.16990222 -0.98523074 
0.5911345 -0.16604605 -0.7892964 
0.33338687 -0.53095067 -0.7790665 
0.23317528 -0.8589747 -0.4558419 
0.27794448 -0.9208225 0.2735558 
0.5964674 -0.7568216 0.2672973 
-0.5766442 -0.8046392 -0.1415533 
-0.46148401 0.18762426 -0.8670812 
0.18278857 -0.16189098 -0.96973175 
0.37186977 -0.5076457 -0.7771799 
0.37821403 -0.74773055 -0.54575944 
0.027548699 -0.99248445 -0.11922999 
-0.38360646 -0.8111978 -0.4413665 
-0.12713389 -0.5120253 -0.8495099 
-0.47229096 -0.49816436 -0.7271682 
-0.23685989 -0.074851096 -0.9686561 
0.04950223 0.4047555 -0.9130841 
0.2106684 0.49658164 -0.84203655 
0.1406133 -0.9896937 0.027097562 
-0.68715173 0.21874608 -0.69280064 
0.28620362 0.5865947 -0.75762403 
-0.4759667 0.27816758 -0.83431333 
-0.09278107 0.34528494 -0.9339004 
-0.42094192 -0.44641894 -0.78963166 
-0.12434851 -0.8603258 -0.49434486 
0.16654754 -0.963838 -0.2080344 
0.2906309 -0.95286745 -0.08704778 
-0.012407235 -0.9857528 0.16774218 
0.15075204 -0.5959635 0.788734 
0.16235371 -0.9844325 0.067334875 
0.10824791 -0.9072995 0.40631258 
0.5840383 -0.7553692 0.29718137 
-0.55644655 -0.827202 -0.07812853 
-0.13137418 -0.97652566 -0.17070016 
-0.5061236 -0.2592454 -0.8225757 
-0.6447238 -0.20190708 -0.7372685 
0.029956218 -0.55763286 -0.82954705 
-0.07789025 0.012408804 -0.9968847 
-0.33311597 -0.8774638 -0.34509566 
0.25322548 -0.5853226 -0.7702431 
-0.009930974 -0.7305704 -0.6827652 
0.07727633 0.51349086 -0.8546084 
0.050373778 -0.9480996 -0.31395826 
-0.63985854 -0.7641534 0.08155129 
-0.4232646 -0.89868796 0.1149218 
-0.42767835 -0.8756211 -0.22445261 
-0.2264915 -0.6888802 -0.68858236 
-0.4317339 -0.7656997 -0.4767701 
-0.6382453 -0.34755173 -0.68691397 
-0.45991296 -0.56178814 -0.68765855 
-0.3609897 -0.510236 -0.7806059 
-0.08055087 -0.32231358 -0.9431997 
-0.21593246 -0.47021326 -0.8557293 
-0.124568984 -0.45791572 -0.8802248 
0.24857435 0.13571762 -0.9590577 
0.23865299 -0.3681424 -0.898619 
-0.068834566 -0.3874677 -0.9193099 
-0.05229705 -0.2768804 -0.95948017 
-0.5421852 -0.7678488 -0.3412385 
-0.10340727 -0.85374516 -0.51031977 
-0.1269691 -0.45709008 -0.8803111 
0.16800801 -0.1795615 -0.96929413 
-0.46745378 0.12809043 -0.8746885 
-0.4192105 0.12536629 -0.89919186 
-0.6346028 -0.3019496 -0.7114112 
-0.8401465 -0.5220084 -0.14717767 
-0.59907156 -0.17575441 -0.7811682 
-0.09027853 -0.09402006 -0.9914686 
0.978721 -0.023107849 -0.20389041 
-0.045123253 -0.7857336 -0.61691713 
0.20307344 -0.6397103 -0.7413043 
-0.20770998 -0.5761657 -0.7904997 
-0.8290103 -0.0033380135 -0.5592233 
0.034049224 -0.6476238 -0.7611992 
0.16548134 -0.42135322 -0.89167124 
0.014013651 -0.6184659 -0.78568673 
0.3174622 -0.21510087 -0.92355263 
-0.5105483 -0.71189463 -0.48223087 
-0.0072837737 -0.9400082 0.34107408 
-0.7981185 -0.30862728 -0.5174517 
-0.6913987 -0.42235717 -0.58615905 
-0.68964523 -0.5740365 -0.4414428 
-0.5197668 -0.19709156 -0.8312626 
-0.8077925 -0.30316696 -0.50553054 
-0.21586199 0.05793877 -0.97470343 
0.021269185 0.09868323 -0.9948916 
-0.23514979 -0.5146557 -0.8245205 
-0.3207374 0.3439397 -0.88251513 
-0.37271675 -0.35711616 -0.85647553 
-0.38328534 -0.8337028 -0.39753255 
0.43748176 -0.8769106 -0.19909184 
0.053806826 -0.98353904 -0.17249858 
-0.53669614 -0.1726069 -0.8259323 
-0.118954144 -0.6189917 -0.7763371 
-0.38701776 -0.2583413 -0.8851425 
0.27619696 0.67829657 -0.6809031 
-0.17230786 0.15527576 -0.97272784 
-0.0694813 -0.37846553 -0.92300385 
-0.5801758 -0.58559275 -0.5661071 
-0.31834447 -0.42595914 -0.84688586 
0.12783523 -0.21866323 -0.96739066 
0.13653634 0.54569083 -0.82678866 
0.24054158 0.08516781 -0.9668951 
-0.45418954 -0.07482995 -0.887757 
-0.55796516 -0.26421028 -0.78668153 
-0.54894257 -0.1328506 -0.825235 
-0.07534868 -0.35242215 -0.9328029 
-0.08752914 -0.81817895 -0.56826216 
-0.09630621 -0.6963667 -0.7111952 
0.04595842 -0.89762837 -0.43835074 
-0.71072847 -0.6778493 -0.18811034 
-0.77014124 -0.34366816 -0.53737766 
-0.13449356 -0.26279193 -0.9554329 
0.7289707 -0.53139293 -0.43153605 
0.22386295 -0.09341759 -0.9701333 
-0.34525603 -0.3805313 -0.85790104 
0.13234065 -0.532903 -0.8357634 
0.5129803 -0.08534724 -0.854147 
0.5169906 -0.47260237 -0.71370006 
0.5514981 -0.09102188 -0.8291953 
0.8380432 -0.30784476 -0.4504611 
-0.24386127 -0.83919865 -0.48608375 
0.66674745 -0.6119728 -0.42536718 
0.87870294 -0.32869935 -0.34617606 
0.8504395 -0.40783 -0.33230639 
0.9609685 0.2516639 0.11491277 
-0.45904434 0.34975925 -0.8166681 
-0.49436414 0.28532982 -0.8210914 
-0.60624665 -0.4812302 -0.6331529 
-0.5096489 -0.103256054 -0.8541641 
-0.7829574 -0.08058237 -0.61683404 
-0.5619891 -0.1377889 -0.8155872 
-0.37012836 0.22315264 -0.9017804 
-0.20923693 0.13950744 -0.9678625 
-0.955164 0.02101525 -0.2953307 
-0.88487655 -0.42295805 -0.19519268 
-0.9847827 0.15191343 -0.08441218 
-0.5123456 -0.26028714 -0.8183842 
-0.14209607 -0.74459785 -0.6522138 
-0.08504933 -0.083595894 -0.9928637 
-0.24080388 -0.72351307 -0.6469485 
-0.026991073 0.383222 -0.9232618 
0.13070396 0.22228464 -0.9661812 
-0.2647421 0.1606342 -0.9508461 
-0.4557384 -0.122711636 -0.88161474 
0.45581934 -0.32510927 -0.8285727 
-0.49137965 -0.5458121 -0.6787012 
-0.8108055 0.28250638 -0.5126253 
-0.08772502 0.8273573 -0.554783 
0.10829761 0.8760824 -0.46984175 
0.3076834 -0.30828688 -0.90016127 
0.34673724 0.42392078 -0.83669865 
0.6922327 -0.053724084 -0.71967185 
0.42509457 -0.09629308 -0.9000124 
0.28374574 -0.42223617 -0.8609327 
0.29966384 -0.2652745 -0.916423 
0.5436769 0.32674205 -0.77308154 
0.34045297 0.00025893675 -0.9402616 
-0.21794973 0.043486692 -0.97499067 
-0.61044747 -0.3929119 -0.6877312 
0.2755321 -0.21286967 -0.93742657 
0.5149894 0.041981503 -0.856168 
0.6181371 -0.7311007 -0.28878772 
-0.44259644 -0.13733631 -0.8861418 
-0.14415932 -0.22540398 -0.9635409 
0.121541515 0.062488753 -0.9906174 
0.46046296 -0.30130816 -0.83497745 
0.8721783 0.07745542 -0.48301724 
0.6304679 -0.51604617 -0.5798333 
0.9045549 -0.42352775 0.04903892 
-0.11716925 -0.56603754 -0.81601036 
-0.17640845 -0.0056342673 -0.984301 
-0.14495564 -0.6753391 -0.72312176 
0.37960798 -0.6814242 -0.6257466 
0.08783842 -0.5577814 -0.82532686 
-0.06214048 -0.8708527 -0.48760062 
-0.38199383 -0.894116 -0.23374666 
-0.71412313 -0.5670118 -0.41051894 
-0.0053971806 -0.19756824 -0.98027426 
-0.57863647 -0.46877155 -0.66740775 
-0.19843164 0.022664601 -0.9798526 
-0.8139283 0.017976664 -0.58068717 
0.6141966 0.30057466 -0.72966945 
0.6179262 -0.33586296 -0.71088916 
0.3883431 0.44809964 -0.8052307 
0.5124617 0.2729998 -0.8141585 
0.7433556 -0.353652 -0.56776124 
0.81078196 -0.582428 -0.058398232 
0.09148683 -0.99573845 0.011622784 
-0.66699857 -0.6886306 -0.2844308 
-0.20059465 -0.87038034 0.44966647 
-0.38359633 -0.92284817 -0.03471798 
-0.123398595 -0.48921943 -0.86338705 
0.15933594 0.3718445 -0.9145183 
-0.040902827 -0.22172794 -0.9742504 
-0.06979225 -0.024691029 -0.9972559 
0.83760107 0.04393934 -0.54451245 
0.4563087 -0.40829113 -0.79062045 
0.2752731 -0.07736185 -0.9582484 
-0.49315944 -0.45707822 -0.7401846 
-0.48570302 0.010499829 -0.8740608 
-0.34532687 -0.7322472 -0.58699524 
-0.09685251 -0.6699258 -0.7360836 
-0.25593406 -0.28075013 -0.92502826 
0.002396315 -0.3150719 -0.94906485 
0.3953772 0.28829092 -0.872104 
0.44652027 0.0768746 -0.89146507 
0.088934764 -0.14848973 -0.9849068 
0.76892614 -0.39857092 -0.4998938 
0.0061847195 -0.6635935 -0.7480679 
0.021730814 -0.3006086 -0.9535 
-0.1283181 0.036007665 -0.9910792 
-0.3959127 0.4348318 -0.80881053 
-0.19738562 -0.43210024 -0.87995934 
0.023703609 0.6032475 -0.7972017 
0.1061497 -0.22029679 -0.96963996 
-0.1862876 -0.43235257 -0.88225186 
0.02275816 -0.7342424 -0.67850596 
0.03498157 -0.55024886 -0.8342677 
0.12071664 -0.48995292 -0.86335033 
0.5488931 0.092010714 -0.8308131 
-0.37175006 0.45470756 -0.8093473 
-0.57294047 -0.2372916 -0.78449464 
-0.012847988 -0.05779953 -0.99824554 
0.5813204 -0.071716264 -0.8105082 
0.5716026 -0.46253672 -0.67773914 
0.23333189 -0.744165 -0.6259191 
0.28827864 -0.2630977 -0.9206928 
-0.13487273 -0.99066114 0.019999264 
0.2705513 -0.9550021 -0.12154394 
0.75644755 -0.62175924 -0.20298456 
0.6498326 -0.74344426 -0.1581403 
0.21129663 -0.8172759 -0.53611004 
0.33790034 -0.8608054 -0.38057515 
0.11042835 -0.98818535 -0.10628029 
-0.28211856 -0.9506029 0.12947336 
-0.5921528 -0.32265216 -0.73841095 
0.064066626 -0.6647934 -0.74427503 
-0.21478114 -0.466585 -0.8580021 
0.18204136 -0.5385538 -0.8226913 
-0.43679693 -0.34813818 -0.82946265 
0.2788669 -0.14348206 -0.94955057 
0.12027922 -0.16586319 -0.97878623 
0.11611057 -0.20425391 -0.9720076 
0.38859582 -0.5486105 -0.7402836 
0.21427426 -0.71722686 -0.6630779 
-0.52709955 -0.05704824 -0.84788656 
-0.7200693 -0.0074328124 -0.69386244 
-0.6551086 -0.6904851 -0.30669713 
-0.76711106 0.16205794 -0.6207075 
-0.0026995812 -0.6474618 -0.7620931 
0.109221414 -0.79759413 -0.59322375 
-0.085334085 -0.94556516 -0.31404564 
-0.77605814 -0.62433296 0.08911911 
-0.44326985 -0.78410673 -0.43438306 
-0.08142666 -0.4471547 -0.8907427 
-0.029491752 -0.46636182 -0.8841023 
-0.07057807 -0.061785836 -0.9955909 
0.17252557 -0.72674906 -0.66488403 
0.4817735 -0.63236696 -0.6066353 
0.55836254 -0.8291734 -0.026511213 
-0.5706464 -0.8103188 0.13321511 
-0.5210058 -0.8356858 -0.1737308 
-0.2621155 -0.49512228 -0.8283413 
0.6640053 -0.29442164 -0.687323 
0.71047574 -0.39849377 -0.5800233 
0.21856251 -0.9574508 -0.18846302 
-0.34664154 -0.7730333 -0.5312807 
-0.037893414 -0.55183893 -0.8330894 
-0.4845925 0.08821592 -0.8702805 
-0.29734993 -0.7322291 -0.6127183 
0.14405207 -0.5670667 -0.81097746 
-0.24023144 0.396032 -0.8862548 
-0.8655692 0.32441112 -0.3815068 
-0.84322155 -0.26376742 -0.46840605 
-0.3912158 0.24487597 -0.8871223 
0.14284797 0.020674169 -0.9895288 
-0.10018582 -0.0747106 -0.99215984 
0.20614293 0.3229177 -0.9237041 
0.68203926 -0.4583743 -0.56983817 
-0.26210606 -0.90546626 -0.33381316 
-0.0851093 -0.8397256 -0.53629977 
0.34537694 -0.79990065 -0.49078894 
0.17221004 -0.85864717 -0.482772 
0.1209757 -0.9590245 0.25619686 
0.060846224 -0.9981082 0.00882683 
0.5788173 -0.8124006 -0.07054109 
-0.30288577 -0.915417 -0.26508865 
-0.4244878 -0.7880661 -0.44582742 
-0.3656147 -0.41670308 -0.8322767 
-0.076479055 -0.19458997 -0.9778987 
-0.8171799 0.14040142 -0.559021 
-0.20241797 -0.4328872 -0.87842804 
0.3512403 -0.53662336 -0.7672455 
0.6249405 -0.6406521 -0.4461101 
0.22763307 -0.3884288 -0.89292 
0.37726772 -0.19046392 -0.9063071 
-0.28965575 -0.077041775 -0.9540253 
0.14439479 -0.22191264 -0.96431583 
0.6308859 -0.44299632 -0.6369752 
-0.5085334 -0.6170283 -0.600558 
-0.11504823 -0.28153616 -0.95262873 
-0.29824156 -0.21497375 -0.9299668 
-0.77980256 -0.28780487 -0.5559465 
-0.39153537 0.33067724 -0.85869235 
-0.3644502 -0.06492299 -0.92895705 
0.15831034 -0.5527946 -0.81814194 
0.1662848 -0.5571964 -0.81356114 
-0.5509803 -0.13119984 -0.82414037 
0.13101889 0.37862298 -0.91623074 
0.13281061 -0.098114416 -0.9862732 
0.26422638 0.45593837 -0.84988517 
0.054063395 -0.056680236 -0.99692756 
0.2335609 0.14490704 -0.9614839 
-0.334738 -0.73940444 -0.5841504 
-0.2691527 -0.51769763 -0.8121243 
-0.23037125 -0.5927501 -0.771736 
0.24517374 -0.47499788 -0.8451432 
0.38429433 -0.839551 -0.38402104 
0.42095232 -0.38231608 -0.8225774 
-0.26356402 -0.30071983 -0.91657066 
-0.87047005 -0.18727367 -0.45520386 
-0.31181246 -0.5200401 -0.7951927 
0.32218266 -0.54464984 -0.77430946 
0.2729052 -0.27238736 -0.92267436 
0.30564997 -0.66274244 -0.68363047 
-0.25116903 -0.06309945 -0.9658844 
-0.5020243 0.049835373 -0.86341655 
-0.72712797 -0.15899584 -0.66783625 
0.39024353 -0.41496444 -0.82189685 
-0.053455085 -0.64173746 -0.76505935 
0.76757634 -0.317535 -0.5567746 
0.4317988 -0.6224895 -0.6527302 
0.4957603 -0.68111634 -0.5387972 
0.13726804 -0.95295316 -0.27025506 
-0.37360194 -0.73260236 -0.56895995 
-0.4834377 -0.7621987 -0.4305127 
-0.15942699 -0.9631147 -0.21677932 
-0.5923796 -0.55311775 -0.5857878 
-0.4021736 -0.66603863 -0.6282109 
-0.03456227 -0.059892464 -0.9976064 
-0.19570903 0.17927516 -0.9641361 
-0.43265826 -0.008084378 -0.90152174 
-0.9431282 -0.18477936 -0.2763437 
-0.73920053 -0.6294523 -0.23952538 
-0.50187093 -0.748458 -0.43351614 
-0.22299753 -0.6195881 -0.7525841 
-0.47415772 0.04482393 -0.8792982 
-0.74025184 -0.40891942 -0.5336779 
-0.23352988 -0.10369921 -0.9668042 
-0.037274987 -0.34931186 -0.9362649 
-0.66011274 0.048341006 -0.7496095 
-0.8267176 -0.07277912 -0.55789 
0.19608554 -0.3018928 -0.9329584 
0.13722831 -0.62382007 -0.76942635 
-0.10118908 -0.38019255 -0.9193554 
0.08683744 -0.21183464 -0.97343993 
0.066635385 0.12676431 -0.9896922 
0.043303933 -0.4739135 -0.87950593 
-0.36086103 -0.6580271 -0.66089314 
-0.5344422 -0.22295508 -0.8152684 
0.02551058 -0.05323723 -0.998256 
0.47794178 0.13676968 -0.86767834 
0.34659186 -0.58911204 -0.72994596 
0.06605539 -0.95587677 -0.2862452 
0.21226048 -0.9765816 0.035126217 
-0.44125506 -0.8836056 -0.15663746 
-0.20125085 -0.56392735 -0.80092704 
-0.04797848 -0.50648403 -0.8609136 
0.42720303 -0.64235735 -0.6362976 
-0.21942073 -0.5109678 -0.83112365 
0.2483579 -0.9167815 -0.3127782 
0.09942242 -0.69617355 -0.71095544 
0.31281048 0.043477513 -0.94881994 
0.509945 0.5398886 -0.66968393 
0.57038116 -0.26768523 -0.7765373 
0.5962138 -0.31780252 -0.7372453 
0.01725218 -0.63147324 -0.77520573 
0.6090313 0.0028178175 -0.7931413 
0.60313374 -0.4815827 -0.6358521 
0.9411191 -0.2667742 -0.20766936 
0.41750932 -0.42138833 0.80505776 
-0.18482392 -0.13369012 -0.9736361 
-0.54125684 -0.45729816 -0.7056342 
-0.024980016 -0.34942487 -0.9366313 
-0.07979318 0.21929814 -0.9723895 
-0.43793723 -0.5450345 -0.7149465 
-0.55837566 -0.42921302 -0.7099246 
0.4514698 -0.30572313 -0.8382771 
0.72419834 0.17850368 -0.6660881 
-0.79817027 0.39360982 -0.4560652 
-0.56905717 -0.59087825 -0.57187146 
-0.029155035 -0.5346329 -0.8445813 
-0.34908473 -0.6426365 -0.6820251 
-0.63572896 -0.60604924 -0.47807238 
-0.4644682 -0.31581908 -0.8273618 
-0.6290862 -0.28077263 -0.72485673 
-0.40951246 0.12136543 -0.9041958 
-0.85297245 -0.30141732 -0.42612854 
-0.13108553 -0.87352854 -0.46879047 
-0.8020974 -0.22777718 -0.5520483 
-0.43566984 0.6349007 -0.63803846 
0.6175283 0.3691105 -0.69456196 
0.58266133 0.7238202 -0.36958092 
0.63532275 -0.053595807 -0.77038467 
0.6002255 0.5487574 -0.5818889 
0.2986652 0.08495231 -0.9505694 
0.86124057 -0.18477847 -0.47341478 
0.8132747 0.30595592 -0.49494997 
0.10935555 0.73725754 -0.6667029 
-0.2744543 -0.08558314 -0.9577842 
-0.5552903 0.07611994 -0.82816577 
-0.46307203 0.12165551 -0.87793183 
-0.2507935 -0.08228779 -0.96453685 
0.22685522 0.5356309 -0.81341034 
-0.03846052 0.0069087273 -0.9992362 
-0.30906156 0.30637762 -0.900341 
0.20053983 0.595889 -0.77762467 
0.69294965 -0.10956745 -0.71261203 
0.47826797 -0.32556987 -0.81563723 
0.59142053 -0.14009754 -0.79409975 
0.40120542 0.11736857 -0.90843767 
0.50267947 -0.73714346 -0.45158938 
0.6377462 -0.05937862 -0.7679545 
0.6817658 -0.48424503 -0.5483632 
0.6773172 -0.72076106 -0.14746174 
0.06956313 -0.6073074 -0.79141563 
0.06914332 -0.49848437 -0.86413693 
-0.042912148 -0.07556825 -0.99621683 
0.14236881 0.03276842 -0.98927116 
0.28089035 0.44453946 -0.8505793 
-0.019954337 0.13325293 -0.9908812 
-0.22807913 -0.5868973 -0.77687293 
0.20365502 -0.5025656 -0.84020984 
0.20269303 -0.74698895 -0.6331849 
-0.68695366 -0.38601822 -0.6156986 
-0.9128474 -0.33020774 -0.24015106 
-0.22267424 -0.13823247 -0.96504307 
0.15471238 -0.020784443 -0.98774093 
0.7170414 0.2346102 -0.65636104 
0.7795429 -0.13778059 -0.6110069 
0.38372523 -0.18029262 -0.9056763 
0.72030115 -0.6410712 -0.2649417 
0.3249638 -0.9449068 -0.039368674 
-0.18139696 -0.9689119 -0.16824095 
-0.25133172 -0.94843733 0.19312976 
0.41284606 -0.8328792 0.36860603 
-0.6525876 -0.75727063 -0.025898976 
-0.16347235 -0.22593263 -0.9603288 
0.03147211 -0.5181471 -0.8547123 
-0.07049403 -0.1603104 -0.9845462 
-0.2393072 -0.35157144 -0.90505785 