# OOMMF: rectangular mesh v1.0
# Segment count: 1
# Begin: Segment
# Begin: Header
# Desc: Time (s) :  7.180000000000016e-07
# Title: m
# meshtype: rectangular
# meshunit: m
# xbase: 2e-09
# ybase: 2e-09
# zbase: 5e-10
# xstepsize: 4e-09
# ystepsize: 4e-09
# zstepsize: 1e-09
# xmin: 0
# ymin: 0
# zmin: 0
# xmax: 1.024e-06
# ymax: 1.024e-06
# zmax: 1e-09
# xnodes: 256
# ynodes: 256
# znodes: 1
# ValueRangeMinMag: 1e-08
# ValueRangeMaxMag: 1
# valueunit: 
# valuemultiplier: 1
# End: Header
# Begin: Data Text
-0.3526275 -0.6374204 -0.68509066 
0.16603631 -0.80249166 -0.57309604 
0.5597939 -0.76786536 -0.31147012 
0.2795429 -0.8585905 -0.4297421 
-0.4060749 -0.7040836 -0.5825544 
-0.5420449 -0.44427413 -0.7133078 
-0.33118582 -0.08310376 -0.93989885 
-0.2312297 -0.7176524 -0.6568927 
-0.21077526 -0.85099304 -0.48102462 
-0.3505023 -0.34831554 -0.86938167 
-0.23246513 -0.7066974 -0.66823554 
0.033606395 -0.95462275 -0.2959156 
0.2713491 -0.60496825 -0.7485874 
-0.088281974 0.12515548 -0.9882017 
0.72868764 0.10926994 -0.6760729 
-0.29464245 -0.08576956 -0.9517507 
-0.2137636 -0.86695206 -0.45022136 
-0.1836471 -0.83960867 -0.5112055 
-0.36837208 -0.54048884 -0.7564217 
-0.22114064 -0.83761823 -0.49949238 
-0.3912658 -0.6620385 -0.63923097 
0.55502856 -0.48623416 -0.674922 
-0.10499305 -0.48609 -0.8675789 
0.128394 -0.59221643 -0.79548407 
0.42851493 -0.7138552 -0.5538824 
0.07788157 -0.8850854 -0.45886633 
0.36343136 -0.45677128 -0.81195915 
-0.15505727 0.41098806 -0.8983575 
-0.07797026 0.009127221 -0.9969139 
0.30448252 0.068157166 -0.95007634 
0.2606683 -0.8700782 -0.41834906 
0.26188698 -0.9199708 -0.29166594 
0.5777307 -0.68203557 -0.4483913 
0.88815695 -0.27864254 -0.36542547 
0.9787721 -0.10157107 0.17801312 
0.9833988 0.035333164 0.17798448 
0.8367411 0.49604726 -0.23195155 
0.71720344 0.017747242 -0.69663787 
0.27670264 -0.63802356 -0.7185831 
0.28851494 0.029098298 -0.9570332 
0.0827187 0.14739595 -0.9856125 
-0.18104805 0.13052851 -0.97477376 
-0.46343815 -0.2322366 -0.8551557 
0.91950214 0.079342134 -0.3849946 
0.19542988 -0.97835666 0.068010665 
-0.30968055 -0.94873214 0.06328721 
-0.21953566 -0.4993266 -0.83813906 
-0.2974239 -0.9422723 0.15382428 
0.3058606 -0.6857976 -0.6604022 
0.34929618 -0.52853584 -0.7737197 
0.5152908 -0.85641205 0.03215219 
-0.78215605 -0.5810194 0.22505225 
-0.595733 -0.7959811 0.10731425 
-0.124458805 -0.6875032 -0.71543646 
-0.3913618 -0.15892819 -0.9064093 
0.16527614 -0.6884407 -0.70621055 
-0.1723323 -0.9658959 -0.19325297 
-0.4410564 -0.8029504 -0.40092394 
-0.45902893 -0.6309967 -0.62540835 
0.4788302 -0.71969354 -0.5027553 
-0.31547394 -0.66247874 0.6794102 
-0.3668179 -0.4251477 0.82746243 
-0.3152731 -0.90983015 0.2698371 
0.040193964 -0.8850536 0.46375054 
-0.11909971 -0.85458976 -0.5054619 
-0.0045617865 -0.9653831 0.2607961 
0.49981707 -0.41886032 0.7581154 
0.025839644 -0.5545288 0.8317633 
0.39582485 -0.7689793 0.5019898 
0.14251378 -0.93608993 -0.32159853 
-0.31330672 -0.94824904 -0.05160048 
-0.40957373 -0.8883081 -0.20774493 
-0.41690812 -0.14164962 -0.8978436 
-0.7748801 -0.17398366 -0.6076928 
-0.9862283 0.06451633 -0.15228711 
-0.9838188 0.011894605 -0.17877097 
0.16952404 0.21347383 -0.96212816 
-0.66353035 0.09382392 -0.742243 
-0.34960592 0.49557596 -0.7950976 
0.7819143 0.32284686 -0.533273 
0.89235896 0.45092425 -0.019049501 
0.9198261 0.085968584 0.38279155 
0.25155482 -0.14880733 0.95633495 
-0.57837045 -0.49211764 0.6506211 
0.33212635 -0.90138847 -0.27783272 
-0.26591545 -0.8757356 -0.40295953 
-0.48844036 -0.43438083 -0.75679547 
-0.40160182 -0.6954528 -0.59587026 
-0.36888096 -0.24052837 -0.89781564 
0.13686119 -0.6443029 -0.7524246 
0.38575977 -0.5888361 -0.7102546 
0.5479805 -0.64218664 -0.5360166 
0.6118461 -0.7024358 -0.3636321 
0.5750095 -0.6702845 -0.4691299 
0.24613503 -0.537441 -0.80658215 
0.18904234 -0.71306556 -0.67513007 
-0.3967511 -0.81436545 0.4235535 
-0.65753835 -0.6794498 -0.32556313 
-0.48493975 0.058464184 -0.8725912 
-0.6087558 -0.10765347 -0.78601974 
0.043020662 0.43826568 -0.89781535 
0.12713459 -0.3479023 -0.92887074 
0.41963896 0.23591489 -0.87649727 
-0.28926072 -0.68824005 -0.6653224 
-0.41352314 -0.7532553 -0.51147366 
0.14002387 -0.7464819 -0.650506 
0.7320837 -0.56930804 -0.37408808 
0.62161404 -0.5999601 0.5036307 
0.5380645 -0.80913424 0.23619613 
-0.05466309 -0.34206408 -0.9380853 
-0.09637249 -0.6338693 -0.76741266 
-0.14629683 -0.58906585 -0.79473186 
0.13758977 0.118049875 -0.9834294 
-0.10688701 0.2703024 -0.9568238 
0.20168601 -0.39828554 -0.89481366 
-0.629056 -0.4523916 -0.63216335 
-0.5767632 -0.57486963 -0.5804043 
-0.67266434 -0.5895381 -0.44717723 
-0.6824774 0.40608487 -0.6077168 
-0.9009323 -0.07852936 -0.4267953 
-0.16085581 0.047286086 -0.98584455 
0.10192392 -0.83461374 -0.5413239 
-0.15051286 -0.79580456 -0.5865502 
-0.3862808 -0.8901609 -0.24166271 
-0.6597929 -0.7417389 -0.12040228 
-0.8629091 -0.45812503 0.21332946 
-0.8407297 -0.5277722 -0.120955095 
-0.54119474 -0.5988452 -0.5903327 
-0.5792003 -0.6459271 -0.49729803 
-0.398893 -0.42093334 -0.81467766 
0.5739897 -0.19606084 -0.79504466 
-0.8935763 -0.42410025 -0.14717467 
-0.02666053 -0.97264224 -0.23077358 
-0.45700353 -0.8647305 -0.20830077 
-0.91662806 -0.39388126 0.06819625 
-0.33381346 -0.7144871 0.6148795 
-0.7611032 -0.64187056 -0.09340314 
-0.812848 -0.2032477 -0.5458649 
-0.7243813 0.6677658 0.17134959 
-0.49962705 -0.2669221 0.8240907 
0.2973974 -0.33702883 -0.89328974 
0.6694627 -0.44190693 -0.5971081 
-0.07800844 -0.6968628 -0.7129495 
0.24077858 0.07383204 -0.96776783 
0.0035110184 -0.124159075 -0.99225616 
0.22972073 -0.068668365 -0.9708311 
0.31655204 0.008790418 -0.9485345 
-0.18050629 0.067360066 -0.9812646 
0.4584801 -0.40688774 -0.79008764 
0.4241483 -0.09128521 -0.90098023 
0.6534402 -0.75358164 0.07162949 
-0.36184496 -0.7421893 -0.5641129 
-0.41290036 -0.6958447 -0.5876338 
-0.2985252 -0.8392677 -0.4544365 
-0.35741204 0.0972528 -0.92886955 
-0.1747607 -0.25427145 -0.9512122 
0.06718811 -0.40979534 -0.9096997 
0.016040556 -0.6001491 -0.7997274 
-0.0022127018 -0.5983459 -0.8012349 
0.20804024 -0.9696819 -0.12820394 
0.29734835 -0.8722968 -0.3881782 
0.17622977 -0.71182054 -0.6798931 
-0.014057511 -0.75935364 -0.6505264 
-0.05292258 -0.9806245 0.18861338 
-0.1229902 -0.94097656 -0.3153359 
-0.7654205 -0.5079211 -0.3951553 
-0.46421415 -0.45311105 -0.7610491 
0.31089532 -0.6674727 -0.67662716 
0.22123879 -0.8523715 -0.47383156 
0.25713646 -0.84000623 -0.4777766 
-0.11601795 -0.9352651 0.3343935 
-0.65445846 -0.5729025 0.49342367 
-0.6930599 -0.12739731 -0.70953363 
-0.16723226 -0.92099494 -0.35185495 
0.120416045 -0.81750554 -0.5631916 
-0.093734816 -0.41816804 -0.9035205 
-0.093139015 -0.1969449 -0.97598046 
-0.555893 0.41415703 -0.72073364 
0.02338834 0.13088176 -0.99112207 
-0.6781064 0.51519024 -0.5241668 
-0.011102134 0.53788674 -0.842944 
-0.15081677 0.2932773 -0.9440566 
0.0015247402 0.52496284 -0.85112375 
0.43050185 0.1909012 -0.8821706 
0.24041763 -0.35362765 -0.90396184 
-0.36499578 -0.5600122 -0.74375033 
-0.38048962 -0.61979425 -0.6863547 
-0.6678515 -0.16688778 -0.7253433 
-0.14302741 -0.3792 -0.914194 
0.8509294 -0.14086333 -0.50604033 
0.0029835275 0.11624242 -0.99321645 
0.2379139 -0.85063434 -0.46884796 
0.57747585 -0.71318483 0.39735267 
0.52526873 -0.71479 -0.46170133 
0.06201703 -0.8987601 -0.43403262 
0.5515087 -0.83045846 0.078593224 
-0.22312403 -0.7082732 0.6697498 
0.8626894 -0.4509829 0.22887045 
0.040266514 -0.99877286 0.02883575 
0.09481943 -0.89665073 -0.43246606 
-0.88819164 0.109611325 0.44620734 
-0.8150321 -0.19564913 0.54538435 
-0.7588533 -0.1582 0.63175493 
-0.4552144 -0.5404119 0.7076262 
-0.87321675 0.20267542 0.4431875 
-0.98797 0.00331908 -0.15461057 
-0.7058678 -0.30394456 -0.639819 
0.20685427 -0.06608023 -0.97613764 
0.079732634 -0.45370445 -0.8875782 
0.64445746 -0.11424125 -0.756058 
-0.076160535 -0.23861855 -0.96812236 
0.0080525465 -0.3897432 -0.9208884 
0.6570195 -0.33665603 -0.6745281 
0.039393302 -0.48175585 -0.8754197 
0.37650067 -0.8902425 -0.25635034 
-0.5340594 -0.1761513 0.8268926 
-0.51064897 -0.6103325 0.60558397 
-0.6159997 -0.54019696 0.5733512 
-0.8410048 0.51810217 0.1558242 
-0.88765275 -0.3062333 0.34393874 
-0.7064711 -0.3804477 -0.5967899 
-0.66326845 -0.37929323 -0.64514476 
-0.21133839 -0.39633745 -0.89344996 
-0.3698855 -0.03685808 -0.928346 
0.7549336 0.051631615 -0.65376574 
0.24323393 -0.93514204 -0.25757855 
-0.23273063 -0.58616036 -0.7760494 
0.35136598 -0.7642843 -0.54075086 
-0.24872331 -0.9527046 0.17461619 
-0.3510821 -0.92293286 -0.15791216 
-0.54910445 -0.5813638 -0.6004169 
-0.13757092 0.09416283 -0.9860059 
0.7946835 -0.54848284 -0.26008618 
0.71193063 -0.7007351 0.04610012 
-0.2592519 -0.89851993 0.35418996 
-0.054639377 -0.9481478 -0.31309798 
0.7664613 -0.6410229 -0.04033395 
0.30916286 -0.6056054 0.73325336 
0.31819692 -0.042565405 0.9470687 
-0.41474175 -0.68443674 0.59961295 
-0.7363205 0.21522613 0.6414904 
-0.9850863 0.11450869 -0.12842415 
-0.8925182 -0.4333674 -0.124915875 
-0.23042002 -0.32149297 -0.91844916 
-0.1506391 -0.041776735 -0.98770577 
-0.06328323 -0.49394274 -0.86718845 
0.56447774 -0.69900453 -0.4390417 
0.41981095 -0.66475534 -0.6179475 
0.5692031 -0.21680245 -0.79309815 
0.56987697 -0.092114866 -0.81655073 
0.8784102 -0.4455831 0.17277509 
0.36142433 -0.8169397 -0.44942424 
0.0009499675 -0.3028726 -0.9530306 
-0.46751595 0.25798887 -0.8455002 
-0.02241637 -0.55970496 -0.8283887 
-0.07061397 -0.6849816 -0.72513026 
-0.67768943 -0.46645376 -0.5684698 
-0.15470959 -0.81872666 -0.5529482 
-0.20110741 -0.9234661 -0.3267511 
-0.1368412 -0.89903295 -0.41594994 
0.105062574 -0.64258254 -0.7589794 
-0.2523096 -0.26287022 -0.93125683 
-0.121751934 0.04072783 -0.9917246 
-0.48728296 -0.7444148 -0.45651066 
-0.61587363 -0.5203897 -0.5915187 
-0.47842202 -0.4232825 -0.7693792 
-0.048998628 -0.4904952 -0.8700653 
0.18845174 -0.6176804 -0.7635161 
-0.71221757 -0.08786393 -0.69643813 
-0.61266005 -0.5789374 -0.5380327 
-0.0027820254 -0.2750744 -0.961419 
-0.5675533 0.18565752 -0.8021314 
-0.6071524 0.0880087 -0.78969646 
-0.7064656 -0.2901608 -0.64553326 
-0.6334181 -0.33298993 -0.6984979 
-0.2779291 -0.25778288 -0.9253667 
-0.7088573 0.09560511 -0.6988426 
-0.15066692 -0.033670146 -0.9880111 
-0.1936002 -0.31330645 -0.92970854 
0.17089385 -0.03234124 -0.9847586 
0.41026807 -0.42748818 -0.80556434 
-0.057321787 -0.6304295 -0.7741272 
0.061353248 -0.13549197 -0.98887706 
0.5777918 0.11733726 -0.8077058 
0.00071821164 0.44410655 -0.8959737 
-0.3149496 -0.34681478 -0.883474 
-0.3979207 -0.9146445 -0.07130681 
-0.46432796 -0.7431276 -0.48183084 
-0.63592935 -0.7313146 -0.24652183 
-0.37221637 -0.2048957 -0.90524745 
0.32466528 -0.6004664 -0.73077536 
0.21949995 -0.032922477 -0.97505695 
0.6227746 0.12899143 -0.7716949 
0.58110994 0.25452396 -0.77299994 
-0.43723327 -0.031420194 -0.8987992 
-0.33928418 -0.5277821 -0.7786735 
0.2508118 -0.1288668 -0.95942 
0.17672646 0.13360888 -0.9751495 
-0.14508201 -0.5491171 -0.8230564 
0.561932 -0.34718558 -0.750796 
0.4302889 -0.90263796 -0.009808887 
0.14481834 -0.980404 -0.1335504 
0.0007508613 -0.98237956 -0.18689571 
-0.47884136 -0.8482612 -0.22619496 
-0.33045346 -0.6776453 -0.65696067 
0.413162 -0.6424267 -0.64543414 
0.15065704 -0.985707 -0.07539422 
-0.43898946 -0.86981803 -0.22517756 
-0.29146942 -0.7719674 -0.56489986 
-0.67173594 -0.7157513 -0.19097382 
-0.49901208 -0.7839824 -0.36926764 
-0.08498007 -0.34213555 -0.9358 
0.51190907 -0.5571974 -0.6538198 
-0.30236387 -0.80312485 -0.51338744 
-0.31272838 -0.6897972 -0.65297836 
-0.24231042 -0.66477704 -0.7066521 
-0.58886665 -0.72728294 0.352556 
-0.5186394 -0.81559056 -0.2565646 
0.7775182 -0.59132284 -0.21401589 
0.3026154 -0.9151443 0.26633593 
-0.14995846 -0.98868024 -0.0048868107 
-0.1091905 -0.96945477 -0.21962428 
-0.16192083 -0.9124057 0.3758955 
-0.4663314 -0.84935015 -0.24726392 
-0.29314756 -0.7866136 -0.5434186 
-0.6709387 -0.65118617 -0.35468012 
-0.19977307 -0.7770971 -0.5968342 
-0.32863665 -0.6160199 -0.7159033 
0.40959334 0.05216788 -0.9107754 
-0.01567403 0.5804192 -0.81416696 
-0.5368537 -0.3781303 -0.7541922 
-0.28401947 -0.90904045 -0.30492368 
-0.369101 -0.28481013 -0.8846738 
-0.997934 0.063480765 -0.0098948 
-0.36731043 -0.5696833 -0.735217 
0.9266485 -0.24386813 -0.28609616 
0.88034654 -0.42004222 -0.22035071 
0.85462135 -0.3714849 0.3627967 
0.46620956 -0.16530658 0.86909294 
0.001670439 -0.83652824 0.54792136 
-0.2152115 -0.9591083 -0.18383549 
-0.3760332 -0.2812609 -0.8828881 
-0.53531516 -0.062762074 -0.84231746 
-0.62021583 -0.222954 -0.7520797 
-0.15457366 -0.0744006 -0.9851759 
0.11973834 -0.8272803 -0.54888064 
-0.108019605 -0.24792656 -0.96273786 
-0.32327422 -0.54293084 -0.77506125 
0.22434644 -0.8121266 -0.53862697 
-0.56127894 -0.790603 -0.24477091 
0.5207029 -0.058558073 -0.85172737 
-0.21348873 -0.4884245 -0.8460875 
-0.15659763 -0.18861517 -0.9694853 
-0.41217893 -0.66714764 -0.62050194 
-0.5022097 -0.5508309 -0.6666115 
-0.5115598 0.17719835 -0.8407779 
-0.08565709 -0.014380816 -0.99622095 
-0.14096996 -0.077627495 -0.9869658 
-0.1562698 -0.017907552 -0.9875521 
0.07945632 -0.07398763 -0.9940888 
-0.8124367 -0.5823548 -0.02845467 
-0.06037613 -0.5521183 -0.831577 
0.102248095 -0.7108192 -0.69590336 
0.55658823 -0.42318118 -0.71493167 
0.21458311 -0.88661903 0.40970808 
-0.35057175 -0.43774658 -0.8279357 
-0.22234648 -0.35965705 -0.90620583 
-0.30573946 -0.7910501 -0.529871 
0.18017653 0.40885472 -0.89463633 
0.17932568 0.22858381 -0.9568656 
-0.23147133 0.42862454 -0.8733281 
-0.59196025 0.76918215 -0.24071145 
-0.52961415 0.10217416 -0.8420626 
-0.42136386 -0.31630835 -0.849942 
-0.61520374 0.0695477 -0.7852946 
-0.5669883 -0.34745315 -0.7468606 
0.47129992 -0.21859568 -0.8544544 
-0.5219757 0.10948934 -0.84590405 
-0.59809583 -0.5996536 -0.53169256 
-0.53565043 -0.46417877 -0.70541954 
-0.62334627 -0.7179047 -0.30992308 
-0.525263 -0.72172165 -0.45079562 
-0.9037032 -0.41877446 0.08915515 
-0.826401 -0.33285648 -0.45416752 
-0.5003548 -0.3859475 -0.7750417 
-0.5270506 -0.2945691 -0.7971491 
-0.82117265 -0.091890946 -0.56323314 
-0.7514753 -0.48678064 -0.4453421 
-0.33570686 -0.9396685 -0.06575847 
-0.30897328 -0.8832072 0.352818 
-0.6490771 -0.7607141 -0.0035988952 
-0.9836907 -0.04306955 -0.17463583 
-0.50183535 -0.2587386 -0.82535785 
-0.21626481 -0.49721396 -0.8402428 
-0.5089124 0.27888066 -0.8143917 
-0.6377144 -0.256833 -0.7261936 
0.44503316 -0.37661052 -0.8124716 
0.762876 0.15932535 -0.6266065 
0.46637446 -0.45950955 -0.75587434 
-0.2592852 -0.023437932 -0.9655163 
-0.20550974 -0.0012616034 -0.97865427 
-0.1687009 -0.4179952 -0.8926478 
-0.60511 0.12727289 -0.785903 
-0.086968936 -0.20299788 -0.9753094 
0.18608886 -0.52922595 -0.8278229 
0.18810269 -0.45835033 -0.86863834 
0.5486465 -0.50989455 -0.6625667 
-0.0030244798 -0.823705 -0.5670106 
-0.31786713 -0.70959926 -0.62883174 
0.011195944 -0.68159926 -0.73164004 
0.30493546 -0.4918323 -0.81554604 
0.6993185 -0.3139448 -0.64217776 
0.351122 -0.82008547 -0.45185533 
0.03499023 -0.5436949 -0.83855337 
0.5975674 -0.4666098 -0.6520648 
0.25388515 -0.92678416 -0.27679166 
0.43194315 -0.60450536 -0.66932684 
0.07825486 -0.6259443 -0.7759318 
-0.25370494 -0.91575915 -0.31147888 
-0.12474531 -0.98429173 0.12493357 
-0.006784811 -0.9598621 -0.28039014 
0.04201379 -0.8854929 -0.46274975 
0.3285961 -0.7600418 -0.56067926 
0.65411997 -0.37277037 -0.65815604 
0.40611246 -0.9081693 -0.101494566 
0.8535704 -0.46409592 -0.23671187 
-0.19793847 -0.9229057 0.33025065 
-0.5452677 -0.7923205 -0.2736995 
-0.4051705 -0.7275906 -0.5535782 
0.042284224 -0.72256386 -0.69000983 
0.52936643 -0.84629947 -0.0595686 
-0.3334323 -0.49751902 -0.80081075 
-0.08582036 0.49485707 -0.86472625 
0.442353 0.3277253 -0.8348174 
0.23073886 0.5923835 -0.77190757 
-0.42355314 0.48484868 -0.7651957 
-0.20736386 0.39495677 -0.8949912 
-0.6524708 0.72960985 -0.20482054 
-0.40322608 0.68880427 -0.60245955 
-0.39908808 0.038938873 -0.9160854 
-0.21563871 -0.42051578 -0.8812869 
-0.35823846 -0.50253177 -0.7868464 
-0.1949162 -0.8325144 -0.5185824 
-0.038652323 -0.84896445 -0.52703446 
0.569498 -0.43717432 -0.6960968 
-0.15968442 -0.037459217 -0.9864572 
-0.18268557 -0.5011086 -0.84588194 
-0.2347934 -0.77483517 -0.5869434 
-0.24979948 -0.7304808 -0.6356084 
-0.00974596 -0.97775966 -0.20950224 
0.1029303 -0.8280854 -0.5510717 
0.15172891 -0.83768964 -0.5246471 
0.64610213 -0.73905396 0.19066027 
0.6829321 -0.61710405 -0.3908791 
-0.53876895 -0.8379744 -0.086757906 
-0.5041791 -0.8312275 -0.23423158 
-0.6227347 -0.76042706 0.18426105 
-0.8216061 -0.46065265 0.3358014 
-0.43644488 -0.81512576 0.38090152 
-0.92515504 -0.3207981 -0.2029206 
-0.83497304 -0.54486436 0.0770905 
-0.9032994 -0.10411882 -0.41618446 
-0.92299813 -0.37918782 0.065505415 
-0.26874426 -0.08907337 -0.9590842 
-0.5749409 -0.23529072 -0.7836334 
-0.7975412 0.3288166 -0.5057744 
-0.2839586 -0.6187724 -0.73245364 
0.2339598 -0.16119201 -0.9587909 
0.44387245 -0.7903194 -0.42234188 
0.7100196 -0.6615314 -0.24134733 
0.29525378 -0.92996305 -0.21907538 
0.24603055 -0.4224679 0.87234735 
-0.30974734 -0.6501729 0.69378084 
-0.88255674 -0.44054446 0.16436024 
-0.97633964 -0.051518135 0.21001644 
-0.9552127 0.29577917 0.009130761 
-0.5440587 -0.69412905 -0.4713652 
-0.574591 -0.43096796 -0.6957815 
-0.15861878 -0.9049516 -0.39484534 
-0.27143988 -0.058736328 -0.9606615 
-0.37824395 -0.3663091 -0.85014653 
-0.097132176 -0.96118224 -0.25825223 
0.41851506 -0.907966 0.02104764 
0.59400094 -0.7315225 -0.33472043 
-0.518048 -0.7428814 -0.42397347 
-0.13400912 -0.868336 -0.47752932 
-0.317322 -0.9410429 -0.11723982 
-0.12777309 -0.5831128 -0.80228025 
-0.07688015 -0.90542054 -0.41749644 
-0.07071059 -0.98624325 0.14941303 
0.038064 -0.89336616 0.44771436 
0.50671774 -0.85108554 -0.13744311 
0.72835374 -0.5337243 -0.4296967 
0.09136715 -0.8810144 0.46418294 
-0.38537854 -0.8469416 0.36629668 
-0.09984392 -0.72737366 0.6789395 
-0.9730344 -0.21807124 0.07516134 
-0.8095249 -0.061244458 0.5838824 
-0.7560814 -0.38899693 -0.5263292 
-0.26328823 -0.48987746 -0.83108336 
0.10698125 -0.2053858 -0.97281647 
0.34982303 -0.17766976 -0.91981375 
-0.10926644 -0.83857584 -0.5337148 
-0.03908774 -0.4905598 -0.87053055 
0.43583786 -0.2288304 -0.87044936 
0.47731942 -0.017452838 -0.8785566 
0.6910204 -0.08301865 -0.718052 
0.42555198 -0.6547137 -0.62470436 
-0.28521445 -0.20656316 -0.93594044 
-0.6328416 -0.47267896 -0.6132586 
-0.49000305 -0.28526196 -0.823725 
-0.32745463 -0.52357215 -0.7865403 
-0.55103356 -0.23223136 -0.8015178 
-0.16149777 -0.49377596 -0.8544612 
-0.59138745 -0.3320837 -0.73483425 
0.070754066 -0.3547868 -0.9322662 
-0.15333714 -0.18257266 -0.9711617 
0.2891627 -0.42675024 -0.8568951 
-0.46680886 -0.014378968 -0.88424146 
-0.2014511 -0.69181633 -0.69340295 
-0.19197704 -0.9007673 -0.38956764 
-0.58919567 -0.5080665 -0.62826514 
0.2366043 -0.76060617 -0.60456324 
-0.13626847 -0.50826526 -0.8503513 
-0.6273289 -0.64228165 -0.44037804 
-0.21380742 -0.6998972 -0.6814913 
-0.054651268 -0.7740883 -0.63071436 
-0.66995305 -0.40149722 -0.62447023 
-0.8704886 0.20300539 -0.44837305 
-0.24566388 -0.17720073 -0.9530211 
-0.34213036 -0.529297 -0.7763965 
-0.42059296 -0.24187066 -0.87441427 
-0.30552885 0.15995587 -0.93865126 
0.16126306 0.42227057 -0.8920101 
0.48336488 -0.1279815 -0.86601347 
-0.6997182 0.14467542 -0.69961673 
0.21874759 0.17014322 -0.9608334 
-0.17061695 0.09806952 -0.98044497 
-0.019916238 -0.40735427 -0.91305304 
0.58225393 0.5425171 -0.60552096 
0.1542155 -0.11308046 -0.9815449 
-0.12644143 -0.7676457 -0.6282775 
-0.2299645 -0.9166716 -0.3268479 
0.20075668 -0.9250508 -0.32245624 
-0.046756364 -0.9697248 -0.23968245 
-0.1331664 -0.39331722 -0.9097078 
0.2580477 -0.3146348 -0.91346395 
0.21746148 -0.28613967 -0.9331852 
0.38012952 0.13580494 -0.91490906 
0.6924926 0.56942403 -0.44295627 
-0.20238052 -0.01346436 -0.97921443 
0.40242928 -0.7137146 -0.5732907 
0.2324579 -0.09110743 -0.9683299 
-0.053349007 -0.064617224 -0.9964831 
-0.25995693 -0.774802 -0.5762848 
0.36363682 -0.7672023 -0.5283644 
-0.14890023 -0.9692911 -0.19571309 
0.44910258 -0.8199242 0.3550088 
-0.21296541 -0.647649 -0.7315714 
-0.31774816 -0.2951237 -0.9010761 
-0.81944966 -0.055153675 -0.57049125 
-0.549178 -0.022931682 -0.8353908 
-0.23223636 0.13359593 -0.96344095 
0.0936218 -0.7440312 -0.6615532 
-0.48805925 -0.34529215 -0.8016057 
-0.7922599 -0.558723 -0.24526104 
-0.525862 -0.73726416 -0.42415905 
-0.7246646 -0.33073044 -0.6045483 
-0.31552392 0.30483568 -0.8986211 
-0.03791601 -0.33248582 -0.94234574 
-0.14776015 -0.5330892 -0.8330564 
-0.2648897 -0.609507 -0.747218 
-0.29653263 -0.821973 -0.48623955 
0.45458555 -0.45806602 -0.7638897 
0.2361197 -0.5329203 -0.81255364 
0.49579886 -0.8595072 -0.124221325 
0.16745688 -0.9527415 -0.25346008 
-0.30738375 -0.8366362 -0.45338202 
-0.17351891 -0.8321349 -0.52672845 
0.19443996 -0.65110767 -0.73365664 
-0.7332973 -0.29076132 -0.61459994 
-0.77610314 -0.14888817 -0.6127775 
-0.6739089 -0.596333 -0.436158 
-0.10746717 -0.5723179 -0.8129595 
-0.29947278 0.08049802 -0.95070297 
-0.1319717 -0.94825447 -0.28878543 
-0.55840546 -0.50315624 -0.6595583 
-0.3184919 -0.41540283 -0.85205835 
-0.3356357 0.34679782 -0.8758311 
-0.30124646 0.46360806 -0.8332577 
0.2387695 0.17862274 -0.95450675 
0.86774766 -0.37724727 -0.32357165 
0.7883489 -0.6144446 0.031044953 
0.6047909 -0.7570177 -0.24728961 
0.3894824 -0.92095727 0.011876709 
-0.20467968 -0.9739776 0.09733386 
-0.5596769 -0.8200317 0.119624384 
-0.55211 -0.32823744 -0.76644295 
-0.05683226 -0.4338725 -0.89918005 
-0.777549 -0.52700484 -0.34305012 
-0.2517365 0.15206242 -0.95577496 
0.06483577 -0.96970034 -0.23553678 
0.37140423 -0.553766 -0.7452531 
0.567778 -0.5013957 -0.6528634 
-0.6707831 -0.47080702 -0.57305396 
-0.7044109 -0.6981136 -0.12822917 
-0.09035456 0.06251472 -0.9939457 
-0.1097238 -0.56575036 -0.81724375 
0.101414315 -0.6349498 -0.7658681 
-0.3774384 -0.40530837 -0.8326257 
-0.59227544 -0.06903584 -0.8027726 
-0.24645913 -0.08901588 -0.9650565 
-0.69932556 -0.4087054 -0.58643305 
7.1212264e-05 -0.17431457 -0.98469 
-0.6050322 0.6781909 -0.41712505 
-0.6699162 -0.39919308 -0.62598497 
-0.40291533 -0.40281928 -0.82182467 
-0.48628336 -0.35133347 -0.80005825 
-0.00608995 -0.6513645 -0.7587406 
-0.14437495 -0.64409846 -0.75119454 
0.07778405 -0.9878388 0.13462602 
0.046541166 -0.61624146 -0.7861809 
-0.4560608 -0.7753012 -0.43694013 
-0.032794178 -0.46689475 -0.88370466 
0.07218903 0.24044056 -0.9679758 
-0.11184681 0.23644671 -0.96518564 
-0.23926093 0.18698426 -0.9527807 
0.08964617 0.90626127 -0.413103 
0.059686314 0.12457676 -0.9904132 
0.2356028 0.10734315 -0.9659031 
0.61414355 0.47181818 -0.63262576 
0.096891455 -0.28148577 -0.9546611 
0.06898968 -0.41885063 -0.90543056 
0.1527755 -0.49463308 -0.8555687 
-0.5562791 -0.3174645 -0.7679648 
-0.44435823 0.29768032 -0.84494513 
-0.5144859 0.38139886 -0.76800996 
-0.59077156 -0.28219736 -0.7558794 
-0.91418815 0.07431926 -0.39841792 
-0.496301 -0.06210457 -0.86592627 
-0.7531889 -0.18434796 -0.63144463 
-0.47292635 -0.5284476 -0.70504177 
-0.5667793 -0.82376206 -0.013323302 
0.07039774 -0.8294057 -0.5541935 
-0.42769152 -0.8478789 -0.31333923 
-0.6542621 -0.36114654 -0.6644655 
-0.096243694 -0.34642148 -0.93312883 
0.19652414 -0.532028 -0.82360464 
0.41963273 -0.567908 -0.7080883 
0.026130317 -0.8372169 -0.54624635 
0.14018328 -0.49278072 -0.8587874 
-0.5250643 -0.29653352 -0.7977314 
0.4261922 -0.32376453 -0.844711 
0.9193981 0.37127548 -0.12985253 
0.16585085 0.19575566 -0.9665263 
-0.041110028 0.16665511 -0.98515797 
-0.13528177 -0.61113745 -0.7798782 
-0.15343428 -0.054022413 -0.98668104 
-0.12616651 0.1231385 -0.98433685 
0.18783534 0.14762206 -0.97104365 
0.024329895 0.051410843 -0.9983812 
0.15964374 -0.13869907 -0.9773825 
0.42340198 0.12725726 -0.8969596 
0.25627017 -0.42398915 -0.8686534 
-0.26643202 -0.32320338 -0.90804935 
-0.50466084 -0.7484252 -0.43032232 
-0.15862451 -0.86051136 -0.4841058 
0.43465328 -0.8114934 -0.3905829 
0.36843845 -0.9289295 0.03664729 
0.14225478 -0.90064055 -0.41062167 
0.19472496 -0.7759147 -0.6000322 
-0.75871325 -0.5866194 0.28325233 
-0.42829245 -0.51006985 -0.7459185 
0.043069836 -0.8217841 -0.56816894 
0.43178514 -0.7687925 -0.47171995 
0.3494923 -0.89366513 -0.28145656 
0.7213435 -0.6170315 -0.3145405 
0.29571608 -0.8517212 -0.43257707 
-0.12049506 -0.62614775 -0.7703376 
0.27958265 -0.9567749 -0.08009648 
0.17129189 -0.92775077 0.33156854 
0.1342648 -0.81013435 0.5706623 
-0.47277248 -0.7102743 -0.521533 
0.5279657 -0.8042662 -0.2727784 
0.30153537 -0.40617788 -0.86261004 
0.2340123 -0.47163883 -0.85017353 
0.057417635 -0.033447128 -0.99778986 
-0.15974303 0.37031204 -0.915069 
0.2405218 0.2872905 -0.92715347 
0.039202522 -0.39588115 -0.9174647 
-0.054330558 0.3017026 -0.9518528 
-0.10310388 0.5856898 -0.803951 
-0.3485393 0.26343006 -0.8995138 
-0.3137102 0.73947537 -0.59561914 
-0.40534142 -0.38039795 -0.8312615 
-0.21180029 -0.13627376 -0.9677655 
-0.27855575 -0.5018862 -0.818851 
-0.80555123 -0.002347761 -0.5925215 
-0.49951527 -0.05403092 -0.86461854 
-0.28832692 -0.9148725 -0.28262344 
-0.5337684 -0.68457943 -0.4964296 
-0.3080454 -0.25544113 -0.9164376 
-0.38338697 -0.350718 -0.8544071 
0.020530848 -0.57451844 -0.8182342 
0.2086603 0.17491505 -0.9622192 
0.66541004 -0.42678234 -0.61244303 
0.18833585 -0.9635216 0.19014695 
0.3804067 -0.78986126 0.48105097 
0.19616401 -0.97513485 0.1031106 
0.10555249 -0.9368988 -0.33328557 
-0.32017645 -0.9234003 -0.21170504 
-0.7008261 -0.7018878 -0.12726526 
-0.2650916 -0.9637239 -0.03102784 
-0.35166723 -0.85691386 0.376867 
-0.7189684 -0.2058956 0.663846 
-0.85321474 -0.48849243 0.1827561 
-0.93299246 -0.35790426 -0.03781148 
-0.712687 0.17286853 -0.6798483 
-0.49229524 0.1632955 -0.85497373 
-0.2363298 -0.49559832 -0.83578146 
-0.7548696 -0.20534618 -0.62290037 
-0.21418074 -0.6210616 -0.7539291 
-0.1967207 -0.9233802 -0.3296515 
0.37265697 -0.5065423 -0.7775228 
0.11944118 -0.23516908 -0.9645877 
0.45702216 -0.26603192 -0.8487389 
0.016179444 -0.65077823 -0.7590955 
0.15356569 -0.9839983 -0.09035996 
-0.45639428 -0.74179244 0.4913738 
-0.6405494 -0.7670742 0.03596861 
-0.9382195 0.025544252 0.34509665 
-0.97739667 -0.11462017 0.1776461 
-0.5488493 -0.5993845 -0.5826686 
-0.053646486 0.055195767 -0.9970334 
0.37576658 -0.60185933 -0.7046735 
-0.13314918 -0.4885356 -0.8623249 
-0.15398993 -0.4277164 -0.8906996 
-0.3611497 -0.7752244 -0.51826465 
0.06033491 -0.5059805 -0.8604322 
0.42519364 -0.1318413 -0.8954487 
-0.04385923 -0.6557033 -0.75374365 
-0.22037241 0.14792432 -0.9641341 
-0.72282684 -0.48967627 -0.48758444 
-0.19150747 -0.20329124 -0.96020705 
0.24325 -0.80708706 -0.53799635 
-0.3893635 -0.9175628 0.08046554 
-0.007556805 -0.7339879 -0.6791205 
0.40676346 -0.88067675 -0.24280049 
-0.08555691 -0.91008604 -0.40549168 
0.21187362 -0.8416929 0.4966515 
0.111068524 -0.98633754 -0.121664256 
0.3270108 -0.94181186 0.077810474 
-0.6889291 -0.6270278 0.36361095 
-0.64638644 -0.17430232 0.7428347 
-0.9258344 -0.37467232 0.04951159 
-0.32589704 -0.19366671 -0.9253564 
0.14695013 -0.26617178 -0.95265853 
-0.27077338 0.6921562 -0.6690303 
0.2652354 0.39364323 -0.8801678 
0.13111483 -0.01942043 -0.991177 
-0.5409922 -0.38497004 -0.74774694 
0.26961464 -0.43515083 -0.8590412 
0.69110817 -0.0429829 -0.72147214 
-0.016267143 -0.31548685 -0.9487906 
0.40172103 0.2275539 -0.8870397 
-0.51551473 -0.25819966 -0.8170542 
0.14695513 -0.33695227 -0.9299825 
-0.038207866 -0.52471584 -0.85041964 
-0.63520235 0.19809663 -0.746509 
-0.668142 0.07640331 -0.7401005 
-0.31127575 -0.43381283 -0.84552574 
-0.4721039 -0.5593891 -0.6813236 
0.3842125 -0.1366186 -0.91308063 
0.2895577 -0.50373876 -0.8138818 
-0.25108448 0.29024497 -0.92342544 
-0.13516904 0.29232532 -0.94671816 
-0.35701674 -0.65440595 -0.6665523 
-0.32666242 -0.081783816 -0.94159603 
0.08660777 -0.48625845 -0.86951244 
-0.37331176 -0.8493119 -0.37323943 
-0.47789586 -0.5089352 -0.7159613 
-0.18305463 -0.032423586 -0.982568 
-0.22122787 -0.39095312 -0.89342827 
-0.35313097 0.24168491 -0.903818 
-0.40057245 -0.12106141 -0.9082323 
-0.634898 0.036256548 -0.7717448 
-0.23529491 -0.37694606 -0.8958504 
-0.34616494 -0.33814478 -0.875116 
-0.15002994 -0.42896995 -0.8907727 
-0.099865444 0.33786497 -0.9358815 
0.0008808464 -0.3150912 -0.9490611 
0.19366476 0.634541 -0.7482325 
0.7247813 0.20090649 -0.6590362 
0.34051546 -0.11103438 -0.93365985 
0.31668085 0.30755433 -0.8972869 
0.5211748 0.5107753 -0.6837292 
0.1132773 -0.31434172 -0.94252723 
0.030325854 -0.40484926 -0.9138804 
0.019515803 -0.853871 -0.5201188 
-0.7420213 -0.044613063 -0.6688902 
0.01873206 -0.04036072 -0.9990096 
-0.013266308 0.09342038 -0.9955384 
0.2832903 0.32997462 -0.90047956 
-0.0068312977 0.029639155 -0.99953735 
0.7029075 -0.11760226 -0.70149183 
0.62893033 -0.01319474 -0.7773498 
0.061498355 -0.45148554 -0.8901566 
0.10546748 -0.54080254 -0.83451146 
-0.3637298 0.04390799 -0.93046916 
-0.1329807 -0.4137334 -0.90063363 
-0.1015893 -0.7688277 -0.63133496 
-0.122947775 -0.9552735 -0.26895437 
0.29300293 -0.9279967 0.23015527 
0.6889548 -0.6482735 -0.32416487 
0.26758966 -0.96155626 -0.061687253 
-0.21774471 -0.90522254 -0.36491027 
-0.2851773 -0.842769 -0.4565241 
0.33120883 -0.35802522 -0.8729942 
0.40564775 -0.28083175 -0.86981815 
-0.060097944 -0.53927755 -0.839981 
-0.6865357 -0.49133947 -0.53596103 
-0.123424724 -0.952305 -0.27907264 
-0.279566 -0.6003069 -0.74931604 
-0.6689495 -0.53201205 -0.51910484 
-0.9680612 0.17115049 -0.18320778 
-0.4492095 0.087804966 -0.8891013 
-0.5828453 -0.24113043 -0.7759817 
-0.26662073 -0.23620866 -0.93440837 
-0.30557477 -0.4761466 -0.82456565 
-0.2719035 0.11085554 -0.95591825 
0.17283145 0.036971617 -0.9842573 
-0.16229239 -0.93137175 -0.32589564 
-0.2299654 -0.84281653 -0.48659652 
0.07210794 -0.8332967 -0.54810315 
0.27833474 -0.3537697 -0.89295954 
0.22611244 -0.4435225 -0.86727226 
0.37588668 -0.42893612 -0.8214152 
-0.5486029 0.25047275 -0.7976832 