# OOMMF: rectangular mesh v1.0
# Segment count: 1
# Begin: Segment
# Begin: Header
# Desc: Time (s) :  7.480000000000018e-07
# Title: m
# meshtype: rectangular
# meshunit: m
# xbase: 2e-09
# ybase: 2e-09
# zbase: 5e-10
# xstepsize: 4e-09
# ystepsize: 4e-09
# zstepsize: 1e-09
# xmin: 0
# ymin: 0
# zmin: 0
# xmax: 1.024e-06
# ymax: 1.024e-06
# zmax: 1e-09
# xnodes: 256
# ynodes: 256
# znodes: 1
# ValueRangeMinMag: 1e-08
# ValueRangeMaxMag: 1
# valueunit: 
# valuemultiplier: 1
# End: Header
# Begin: Data Text
-0.23921162 0.1868525 0.952819 
-0.71660036 -0.48667383 0.49963245 
-0.40579203 -0.90499586 -0.12773122 
-0.20866887 -0.6578182 -0.72369367 
-0.025887122 0.25593165 -0.96634823 
-0.45197442 0.3662587 -0.8133719 
0.41070837 0.24544857 -0.8781081 
0.8499464 -0.52675146 0.011140053 
-0.018894382 -0.6483445 -0.76111263 
-0.5090736 -0.53315496 -0.6757144 
0.45159 0.11300092 -0.88504094 
0.7469093 -0.04400257 -0.6634685 
0.46247247 0.0632465 -0.884375 
0.7640499 0.07141935 -0.64119196 
0.27900207 -0.94766104 -0.15523016 
0.46716496 -0.8821157 0.060240287 
0.5142919 -0.7808205 -0.3547156 
0.39857602 -0.3153963 -0.86119825 
0.22209008 -0.54282856 -0.8099464 
-0.57456785 -0.19494385 -0.7949017 
-0.2788275 -0.20088567 -0.9390954 
-0.18884927 -0.97795606 -0.08909524 
0.80712134 -0.50904334 -0.2990486 
0.39225212 -0.9180266 -0.058011897 
0.55411494 -0.7122779 -0.4308328 
-0.05814933 -0.8492855 -0.52472156 
-0.36673117 -0.26662737 -0.8913014 
-0.7849091 -0.33789727 -0.51936805 
-0.6050071 -0.18680876 -0.7739954 
-0.818822 0.06444061 -0.57041913 
-0.73295426 -0.24532439 -0.63450307 
0.16640697 -0.67558134 -0.7182608 
-0.44759238 -0.87151855 -0.2002909 
-0.68749326 -0.114078395 -0.7171744 
0.007646585 -0.2365671 -0.97158504 
0.6338073 0.010692008 -0.77341723 
-0.02779499 -0.53551126 -0.84407055 
0.13916785 -0.37965766 -0.91459954 
0.4245662 -0.5004263 -0.7545311 
0.613074 -0.13455339 -0.778483 
0.31853887 -0.14447936 -0.9368344 
0.54847777 -0.08509866 -0.8318236 
0.4732532 -0.80620855 0.35504845 
0.096984565 -0.91986746 -0.38004974 
-0.043018866 -0.8308887 -0.55477345 
-0.21121979 -0.17411318 -0.961806 
-0.553483 0.05210575 -0.831229 
-0.9596579 -0.089438446 -0.26656622 
-0.03025687 -0.38988602 -0.9203659 
0.4141783 -0.57000285 -0.7096148 
0.5540089 -0.7848079 -0.27776045 
0.41185492 -0.398026 -0.8197262 
0.2159466 -0.7280389 -0.6506354 
-0.30603698 -0.33537242 -0.890992 
0.9390491 -0.3330475 -0.08524128 
0.70555997 -0.70765543 0.03753529 
0.7034905 -0.61370593 -0.3584218 
0.6986362 -0.5919331 -0.4018991 
0.57755345 -0.67424107 0.46025103 
-0.17128262 -0.9062167 0.3865665 
0.6213582 -0.6982411 0.35549036 
0.13369201 -0.98707765 -0.08834116 
-0.27056724 -0.9373476 -0.2194834 
-0.11816619 -0.98167634 -0.14949387 
-0.15345272 -0.71527386 -0.68178856 
-0.6500643 -0.54810435 -0.52630615 
-0.45610678 -0.73159665 -0.50668836 
-0.46881986 -0.49679363 -0.73034513 
0.5340964 0.31925026 -0.7828285 
0.69683063 -0.055848386 -0.71505815 
0.48009923 -0.13253841 -0.8671438 
0.60029423 -0.60726786 -0.5204542 
0.35295692 -0.9236525 -0.14928989 
0.9271863 -0.37312722 -0.033193123 
0.3126554 -0.26714233 -0.9115271 
-0.11729688 -0.84979886 -0.5138905 
0.64189756 -0.74472576 -0.18262294 
0.74173 -0.6122468 0.27384427 
0.2025373 -0.9792737 0.0013787951 
-0.55692667 -0.65170103 0.5148965 
0.38421848 -0.91696334 -0.10749196 
-0.31466264 -0.879115 0.35797265 
0.21308523 -0.9213079 0.32524836 
-0.4208719 -0.6379488 -0.644894 
-0.8447591 -0.31484473 -0.43272966 
-0.56997013 -0.6167021 -0.54296654 
-0.23029982 -0.140891 -0.9628665 
-0.11894578 0.3813998 -0.91672575 
0.22789784 -0.3688904 -0.9011007 
0.83049065 -0.3192791 -0.4564495 
-0.47164306 -0.22908601 -0.85151184 
-0.18615174 -0.34343088 -0.9205448 
0.5984148 -0.22529198 -0.7688585 
0.28617463 -0.69152576 -0.66324675 
0.08493315 -0.8235379 -0.560867 
0.5952471 -0.7964335 -0.106651425 
0.91798395 0.020894371 -0.3960668 
0.10107843 -0.6863295 0.7202326 
-0.47387278 -0.8796798 0.04010049 
-0.7017975 -0.70021904 -0.13104811 
0.08370976 -0.33724362 -0.93768835 
0.04711605 -0.60030854 -0.7983795 
0.54938674 -0.35485172 -0.7564751 
0.3630967 -0.45280007 -0.81432974 
-0.030655101 -0.969706 -0.24234422 
-0.35499454 -0.47076935 -0.80768514 
-0.5603798 -0.1641026 -0.8118158 
0.40779048 0.12816608 -0.9040357 
0.11317193 -0.458858 -0.8812726 
-0.5536707 -0.019421507 -0.83250934 
-0.30810812 0.011595841 -0.9512808 
-0.4271097 -0.25770423 -0.8666983 
-0.13990015 -0.83167094 -0.53735614 
-0.2833352 -0.958957 -0.011067505 
-0.1463209 -0.57150036 -0.80745137 
0.02850971 -0.19163829 -0.98105145 
0.5377973 -0.6405291 -0.54817563 
0.57320046 -0.7779903 -0.2572398 
-0.028672863 -0.7981485 -0.6017782 
0.700213 -0.70479536 0.11386549 
-0.06543213 -0.6890651 -0.72173953 
-0.22495507 -0.63585186 -0.7383006 
-0.769427 -0.39266056 -0.5037856 
-0.5776971 -0.52339476 -0.6263578 
-0.55017537 -0.72778034 -0.40944216 
-0.014720207 0.97866225 -0.20494771 
-0.60481495 -0.053460456 -0.7945696 
0.33393598 0.7462883 -0.5757956 
0.6132774 -0.25448915 -0.7477475 
0.275468 -0.4676928 -0.83986956 
0.21632846 -0.4909206 -0.8439189 
0.31208616 -0.5141955 -0.7988775 
-0.0059657153 -0.7922401 -0.6101805 
0.4123803 -0.34049195 -0.84498984 
0.094421245 -0.7622901 -0.6403113 
0.38182887 -0.9200656 0.0876707 
-0.6934005 -0.65129006 0.30824846 
0.46664968 -0.58947694 0.65935963 
-0.22002162 -0.8889327 -0.40173268 
-0.56590956 -0.694847 -0.44377267 
-0.56262434 -0.13764569 -0.8151733 
0.26457796 -0.20025289 -0.9433437 
0.6831429 -0.66909945 -0.29261217 
0.02987243 -0.992434 -0.119089834 
0.40090597 -0.67965466 -0.6142834 
-0.26486242 -0.90216595 -0.34050632 
0.1549149 -0.27323142 -0.94939244 
0.54389226 -0.61076814 -0.57545084 
0.4434708 -0.8482956 -0.28935844 
0.25867906 -0.85588455 -0.4478245 
0.119503446 -0.72387666 -0.679501 
0.536888 -0.47737488 -0.6956037 
0.46647725 -0.8844849 -0.009248289 
0.10002902 -0.8990324 -0.42630386 
0.17068094 -0.1842675 -0.967943 
0.17594504 -0.53450793 -0.82664657 
-0.13752398 -0.011271428 -0.99043435 
0.16231252 -0.7666577 -0.62120104 
0.53001356 -0.79900277 -0.28404278 
0.36187124 -0.8592079 -0.3616781 
0.5542838 -0.7826473 -0.28325373 
0.04010478 -0.47473717 -0.87921345 
0.3947127 -0.8769369 -0.27419624 
0.32486108 -0.77325416 -0.544558 
-0.45383304 -0.47359568 -0.754813 
-0.10035309 -0.3590846 -0.9278942 
0.09780562 0.0723397 -0.9925729 
-0.5298034 0.13330498 -0.83757883 
-0.4449868 -0.27752304 -0.8514504 
-0.1733391 -0.18223001 -0.9678563 
0.4372514 -0.8597642 -0.2638499 
0.2202586 -0.45160004 -0.864606 
-0.7011789 -0.5135476 -0.49458778 
-0.45116434 -0.59478015 -0.6653476 
-0.7262316 0.37708828 -0.5747975 
-0.81637263 0.21386583 -0.5364673 
-0.30620193 0.105074175 -0.94615006 
-0.17771433 -0.34550613 -0.92143536 
0.16870244 -0.98233503 0.08097789 
-0.19072616 -0.9800575 0.055776276 
0.37937647 -0.37773004 -0.8446262 
0.03411759 -0.62450606 -0.78027445 
0.617016 -0.5646407 -0.5481534 
-0.44988447 -0.79563934 -0.40566257 
-0.7596502 -0.25782296 -0.59704185 
-0.3017635 -0.4786991 -0.82449144 
-0.767616 -0.3988728 -0.5016637 
-0.8611919 -0.5040553 -0.065396555 
-0.5815312 -0.8037693 0.1256037 
0.124227256 -0.9381183 -0.32326707 
-0.5348705 -0.65466446 -0.5341611 
-0.32511103 -0.93102294 -0.16582839 
-0.02831938 -0.37135035 -0.9280608 
0.33956182 0.11361957 -0.93369615 
-0.04232086 -0.029384043 -0.9986719 
-0.33840752 -0.74309874 -0.5773081 
0.37379152 0.15195812 -0.9149801 
0.33659506 -0.863879 -0.37472224 
-0.24605906 -0.66873103 -0.701608 
-0.28758746 -0.03304889 -0.9571841 
-0.5997548 -0.21147779 -0.7717327 
0.23687403 0.091085024 -0.96726125 
0.6577615 0.18424705 -0.73034436 
0.90986735 0.039743215 -0.4129915 
0.74770105 -0.28866035 -0.59801203 
0.39539906 -0.23676525 -0.88746935 
0.5870767 -0.48039827 -0.6515815 
0.015901038 -0.5497929 -0.83514965 
0.084954396 -0.727482 -0.68084705 
0.711689 -0.5553363 -0.430233 
0.69627273 -0.37793064 -0.61022365 
-0.12819791 -0.5365838 -0.8340524 
0.6784781 -0.6902588 -0.25141662 
-0.49248433 -0.8275932 -0.26934865 
-0.31663683 -0.20681971 -0.925725 
0.031788155 -0.12571831 -0.9915566 
0.5678744 -0.149306 -0.8094606 
-0.4742565 0.5530424 -0.685 
-0.32141688 0.22157381 -0.92065 
-0.1349906 0.779541 -0.61163175 
-0.29122448 -0.28281307 -0.91389555 
0.097298436 -0.67891234 -0.7277439 
-0.16944562 -0.47026175 -0.8661074 
-0.28840765 -0.68767154 -0.6662799 
0.8460974 -0.027984526 -0.53229326 
-0.2578776 -0.43218124 -0.8641289 
0.096226014 -0.51177984 -0.8537107 
0.78436124 -0.3751335 -0.49401656 
0.22457124 -0.85328823 0.4706027 
-0.21229464 0.0869554 -0.97332925 
0.063940376 -0.35809448 -0.9314934 
0.42976367 -0.2404109 -0.87034804 
0.3610537 -0.2996719 -0.8830839 
0.44887 -0.5463431 -0.70712453 
0.023790482 -0.8445259 -0.5349862 
0.10547767 -0.6808806 -0.7247594 
-0.39441255 -0.08270065 -0.91520464 
-0.20316964 0.31217432 -0.9280459 
0.26763153 0.12252962 -0.95569867 
0.25679526 0.21080299 -0.9431959 
0.91634977 -0.11980141 -0.38203517 
0.744026 0.23495269 -0.6254779 
0.95281273 -0.12170549 -0.2780931 
0.98594934 -0.058729872 0.15637994 
0.9637634 0.03451755 -0.26451603 
0.5556094 -0.8272653 -0.08324822 
-0.17343311 -0.96966094 -0.172275 
-0.34960896 -0.9364139 -0.030043466 
-0.12596938 -0.7566286 -0.64159554 
0.2946741 -0.64272916 -0.7071538 
0.30657727 -0.7500089 -0.5860863 
-0.123685434 -0.8993855 -0.4192943 
0.48197448 -0.089346945 -0.871618 
0.4942485 0.59740275 -0.6315286 
0.80573916 -0.08845622 -0.58562785 
0.9617484 0.2697379 -0.0477645 
-0.9954408 0.0875437 -0.037864067 
-0.58318937 -0.5650463 -0.5836205 
0.07786338 -0.87263644 -0.4821234 
0.11929644 -0.7343601 -0.66819435 
0.02261677 -0.29014528 -0.9567154 
0.08008361 -0.3294217 -0.9407806 
-0.16880079 -0.6053353 -0.77786607 
0.43633926 -0.6957843 -0.5705194 
0.13416348 -0.30881926 -0.9416108 
0.1632018 0.22113512 -0.96149075 
0.065467045 0.21218443 -0.97503436 
-0.47118267 -0.3472341 -0.81081164 
0.043908227 -0.14658904 -0.98822254 
0.028100649 -0.0011618627 -0.9996044 
-0.074095 0.31175494 -0.9472692 
0.1215329 -0.28996366 -0.9492896 
-0.009368327 -0.6857354 -0.7277907 
-0.07663487 -0.5540357 -0.8289581 
-0.036965787 -0.387133 -0.9212826 
-0.7408866 -0.15617976 -0.6532189 
-0.41044793 0.31633648 -0.85525656 
-0.68195355 -0.5763171 -0.45033112 
0.5163976 -0.5020578 -0.6937373 
0.24990155 -0.78800994 -0.562663 
0.13199708 -0.786294 -0.60358816 
0.37075686 -0.7097474 -0.59899753 
-0.81674653 -0.123454064 -0.56363493 
-0.36891192 -0.55044574 -0.7489416 
-0.38971362 -0.26203522 -0.88287085 
-0.3942643 0.44009328 -0.80676746 
-0.41836965 0.57533747 -0.70281845 
-0.18902542 -0.15785417 -0.96920145 
-0.32121408 -0.8358967 -0.44508246 
-0.4606459 0.043220315 -0.8865311 
-0.32531187 0.058131557 -0.94381833 
-0.2580916 0.04292486 -0.96516645 
-0.2619313 0.271437 -0.9261285 
-0.15547869 0.16520467 -0.9739271 
0.09132656 -0.19344246 -0.9768519 
0.524064 -0.07112099 -0.8487042 
-0.050065354 0.73286974 -0.67852455 
0.48843828 -0.66453403 -0.5655287 
0.23390938 -0.8399862 -0.48960143 
-0.015936175 -0.97616416 -0.21644773 
-0.14283317 -0.66465133 -0.73337394 
-0.20271403 -0.27864134 -0.9387578 
-0.16600212 -0.66080374 -0.73197114 
-0.3212846 -0.36820412 -0.8724689 
0.25281623 -0.5915035 -0.765642 
0.37014064 -0.54449606 -0.7526753 
0.13159144 0.11091275 -0.9850797 
-0.08045669 -0.45444062 -0.8871361 
0.01858943 -0.7116985 -0.7022391 
0.31745082 -0.35454738 -0.87950057 
0.8027922 -0.201188 -0.5612916 
0.50431263 -0.77790266 -0.3748815 
0.365256 -0.8853399 -0.2876824 
0.12911986 -0.7394909 -0.66066736 
0.67263216 -0.48078236 -0.5625073 
-0.24029884 -0.9654722 -0.10059859 
0.515847 -0.8499051 -0.1075323 
-0.5556176 -0.53264505 -0.63841873 
0.28548056 -0.73504466 -0.6149881 
-0.2439239 -0.5387486 -0.8063814 
-0.44571334 -0.8830858 -0.14662592 
0.26529184 -0.9236641 -0.27652305 
-0.09963865 -0.71446174 -0.69254357 
0.2844823 -0.6872605 -0.66838825 
0.054181896 0.053700406 -0.9970861 
0.36304253 -0.04705789 -0.93058354 
0.64455116 -0.3408192 -0.6843947 
0.5471623 -0.41995522 -0.7240519 
0.7529841 -0.65594393 -0.05246433 
0.75906324 -0.65088916 -0.012899811 
0.72018325 -0.19090182 -0.6670028 
0.23699564 -0.43252042 -0.86991906 
0.7997943 -0.36558023 -0.47610933 
0.7263781 -0.5864543 -0.35839412 
0.33357614 -0.93107766 0.14772047 
-0.4303555 -0.87237036 -0.23187074 
-0.23373032 -0.9042783 -0.35728288 
-0.39363933 -0.90836906 0.14111674 
0.028799597 -0.98604435 -0.1639733 
-0.7986822 -0.5981869 0.065416165 
-0.74616325 -0.17748453 -0.6416695 
-0.49701568 0.28908736 -0.8181711 
-0.9105081 -0.25263545 -0.32733837 
-0.69707143 -0.37186772 -0.6130301 
-0.38193148 0.20976813 -0.9000699 
0.015623716 -0.26893386 -0.963032 
0.30935112 -0.5760192 -0.7566398 
0.27496105 -0.46866634 -0.839493 
0.15758875 -0.3527505 -0.9223519 
0.20977089 -0.19786048 -0.95752156 
0.26816022 -0.29583815 -0.91682607 
0.6355588 -0.51330674 -0.5766987 
0.7112013 -0.6961362 0.097914375 
0.07704869 -0.9954314 0.05639069 
-0.9369114 -0.29658556 -0.1850249 
-0.72725624 0.24890977 -0.6396424 
-0.42477334 -0.09993356 -0.8997672 
0.12849768 0.46153077 -0.8777687 
0.0040468117 -0.44048613 -0.8977504 
-0.10510247 -0.29908776 -0.9484198 
-0.10987272 0.26105797 -0.95904994 
-0.16623001 0.53786665 -0.82647884 
-0.87125385 0.045911126 -0.4886807 
-0.46817628 -0.28279543 -0.8371605 
-0.25151438 -0.34396768 -0.90466946 
0.09910712 0.14963129 -0.9837623 
0.009936458 -0.2681872 -0.9633156 
-0.15897243 -0.05132657 -0.985948 
-0.06601379 -0.33659115 -0.9393342 
-0.24747801 -0.8360555 -0.48965895 
-0.22564453 -0.9229198 -0.31193548 
-0.48025542 -0.2442222 -0.84244317 
-0.65487945 -0.13413762 -0.7437339 
0.5638224 -0.47370756 -0.6765394 
0.20616521 -0.48767236 -0.8483346 
0.52090484 -0.76526207 -0.37819597 
0.08003917 -0.99082595 -0.108893774 
-0.31324196 -0.6962685 -0.6458249 
-0.009387367 -0.7038179 -0.71031845 
-0.27514446 -0.2592005 -0.92580277 
-0.10940789 -0.7359146 -0.66817635 
0.52893275 -0.015751263 -0.84851766 
0.46982133 0.15159601 -0.8696474 
-0.58011717 -0.10915758 -0.80718565 
0.30073228 -0.18029664 -0.93651116 
-0.30921996 -0.3862941 -0.8689994 
-0.59690005 0.30140787 -0.7435481 
-0.49208325 -0.2442647 -0.8355769 
-0.42889595 -0.4244459 -0.7974297 
-0.057579484 -0.32844272 -0.9427672 
-0.29320133 -0.5976224 -0.7462443 
0.1752142 -0.94201404 -0.28619847 
-0.32070145 -0.8705774 -0.37315628 
0.6947787 -0.70515394 0.14156476 
-0.95057976 -0.012714515 -0.31022024 
-0.9871066 -0.103166305 -0.12238165 
-0.40477222 -0.3186542 -0.8570992 
-0.31477255 0.024117664 -0.94886065 
0.30430526 -0.17843159 -0.9357139 
0.74532187 -0.60901475 -0.27128664 
0.09112063 -0.12650791 -0.9877717 
-0.799595 -0.046976577 -0.5986995 
0.3821583 -0.07400712 -0.92112863 
0.40372804 -0.64785796 -0.64597505 
0.17766832 -0.6177807 -0.7660163 
0.5407949 -0.11825742 -0.8328002 
0.44024312 -0.47815782 -0.75996786 
0.13449882 -0.9807937 -0.14125814 
-0.18370193 -0.9828741 -0.014568739 
-0.058629 -0.46421665 -0.8837792 
-0.21804754 -0.8072654 -0.54843223 
0.27903143 -0.5883318 -0.7589514 
0.5711084 -0.35812968 -0.73863274 
-0.14358497 -0.049742788 -0.98838717 
-0.28040913 -0.6653102 -0.6919055 
-0.21693172 -0.5873359 -0.77972895 
0.033625774 -0.57240963 -0.81927806 
-0.5818255 -0.4726674 -0.6618646 
0.1228098 -0.93836486 -0.32309318 
0.3139075 -0.6858789 -0.6565305 
0.0391649 -0.48926324 -0.8712564 
-0.71451783 -0.09443933 -0.6932139 
-0.02072454 0.19002232 -0.981561 
-0.88389075 0.38780737 -0.2614241 
-0.9752598 -0.13844126 -0.17234403 
-0.37886497 0.038327318 -0.924658 
0.42671567 -0.15451726 -0.89108825 
0.75462395 -0.43247887 -0.49346188 
0.48253515 -0.82817334 -0.28511202 
-0.59320736 0.20303746 -0.7790256 
-0.7543725 -0.027950898 -0.6558514 
-0.21905969 0.62506044 -0.74920785 
-0.747454 0.28825653 -0.5985155 
-0.36332825 0.16890185 -0.91622317 
-0.31678405 -0.9360385 -0.15323098 
-0.09531602 -0.97324145 -0.20908393 
-0.45073912 -0.8125894 -0.3695035 
-0.30824104 -0.9444547 -0.1139858 
0.41119713 -0.88786846 0.20641406 
0.27811462 -0.94905037 -0.14817487 
-0.8626273 -0.14282909 -0.4852566 
-0.25081357 -0.6529517 -0.7146655 
-0.52991027 -0.798195 -0.2864959 
-0.67948043 -0.7305962 -0.067347504 
-0.84721345 -0.50137246 -0.17565586 
0.3202867 -0.26214653 -0.91032726 
0.58704215 -0.31833524 -0.7443415 
0.40861115 -0.7364505 -0.5391453 
0.39511088 -0.56542027 -0.72400784 
0.46955547 0.024373986 -0.88256645 
0.07735741 0.09037203 -0.99289924 
-0.05800987 -0.18632533 -0.9807741 
0.058786917 -0.33620778 -0.9399513 
0.27932948 -0.39960366 -0.8730933 
-0.27824634 -0.38095704 -0.8817317 
0.0076221693 0.5968884 -0.8022881 
-0.31510228 0.048083857 -0.9478389 
-0.26166287 -0.015964184 -0.96502733 
0.6849623 0.31167004 -0.6585503 
0.85043573 -0.09115375 -0.5181216 
0.17353639 -0.23900278 -0.9553863 
0.331267 -0.09665369 -0.9385735 
0.19255236 -0.4605453 -0.86649966 
0.3973862 -0.59612393 -0.6976536 
0.57764167 -0.76687664 -0.27969706 
0.41218087 -0.38141507 -0.8274234 
0.62900126 -0.77588177 0.048631057 
0.26492608 -0.96355975 0.036970392 
0.79985535 -0.5360097 0.27004611 
-0.47486383 -0.79525155 -0.37693438 
-0.028573545 -0.41666615 -0.9086105 
-0.5291421 0.27565533 -0.8025104 
0.2412964 0.21964075 -0.94526935 
-0.4033987 -0.12969577 -0.90578616 
-0.5331723 0.15922259 -0.8308884 
0.07267165 0.33361915 -0.9399027 
0.28053942 0.8209465 -0.4973375 
-0.26865777 -0.51712275 -0.8126544 
0.35702893 -0.4219354 -0.8333672 
0.71376115 0.22951996 -0.66171426 
0.31023386 0.11471016 -0.94371426 
0.31264016 0.40667695 -0.8584114 
0.8535306 0.47433183 -0.21562658 
0.48615974 -0.60243803 -0.6330222 
0.42275277 -0.6314802 -0.65000993 
0.4815987 -0.4747773 -0.73664737 
0.40254462 -0.82028466 -0.40631402 
0.5114179 -0.347247 -0.7860479 
0.7438697 -0.18520744 -0.64214957 
0.33772728 0.0069785845 -0.9412182 
0.088372335 -0.43154004 -0.89775467 
-0.4324585 -0.15624416 -0.8880132 
-0.24133064 -0.31191346 -0.91895026 
-0.93321717 -0.021442192 -0.35867274 
0.04311085 -0.18269667 -0.98222375 
-0.12179643 -0.43536407 -0.8919775 
0.6937878 -0.24419443 -0.67751575 
0.51803064 -0.008660857 -0.85531825 
0.13102403 -0.31050706 -0.94149774 
0.3184119 -0.060484357 -0.94602096 
0.7819582 -0.3553928 -0.51209116 
0.8045458 -0.1926834 -0.56176436 
0.41320792 -0.85099185 -0.32414842 
0.45992485 -0.83675605 0.29716772 
-0.5361708 -0.82673275 -0.17039335 
0.16370508 -0.5307337 -0.8315783 
0.13207594 -0.5283016 -0.8387213 
0.23114783 -0.8581692 -0.45838436 
0.4548359 -0.62706804 -0.63238436 
0.85271966 -0.48154315 -0.20244826 
0.90829355 -0.25181606 0.33405322 
0.9368304 0.34689152 0.044890862 
-0.89364326 0.18384916 -0.4093913 
-0.7082607 -0.423932 -0.5644896 
0.006350157 -0.7398475 -0.6727447 
0.19133453 -0.15165763 -0.9697377 
0.49285668 -0.10360662 -0.8639201 
0.5097671 -0.66619694 -0.544352 
-0.095958576 -0.82417345 -0.55814886 
0.34789285 -0.93729573 -0.021151284 
-0.11155721 -0.63998324 -0.7602476 
-0.09536057 -0.63360816 -0.76775455 
-0.112128645 -0.7763367 -0.62026495 
-0.32405955 -0.5004594 -0.8028236 
-0.01201154 -0.19221641 -0.9812791 
0.5818297 0.008761769 -0.81326354 
0.5847747 -0.4681738 -0.66245896 
0.07917321 -0.34589756 -0.93492603 
0.12559803 -0.28751022 -0.94950676 
-0.05748137 -0.13186763 -0.9895994 
0.01622102 0.0035316611 -0.9998622 
-0.20019473 -0.5860004 -0.78519154 
-0.22448094 -0.19202068 -0.95537245 
-0.24828477 -0.18278737 -0.9512852 
0.35030502 -0.11205875 -0.9299082 
0.026408557 -0.6411109 -0.7669938 
0.19316229 -0.6564331 -0.72923523 
0.08825615 -0.8575555 -0.50676364 
-0.90688765 -0.13483354 -0.39921778 
-0.7559691 -0.14157008 -0.6391156 
-0.65871006 -0.45963633 -0.5956807 
0.36976683 0.33393887 -0.8670395 
0.13384202 0.387581 -0.91206765 
0.26601368 -0.30020824 -0.9160305 
-0.09514202 -0.17114265 -0.9806417 
-0.052699264 -0.76943535 -0.6365471 
-0.17404443 0.3672558 -0.91369134 
-0.35178024 0.10612787 -0.93004715 
-0.034696 0.40893444 -0.91190404 
0.00086231966 0.8201613 -0.57213175 
0.089707084 -0.0853361 -0.9923057 
0.15947185 -0.3912945 -0.9063428 
0.46073765 0.5108051 -0.7258093 
0.32665506 -0.5974737 -0.73233986 
0.24279614 -0.9592253 -0.14469615 
-0.6098711 -0.7357055 -0.2946096 
-0.6976446 -0.5771492 -0.424489 
-0.82029015 -0.31882632 -0.474841 
0.004108999 -0.6373709 -0.7705463 
0.292046 -0.8448295 -0.4482996 
0.44209033 -0.8062671 -0.39305142 
0.013923904 -0.5939454 -0.8043848 
0.14828655 0.09950067 -0.98392624 
0.61955285 -0.48911855 -0.61393595 
-0.092554845 -0.3697544 -0.9245082 
0.17531516 -0.17134887 -0.9694866 
0.6111222 -0.09386943 -0.78595054 
0.03890608 -0.8170991 -0.57518303 
-0.035993297 -0.55885166 -0.8284862 
0.58871984 -0.37967813 -0.71361995 
-0.15301178 -0.5302599 -0.83391356 
-0.24817492 -0.8481216 -0.46808016 
0.3241709 -0.9125272 0.2494143 
-0.47510222 -0.68226266 -0.55569386 
-0.17480376 -0.6790906 -0.7129374 
0.05582841 -0.69583905 -0.71602464 
-0.8403454 -0.14558885 -0.5221335 
-0.71431 -0.37989825 -0.58774024 
-0.39676735 -0.082662314 -0.91418964 
-0.31393707 -0.07997682 -0.9460694 
0.24421886 0.1808588 -0.9527052 
0.20123523 -0.45566875 -0.86710465 
0.113558345 -0.15439911 -0.9814609 
0.105593055 -0.994282 0.015918804 
-0.09562958 -0.85558665 0.50874996 
-0.33871895 -0.9041308 0.2604169 
-0.37075368 -0.3677252 -0.8528305 
-0.14501444 -0.35065418 -0.92520946 
0.4271255 -0.0829823 -0.9003765 
0.30020276 -0.8940624 -0.33246163 
0.08956245 -0.75832665 -0.6456929 
-0.29940268 -0.4504538 -0.8411001 
0.12331595 -0.72902864 -0.6732834 
0.020549057 -0.823605 -0.5667916 
0.14492814 -0.23227262 -0.96179277 
0.16705316 -0.06906937 -0.98352563 
0.13666214 -0.28126565 -0.94984907 
-0.37584388 -0.67482936 -0.63509595 
-0.3199751 -0.6869191 -0.6525015 
-0.2530738 -0.37668234 -0.89110273 
-0.21171477 -0.25024214 -0.94475174 
0.19356203 0.22680204 -0.95451283 
0.52237004 -0.40153694 -0.75226176 
0.3444597 -0.48419273 -0.804304 
0.21339744 -0.53320885 -0.8186268 
0.3474366 -0.58507115 -0.7327889 
0.5268175 -0.11874892 -0.84164244 
0.47524562 -0.653296 -0.58936065 
0.55876577 -0.76426476 -0.32199422 
-0.015460716 -0.75270146 -0.6581806 
-0.6746489 -0.733337 -0.08405904 
0.1182094 -0.9193195 -0.37533733 
-0.10711864 -0.36116615 -0.9263286 
0.5101865 -0.53522015 -0.6732379 
0.5011279 -0.76001567 0.41382 
-0.45702225 -0.02931902 -0.88897204 
-0.8323992 -0.2808931 -0.4777142 
-0.50576824 0.07558431 -0.8593519 
-0.040790636 -0.21478096 -0.97581005 
0.68100184 -0.2825018 -0.6755955 
0.5154658 -0.20962085 -0.8308756 
-0.29860237 -0.50309336 -0.8110079 
0.48213628 -0.3983141 -0.7803143 
-0.24173117 -0.6266916 -0.74082637 
0.47533345 -0.4346527 -0.7649413 
-0.3508513 -0.32725817 -0.87738556 
0.3468041 0.26553345 -0.899566 
-0.14548598 -0.25558782 -0.95577645 
-0.37566605 0.3363863 -0.86355036 
-0.5146721 -0.5613021 -0.6481147 
0.08759054 -0.12974516 -0.9876711 
0.111209385 -0.29942384 -0.947617 
0.12001157 -0.85726863 -0.5006874 
-0.50928074 -0.5026216 -0.6985733 
0.27014127 -0.50079215 -0.8223327 
-0.10502774 -0.48959023 -0.86560416 
0.23676006 -0.4803459 -0.8445191 
0.7027668 -0.16984744 -0.69084793 
0.332657 0.36773708 -0.8683944 
-0.11882262 0.5226568 -0.84422225 
0.14363451 0.21698806 -0.96554923 
-0.047340155 -0.48175302 -0.8750275 
-0.16579828 0.19874294 -0.9659256 
0.08524416 0.7378378 -0.66957366 
-0.35342205 -0.09118794 -0.931009 
-0.6039111 -0.79506654 -0.05621957 
-0.6506433 -0.37745172 -0.6589337 
-0.4146823 -0.6688478 -0.6169937 
-0.63725936 -0.69243056 -0.33829063 
-0.2522321 -0.9598048 0.123100765 
-0.8390319 -0.15986998 -0.52006465 
-0.52873695 0.37073585 -0.76353925 
-0.8979829 0.07645522 -0.43333748 
-0.7421128 0.15559086 -0.6519664 
-0.18278134 0.21346785 -0.95969915 
-0.89033294 -0.07095117 -0.44974792 
-0.01205869 0.30536684 -0.9521585 
-0.33931208 0.3566657 -0.8704349 
0.52026737 -0.49244246 -0.69772655 
-0.061758924 -0.87799144 -0.47467574 
0.06460343 -0.15557876 -0.9857088 
0.26922774 -0.10396586 -0.95744854 
-0.135857 -0.43888262 -0.8882145 
0.48775005 -0.3454376 -0.80173117 
-0.032539714 -0.6706419 -0.74106723 
-0.17889093 -0.1167148 -0.9769216 
-0.18006758 -0.0374832 -0.9829399 
-0.051256303 -0.52797693 -0.8477106 
0.61145306 -0.387355 -0.6899864 
0.12470847 -0.42596337 -0.89610434 
-0.24487032 0.16215344 -0.9559 
-0.31697628 0.20689231 -0.9255926 
0.11229055 -0.7569944 -0.6437005 
0.049025603 -0.5764685 -0.8156474 
0.63374186 -0.59665054 -0.49232057 
0.25138363 -0.38912868 -0.8862196 
0.5334129 -0.4299833 -0.72841275 
-0.75869495 -0.21409549 -0.6152602 
-0.24254312 -0.52831185 -0.81367034 
-0.71114916 0.10848975 -0.69462 
-0.46981093 0.09163248 -0.87799835 
-0.03498406 -0.9786373 -0.20259605 
0.96244496 -0.1854602 0.19825304 
0.30135003 -0.6885048 -0.65965855 
0.74546015 0.11359946 -0.6567986 
0.0018918306 -0.1485297 -0.9889062 
-0.13060465 -0.13602617 -0.9820587 
-0.44290143 0.5407221 -0.7151629 
-0.7057608 0.12481665 -0.6973684 
-0.34288225 0.47165534 -0.8123873 
0.12371088 0.23185119 -0.96485263 
0.47890422 -0.48675388 -0.7305624 
0.56936616 -0.72469676 -0.3881198 
0.62959945 -0.37476462 -0.68055564 
0.21330653 -0.7854295 -0.58103436 
-0.39304158 -0.5607821 -0.7287262 
-0.5546625 -0.4392649 -0.70667946 
0.35467607 -0.6294538 -0.69137037 
-0.30505154 -0.8695937 -0.38826612 
-0.59479934 -0.41189057 -0.6903332 
-0.2453894 0.0010175743 -0.96942407 
-0.06040368 0.15529853 -0.9860192 
0.15606982 0.50105387 -0.851227 
0.12842876 0.19659822 -0.9720366 
0.49578544 0.25387302 -0.8305091 
0.5948406 -0.22655801 -0.7712563 
0.6722601 -0.082516745 -0.73570204 
0.80002064 0.17179719 -0.5748502 
0.81978095 0.3476618 -0.45507208 
0.39383674 0.5200916 -0.75789016 
0.35779172 -0.24777988 -0.9003279 
-0.4519111 0.07043045 -0.88927835 
-0.7858635 0.1433888 -0.6015465 
-0.7563733 0.2371411 -0.60964215 
-0.117510766 0.33984515 -0.93311125 
0.28150976 0.28228766 -0.91709656 
0.1368352 -0.4801559 -0.86644477 
-0.3194777 -0.44951743 -0.83418715 
0.050890826 -0.30940524 -0.94956756 
0.07754594 -0.7183326 -0.6913646 
0.16871245 -0.6373984 -0.7518373 
-0.19602655 -0.689288 -0.69746375 
0.30213803 -0.41438264 -0.8584869 
-0.055619657 -0.4526288 -0.88996273 
0.35747412 -0.8776024 -0.31941572 
0.24523883 -0.45068088 -0.8583384 
0.2027183 -0.44495603 -0.872307 
-0.49309564 -0.012719741 -0.8698821 
-0.1370596 -0.17562523 -0.9748695 
0.11080619 0.4774177 -0.8716619 
-0.1920626 0.37574732 -0.90660137 
-0.2367019 -0.091857746 -0.96723026 
0.36565292 -0.24898182 -0.89683115 
0.13747327 -0.56117713 -0.8161993 
0.48579812 -0.43394268 -0.75874496 
0.8265371 0.15640879 -0.54071504 
0.8442938 -0.05335246 -0.5332182 
0.89647937 -0.3849233 -0.21945119 
0.9347002 -0.24297084 -0.25942397 
0.7023412 -0.32178417 -0.63495815 
0.28745064 -0.8586453 -0.42438233 
0.040265772 -0.4084214 -0.911905 
0.36974084 -0.07973226 -0.92570764 
0.7057401 -0.52008474 -0.48108506 
0.6139206 -0.77557385 -0.1469241 
0.315665 -0.3985819 -0.8610971 
-0.58658266 -0.39605004 -0.70644546 
-0.54360586 0.47919017 -0.68910784 
0.23145208 0.72188455 -0.6521599 
-0.056066997 0.4368771 -0.8977722 
0.6861996 0.19645017 -0.7003838 
0.2491566 -0.07791896 -0.96532357 
0.29281464 -0.07041018 -0.9535733 
0.5761653 -0.20847929 -0.79029745 
-0.87399364 -0.4110098 -0.25924164 
-0.15241767 -0.6094059 -0.7780704 
0.4954875 -0.7617825 -0.41734836 
0.6665289 -0.57837516 -0.47034186 
0.36277157 -0.81281453 -0.45577332 
0.024001746 -0.7928163 -0.6089881 
0.15954933 -0.92809504 -0.33642763 
-0.07816911 -0.9501194 -0.3019319 
-0.2074897 -0.5965823 -0.7752661 
0.07558308 -0.57067364 -0.8176912 
-0.032517776 -0.5025533 -0.86393446 
0.35464585 -0.6646508 -0.65762126 
0.7631567 0.59866834 0.24328637 
0.84837127 0.521004 -0.0939206 
-0.23045443 -0.71388847 -0.6612519 
-0.057770185 -0.64494586 -0.7620417 
0.30282655 -0.5911355 -0.747566 
0.7149161 -0.5402841 -0.44383338 
0.5812128 -0.5448301 -0.6044435 
0.16468686 -0.77846473 -0.6056988 
0.31048122 -0.4938157 -0.8122484 
0.5676577 -0.61893064 -0.5428533 
0.5890485 -0.18194932 -0.7873477 
-0.21422042 -0.21115054 -0.95369035 
-0.25096658 -0.38374126 -0.88868356 
-0.16151974 0.3945532 -0.90456575 
0.22866783 0.24973437 -0.9409271 
0.7810005 -0.10916033 -0.61491656 
0.4464291 0.17560676 -0.8774185 
-0.08543766 0.049527787 -0.99511176 
0.07980226 -0.48824385 -0.86905104 
-0.14464444 -0.013399351 -0.989393 
-0.6065472 -0.06950098 -0.7920039 
-0.7574131 -0.559862 -0.33597597 
-0.6282751 -0.5228517 -0.5761047 
0.29060122 -0.43222013 -0.8536608 
-0.6009999 0.055728655 -0.79730386 
-0.45474935 -0.34678328 -0.8203319 
-0.2912901 -0.48075587 -0.8270573 
0.007951412 -0.38985613 -0.9208415 
0.25258327 -0.4053051 -0.8785952 
0.45854142 -0.41704902 -0.78473556 
-0.39873326 -0.053216193 -0.91552174 
-0.46624547 0.03279429 -0.88404745 
0.12589565 -0.05061398 -0.9907515 
-0.078199856 -0.14922695 -0.9857059 
-0.38614714 -0.7191291 -0.5777056 
-0.06409938 -0.5332199 -0.84354484 
0.27339622 -0.06785467 -0.95950526 
0.45963517 0.33781263 -0.82135147 
0.36031917 0.59181535 -0.721058 
0.85989475 0.46363097 -0.21360557 
0.49453002 0.29966837 -0.815867 
0.6435048 0.053145036 -0.7635949 
0.2831351 0.42110783 -0.861686 
0.40506202 -0.13970397 -0.90355283 
0.31939542 -0.02234433 -0.94735813 
-0.53277034 -0.011848549 -0.846177 
-0.45489386 0.28581282 -0.84343505 
0.1667323 -0.36456516 -0.9161291 
-0.046731852 -0.58672196 -0.8084389 
0.76831335 -0.5269371 -0.36336213 
-0.6250645 -0.41866815 -0.6587954 
-0.22709583 -0.2739572 -0.9345454 
0.25195575 -0.61730397 -0.74528795 
0.4378866 -0.45299974 -0.77656066 
0.86928314 -0.39530239 -0.2967876 
0.8644283 -0.10059208 -0.49259013 
0.6597254 -0.39348793 -0.6402576 
0.068911 -0.6521091 -0.7549869 
-0.14426622 -0.48274294 -0.8637977 
0.15532044 -0.38763368 -0.908634 
-0.17373468 0.053007856 -0.98336494 
-0.32279307 0.48730904 -0.8113782 
-0.14309515 -0.7342262 -0.6636533 
-0.29175982 -0.9208042 0.25883576 
-0.24430698 -0.66961426 -0.7013778 
-0.55793726 -0.74285525 -0.36996233 
0.21449827 -0.7466571 -0.6296775 
0.050737664 -0.866134 -0.4972299 
0.44263682 -0.39151418 -0.80671513 
0.37940532 -0.6682745 -0.6398913 
0.268709 0.2649882 -0.92605436 
0.29939047 -0.3927154 -0.86956316 
0.5734365 0.12794091 -0.80919814 
0.11177875 -0.3457654 -0.9316394 