# OOMMF: rectangular mesh v1.0
# Segment count: 1
# Begin: Segment
# Begin: Header
# Desc: Time (s) :  7.510000000000018e-07
# Title: m
# meshtype: rectangular
# meshunit: m
# xbase: 2e-09
# ybase: 2e-09
# zbase: 5e-10
# xstepsize: 4e-09
# ystepsize: 4e-09
# zstepsize: 1e-09
# xmin: 0
# ymin: 0
# zmin: 0
# xmax: 1.024e-06
# ymax: 1.024e-06
# zmax: 1e-09
# xnodes: 256
# ynodes: 256
# znodes: 1
# ValueRangeMinMag: 1e-08
# ValueRangeMaxMag: 1
# valueunit: 
# valuemultiplier: 1
# End: Header
# Begin: Data Text
-0.6156683 -0.7143098 -0.33273742 
-0.6586507 -0.7276352 0.19164121 
0.21226098 -0.58587515 -0.78210974 
-0.07550005 -0.44755074 -0.89106566 
0.11981448 -0.50703996 -0.8535543 
-0.18632565 -0.24726702 -0.9508637 
0.007155148 -0.59817576 -0.8013331 
-0.49055788 0.021235546 -0.8711499 
0.5453589 -0.46481633 -0.6975167 
0.2659431 -0.034380388 -0.96337545 
-0.008347764 -0.6300004 -0.77654994 
-0.4922654 0.09899257 -0.86479783 
-0.286337 0.47769383 -0.8305539 
0.4094824 0.07703507 -0.9090599 
-0.1881443 -0.46256673 -0.8663912 
-0.35488114 -0.5285272 -0.77117985 
0.7063039 -0.21933617 -0.6730724 
-0.12953778 -0.36844158 -0.92058176 
0.418455 -0.52484715 -0.74123615 
0.74449146 0.22241054 -0.6294967 
-0.09743992 0.26407644 -0.9595671 
-0.09018024 0.5385661 -0.83774346 
0.13687012 0.14158815 -0.980418 
0.408006 -0.42600644 -0.8074959 
0.45750427 -0.42638186 -0.78031313 
0.22185664 -0.33860296 -0.9144002 
-0.88790274 0.027436223 -0.45921233 
0.03930047 -0.20973128 -0.976969 
0.35479522 -0.92833847 -0.1109419 
-0.59381163 -0.58480287 0.5526241 
0.076418996 -0.68264616 -0.7267424 
-0.20199534 -0.9568561 -0.20886464 
0.34922364 -0.85823417 -0.37613449 
0.7504818 -0.2703716 -0.60305595 
-0.18733226 -0.4539946 -0.87108874 
0.047464732 -0.10982086 -0.9928175 
0.56470084 -0.083703436 -0.82104015 
0.67896193 0.48929685 -0.54735667 
-0.18357402 -0.5702073 -0.80072737 
-0.34262273 -0.038738906 -0.93867403 
0.068895504 -0.9620028 -0.26420438 
0.25218573 -0.96741784 -0.022475494 
0.55329514 -0.8216979 -0.13666494 
0.6157222 -0.7840301 -0.078633316 
0.24726643 -0.96556646 0.08087442 
-0.47697863 -0.53619695 -0.69640815 
0.25378817 0.60592616 -0.75395304 
7.546629e-05 -0.45581827 -0.8900728 
0.5500844 -0.543893 -0.6337095 
-0.032878328 -0.9859073 -0.16402997 
0.4518278 -0.8262524 -0.33639058 
0.34893763 -0.92915666 -0.122108825 
0.06565516 -0.2411584 -0.9682624 
0.4045538 -0.55191875 -0.7291927 
-0.45373133 -0.69790053 -0.5541326 
-0.18342915 -0.9813754 -0.05706324 
-0.33715734 -0.93489665 0.11087501 
-0.64302444 -0.68967336 -0.33297193 
-0.37845716 -0.91296136 0.15255094 
0.046226837 -0.98393947 -0.17241296 
-0.79196024 -0.5795677 -0.19209483 
-0.52394134 -0.7020674 -0.48227277 
-0.023842057 -0.18291502 -0.9828396 
0.18853316 -0.45812434 -0.86866415 
0.5168416 -0.69073206 -0.5057311 
0.13763125 -0.98844606 0.06349775 
0.06348026 -0.7872005 -0.61342126 
0.30753666 -0.40666133 -0.86026037 
-0.24274558 -0.65947646 -0.7114531 
0.15555972 -0.703493 -0.69346875 
0.8324129 -0.043345522 -0.5524581 
-0.09905844 0.036424924 -0.99441475 
0.4696742 0.059085425 -0.88086045 
0.5465595 -0.12147144 -0.8285635 
0.27354684 -0.059317358 -0.9600279 
0.5323474 -0.30181998 -0.7908925 
-0.42498365 0.5820315 -0.6932736 
-0.0016405624 0.4598865 -0.8879763 
-0.24922848 -0.105324276 -0.96270037 
-0.089900866 -0.621242 -0.77844477 
0.13028118 -0.5927199 -0.79480183 
0.2584625 -0.91906595 -0.2975147 
0.3251373 -0.38397038 -0.8642064 
0.45410958 -0.18910806 -0.8706449 
0.31391984 -0.18785802 -0.93067926 
0.09654845 -0.3109617 -0.9455058 
0.17347194 0.035696313 -0.9841917 
-0.024833394 0.031016244 -0.99921036 
-0.47726175 -0.056383148 -0.87695044 
-0.7742461 -0.40548033 -0.48593077 
-0.3191521 0.3450508 -0.8826562 
-0.07029269 0.30196983 -0.95072246 
-0.07776324 0.19009855 -0.9786805 
-0.20823696 -0.3593259 -0.90968263 
0.08106599 -0.7310114 -0.67753285 
0.44474125 -0.48088026 -0.75561863 
-0.050553765 -0.4129264 -0.90936023 
-0.41264844 -0.47523215 -0.7770944 
-0.24619983 -0.36311045 -0.8986303 
0.25200766 -0.91252196 -0.3221739 
0.1995781 -0.97336626 -0.112813346 
-0.15880278 -0.985557 -0.058813322 
-0.80822814 -0.34755823 -0.47536355 
-0.5005909 -0.61159647 -0.6126652 
0.22352202 -0.86821383 -0.44299304 
0.28737092 -0.94231164 0.17165859 
-0.01762212 -0.84524363 0.53409064 
-0.043324094 -0.8901818 0.45354098 
0.061414327 -0.9981002 0.0049247057 
-0.045511603 -0.9989638 -0.00031455464 
0.5589168 -0.7991859 -0.2211655 
0.16848537 -0.48780555 -0.85653865 
0.24461654 -0.9312015 -0.27023408 
0.4519823 -0.80664563 -0.38083425 
0.52000076 -0.20797044 -0.828461 
0.9462634 -0.27126658 -0.17606868 
0.5644668 -0.4739814 -0.6758098 
0.66887736 -0.61411947 -0.41888 
0.43278906 -0.80391914 -0.40793103 
0.48314875 -0.7211815 0.49645203 
0.4446586 0.119824074 -0.8876492 
0.9947135 -0.0829066 -0.06059462 
-0.24780293 -0.92094356 0.30076033 
-0.69055206 -0.6157838 0.37940496 
-0.17899838 -0.7050135 -0.6862329 
-0.21440078 -0.94924885 -0.23012833 
-0.30210423 -0.9409966 -0.15250711 
-0.64581794 -0.6671069 -0.37133226 
-0.8344754 -0.30932856 -0.45603365 
-0.19448078 -0.7129784 -0.6736758 
0.0012537827 -0.5072158 -0.86181825 
0.17763153 -0.9210868 0.3464769 
-0.32461485 -0.88127905 -0.3434712 
-0.449737 -0.87549883 -0.17674401 
-0.40428725 -0.8371947 -0.36831623 
-0.4390552 -0.8946491 -0.08266521 
-0.5753392 -0.106578454 -0.8109414 
-0.8051713 0.027619496 -0.5923987 
-0.7661979 0.18312202 -0.6159604 
-0.48084858 -0.3671979 -0.79620993 
-0.43158478 0.25895187 -0.86410564 
0.46340764 -0.004774676 -0.8861325 
0.44246432 -0.37417004 -0.81499827 
0.45528775 -0.42453158 -0.782615 
0.26811382 -0.3447038 -0.89960784 
-0.14332983 -0.5612551 -0.8151376 
0.08666991 -0.30015567 -0.9499447 
0.7130593 -0.4101434 -0.5686202 
0.6300738 -0.6637824 -0.40298885 
-0.4601948 -0.42733255 -0.778208 
-0.14726485 -0.053021166 -0.987675 
-0.5961709 -0.55495024 -0.58018154 
0.15375446 -0.32444218 -0.9333257 
-0.43064427 -0.637796 -0.6385623 
-0.50542915 -0.77092505 -0.38757694 
-0.6123939 -0.3170788 -0.72417873 
-0.7111202 -0.34358272 -0.61339957 
0.079417385 -0.4602327 -0.8842391 
0.95867264 -0.27379262 -0.07735903 
-0.46765494 -0.86724895 0.17081621 
-0.80718106 -0.52507776 0.26972613 
-0.79392767 -0.6054236 -0.056045365 
-0.7773021 -0.101052985 -0.62095875 
-0.204207 -0.48501575 -0.850329 
-0.6955163 -0.26426908 -0.668146 
-0.2793859 -0.31900233 -0.9056385 
0.4973936 -0.41915938 -0.75954276 
0.09904117 -0.9471735 -0.3050463 
-0.7632003 -0.32677746 -0.5574423 
-0.4991867 0.020143136 -0.86626035 
-0.52847636 -0.5830203 -0.61709 
-0.30070138 -0.018631794 -0.9535364 
0.03240225 -0.47991046 -0.876719 
-0.1406305 -0.4816495 -0.86500686 
-0.49416637 -0.25347942 -0.8315935 
-0.29391408 -0.24652533 -0.9234933 
0.4420736 -0.019628366 -0.89676404 
-0.25027078 -0.6162852 -0.74669755 
0.5891639 0.12938777 -0.79758686 
0.6546098 0.20777284 -0.72685385 
0.5283169 -0.58801967 -0.61246574 
-0.2813287 -0.6780256 -0.6790696 
0.23615041 -0.91773796 -0.31935865 
-0.1799937 -0.77473825 -0.60612124 
0.50658494 -0.36989707 -0.7788119 
0.66746634 -0.7323302 0.13483769 
0.45911765 -0.5914764 0.6628474 
-0.22621647 -0.4702866 0.853028 
-0.20863003 -0.94661295 0.24575906 
-0.41778135 -0.90854424 -0.0025091183 
-0.23987322 -0.9606165 -0.14027375 
0.047487173 -0.9983301 -0.032894675 
-0.5718694 -0.7649927 0.29622895 
-0.855605 -0.34227604 -0.38831323 
-0.6364137 -0.21782081 -0.7399539 
-0.17997076 -0.5997427 -0.7796918 
-0.44332898 -0.5212911 -0.72918797 
-0.38204172 -0.33097687 -0.8628432 
-0.63271636 -0.2631285 -0.7283086 
-0.7772414 -0.3327696 -0.5340039 
-0.9372179 0.24393752 -0.24923302 
-0.37519827 -0.6205136 -0.688614 
-0.29380828 -0.55168724 -0.7805882 
-0.17909074 -0.83483326 -0.5205574 
-0.31902862 -0.94772416 0.0062918 
-0.8450686 -0.4916906 -0.20999911 
-0.7153375 -0.3242982 -0.61896926 
-0.7787546 0.50134426 0.37708786 
-0.96168715 -0.19417733 0.19352765 
-0.7447852 -0.33708978 -0.57590413 
-0.6106611 -0.36084595 -0.70489955 
-0.18122675 -0.23981403 -0.95375377 
-0.3196357 0.7084539 -0.6292267 
-0.28839287 -0.23682415 -0.92776287 
-0.81732565 -0.27771246 -0.5048312 
0.10381423 -0.37265497 -0.9221447 
0.59753287 -0.4324354 -0.6752438 
0.3078105 -0.77369684 -0.5537563 
0.35031474 -0.86509126 -0.35902196 
-0.4270817 -0.8554085 0.29304853 
-0.88249046 -0.33350956 0.33163533 
-0.54989594 -0.83412504 -0.043009028 
-0.3654508 -0.88589406 -0.28572273 
-0.53513455 -0.7260772 -0.43179044 
-0.47455227 -0.87632406 0.082802534 
-0.46150815 -0.10640985 0.88073105 
-0.42579252 -0.8672287 0.25809944 
-0.66925895 -0.4778016 -0.5690327 
-0.21871553 -0.97408235 -0.05768103 
-0.11187027 -0.1391875 -0.9839268 
0.2507181 -0.88725054 -0.38720402 
-0.12354818 -0.5985879 -0.79147243 
0.21052212 -0.2810734 -0.93631107 
0.42303678 0.3250683 -0.84579575 
0.99635077 -0.07008294 0.0487195 
-0.015087589 -0.9013064 -0.4329195 
0.09346595 -0.85650086 -0.50761235 
-0.10775498 -0.46674088 -0.87780523 
0.0745456 -0.51960534 -0.8511482 
0.15172334 -0.79201686 -0.5913455 
0.48828095 -0.33201656 -0.80706054 
0.7878877 -0.3931862 -0.47395945 
-0.21347816 -0.49636406 -0.84145707 
0.564666 -0.09915596 -0.8193414 
0.60062677 -0.13514268 -0.7880254 
0.37530604 0.07557903 -0.9238145 
0.38424358 0.2658195 -0.88413626 
0.8391632 0.3715949 -0.39714295 
0.87366563 0.45188615 -0.1802975 
-0.57766336 -0.014587298 -0.8161448 
0.18346947 -0.6608609 -0.72773755 
-0.12943801 -0.7862307 -0.60422444 
-0.0470112 -0.70259786 -0.7100325 
0.6443789 -0.64706284 -0.40753597 
0.22191685 0.15755 0.96225303 
0.4410176 -0.7322592 0.5189413 
-0.96274316 -0.019372847 0.26972255 
-0.81353706 -0.4048207 -0.41746575 
0.66572255 -0.4818067 -0.5698033 
0.28329414 -0.09431996 -0.9543837 
0.23739198 -0.46830052 -0.8510816 
-0.30274397 -0.1564462 -0.94014394 
-0.619547 -0.19115119 -0.7613296 
-0.14231463 -0.6933792 -0.70637935 
0.08872845 -0.47556564 -0.8751941 
0.042526413 -0.46438196 -0.8846135 
0.3746049 -0.48897856 -0.7877635 
0.16917577 0.16420579 -0.9718107 
-0.6995207 0.06370776 -0.71176696 
-0.10038677 -0.26027766 -0.960301 
0.35032412 -0.72040784 -0.5985697 
0.0065155197 -0.23163395 -0.9727813 
0.29135454 -0.09525587 -0.9518607 
0.23321265 -0.21887377 -0.9474735 
0.3966168 0.13302469 -0.9082949 
0.46345884 -0.40392753 -0.7887005 
-0.54499346 0.31317452 -0.77775574 
0.73331654 0.44958124 -0.5100232 
0.15401118 -0.14596862 -0.9772276 
0.24232219 0.22626004 -0.94344395 
0.30579016 0.14501144 -0.94099104 
0.46319577 -0.07343444 -0.8832084 
0.10486173 -0.078176774 -0.99140936 
0.2444258 -0.33286637 -0.9107447 
-0.28276578 -0.75694215 -0.58913684 
0.064761065 -0.8098623 -0.5830344 
0.11367623 -0.9107116 0.39709216 
0.04810985 -0.6964494 -0.7159914 
-0.051831126 -0.7450926 -0.66494405 
0.64784986 -0.35168192 -0.67572963 
-0.08886785 -0.2978662 -0.9504622 
-0.1737196 0.21494968 -0.96105057 
0.23809962 0.17687255 -0.9549999 
-0.3818958 -0.494441 -0.78082246 
-0.18841769 -0.38992283 -0.90136516 
-0.019256415 -0.19733888 -0.9801462 
0.7115212 -0.45733535 -0.5334623 
0.67707646 -0.7358522 0.009438446 
0.5688991 -0.72267705 -0.39254522 
0.30049834 -0.95341927 -0.026317198 
0.2406298 -0.91713905 -0.31773147 
0.6686685 -0.15494941 -0.72723675 
0.61881346 0.23007801 -0.75108856 
0.39478734 0.14091861 -0.90790147 
0.17652828 -0.37003726 -0.9120912 
0.45731995 -0.82898414 -0.32193762 
-0.4292243 -0.109251074 -0.89656615 
0.6037968 -0.2231825 -0.76525754 
0.2818197 -0.3530378 -0.8921558 
0.21774864 -0.71899563 -0.6600234 
-0.18649305 -0.6167787 -0.7647251 
-0.0315346 -0.89588815 -0.44315913 
-0.6163357 -0.7417706 -0.2643987 
-0.44679618 -0.8550733 -0.26310256 
0.26791728 -0.5828685 -0.7671275 
0.36907625 -0.47070184 -0.80138785 
-0.2531993 -0.9365823 -0.24228851 
-0.6642855 0.3218282 -0.6746492 
-0.7326774 -0.2933518 -0.614108 
-0.14244117 -0.7229423 -0.6760658 
-0.40938842 -0.8151686 -0.40975755 
-0.42421946 -0.89908165 -0.1081208 
-0.682529 -0.4056252 -0.6079658 
-0.13817897 -0.101945 -0.98514664 
-0.2405872 -0.31713194 -0.9173578 
-0.44242388 -0.81663764 -0.37062693 
0.37206677 -0.5149343 -0.77227515 
-0.72097385 -0.14902698 -0.67674786 
0.3709017 -0.21853594 -0.90259296 
-0.15040515 -0.16658595 -0.97448826 
0.41527936 0.09905472 -0.90428495 
0.5509475 -0.031656303 -0.8339393 
0.13368222 0.43642646 -0.88975334 
-0.02338235 -0.4892913 -0.871807 
0.30475903 0.19191046 -0.93289465 
-0.20676292 -0.16029753 -0.9651704 
-0.06710612 -0.3711373 -0.9261501 
0.64681256 -0.0054710745 -0.7626295 
0.78413606 0.431272 -0.44624585 
0.25460637 0.3378662 -0.9061027 
-0.17063206 0.6095084 -0.77419907 
0.2127818 0.29915577 -0.9301773 
-0.08790432 -0.24112253 -0.9665054 
-0.05576763 -0.70463496 -0.70737517 
-0.13111071 -0.27605397 -0.9521576 
-0.11588046 -0.3989156 -0.90963626 
-0.023684435 -0.74256843 -0.66935134 
0.024647113 -0.42796668 -0.90345836 
0.18179482 -0.96049845 -0.21069774 
-0.040107053 -0.689217 -0.72344416 
0.15224698 -0.63810605 -0.7547461 
-0.13257697 -0.09917606 -0.98619854 
-0.08598477 0.022892362 -0.9960335 
-0.061714824 -0.1466997 -0.9872541 
-0.34665012 -0.7892446 -0.50687945 
-0.000835718 -0.9496657 -0.31326392 
-0.2017067 -0.9385192 -0.28017154 
0.23168576 -0.88313437 -0.40791613 
-0.030607993 -0.24431576 -0.9692126 
0.44730115 -0.04183721 -0.8934044 
0.21273443 -0.51582885 -0.8298583 
-0.1928355 -0.5553364 0.8089598 
-0.06711802 -0.983592 0.16745783 
0.21096145 -0.5390256 -0.8154427 
0.54401517 -0.796086 -0.2651314 
0.28316233 -0.6316056 -0.7217295 
0.32692277 -0.64395493 -0.69169617 
0.28622702 -0.65952104 -0.6950584 
0.27313614 -0.91471666 -0.29780895 
0.021190934 -0.8689035 -0.4945278 
0.15885195 -0.800001 -0.57858837 
0.4082328 -0.20381334 -0.88983494 
0.2043924 -0.47230124 -0.857412 
-0.18051876 -0.81525034 -0.5502546 
0.26111788 -0.4245591 -0.8669297 
-0.14016233 -0.85109794 -0.50595146 
0.2481729 -0.12037639 -0.9612075 
0.32461405 -0.5769548 -0.7494991 
0.25459352 -0.8990931 -0.35610944 
-0.07806343 -0.9729823 -0.21728235 
-0.42579705 -0.6824013 -0.5941595 
-0.07522832 -0.46481815 -0.88220453 
0.6383985 -0.40949312 -0.65173835 
-0.68288296 0.17336583 -0.70965856 
-0.85744315 -0.16898221 -0.4860416 
-0.18591851 0.28627694 -0.9399361 
-0.050930265 -0.8418412 -0.5373169 
-0.15091683 -0.90376014 -0.40055177 
0.37359923 -0.44140425 -0.81583446 
-0.025100017 -0.71800524 -0.6955851 
0.3557841 -0.47153753 -0.8068892 
0.28216252 -0.76694 -0.5763569 
0.11030632 0.11419537 -0.98731554 
-0.4978212 0.08138232 -0.86345303 
-0.64449096 0.100269 -0.7580089 
0.2126652 -0.1811217 -0.9601919 
-0.46374065 -0.40816736 -0.78634864 
0.16818522 -0.36613038 -0.915239 
-0.03483017 -0.3860962 -0.92180085 
0.45365155 -0.14016232 -0.880088 
0.23184298 -0.21426342 -0.94886255 
0.17016815 0.4252631 -0.88892865 
0.2384314 0.4584239 -0.8561531 
-0.058530588 -0.17329869 -0.98312855 
-0.21511859 -0.38463658 -0.8976518 
-0.43630084 -0.36430556 -0.8227534 
-0.11256793 0.14821413 -0.98252785 
-0.42489296 -0.8428935 -0.33014634 
-0.42745695 -0.13320144 -0.894169 
-0.5632056 -0.81850725 -0.11333744 
-0.3460163 -0.5010669 -0.7932242 
-0.2922212 -0.025584158 -0.95600855 
-0.46961254 -0.23885433 -0.8499486 
-0.66398335 -0.5674199 -0.48699152 
-0.32065752 -0.6884127 -0.6505895 
-0.323842 -0.70324504 -0.6329082 
-0.15325144 -0.771483 -0.61751765 
-0.3746472 -0.9153776 -0.1473882 
-0.25663632 -0.027844064 -0.9661069 
-0.3039317 -0.70882916 -0.63654286 
-0.29861566 -0.69056726 -0.65874547 
-0.20482078 -0.5412539 -0.81553215 
-0.3136404 -0.7825674 -0.5377901 
-0.8345047 -0.3326602 -0.43924847 
-0.09940559 -0.05831374 -0.9933368 
-0.21793751 0.53341615 -0.8172947 
0.07638885 0.37692654 -0.92308784 
-0.078899585 -0.19413792 -0.9777962 
-0.18619923 -0.32902098 -0.92578346 
-0.38221145 0.6589919 -0.6477995 
-0.29144996 0.27533212 -0.9161054 
-0.2986086 -0.23728424 -0.9244074 
0.28317088 0.02968139 -0.9586101 
-0.10895293 0.4864196 -0.8669056 
0.46023768 0.47315428 -0.7512033 
0.49941087 0.09037834 -0.86163825 
0.7879969 -0.07134958 -0.611531 
0.598122 0.11948105 -0.79244846 
0.18945037 -0.10531089 -0.9762265 
0.32217222 -0.15398692 -0.9340734 
0.19999559 -0.5966474 -0.77718323 
0.24292842 -0.6774654 -0.6942813 
-0.08900667 -0.94647384 -0.31026617 
0.22343272 -0.7946821 0.56440973 
-0.6973014 -0.70522857 0.12815434 
0.25483507 -0.9065247 -0.33655906 
0.234814 -0.9296843 -0.28381252 
-0.044389796 -0.93040735 -0.36382934 
-0.52523625 -0.5777507 -0.62476486 
-0.62909704 -0.13112764 -0.7661871 
-0.6703719 -0.18169804 -0.7194355 
-0.78389233 -0.46241602 -0.4143481 
-0.8185282 -0.16001561 -0.55173075 
-0.6106204 -0.034928 -0.7911529 
0.0016390933 -0.7767375 -0.6298225 
-0.8123203 -0.15465087 -0.5623334 
-0.70944273 0.21179612 -0.67218554 
-0.46460822 -0.07642606 -0.8822122 
0.33934283 -0.08459348 -0.9368514 
-0.05767663 -0.33397585 -0.9408153 
0.33900708 -0.806959 -0.4836233 
0.10644916 -0.9940816 0.021687204 
-0.7996093 -0.5757652 -0.1706444 
-0.849741 0.49724957 0.17516653 
-0.9532439 0.1529447 -0.26064172 
-0.7199267 -0.63961583 -0.26943853 
-0.46208516 -0.41766396 -0.78232616 
-0.82597387 -0.3352039 -0.45321685 
-0.09018153 0.11845054 -0.9888563 
0.17428187 0.08842348 -0.98071766 
-0.61445063 0.21685934 -0.75856614 
0.8715784 -0.23845248 -0.428359 
0.5309931 -0.3377695 -0.77714753 
0.37010828 -0.3506791 -0.8602581 
0.40447783 -0.7144449 -0.57093453 
0.2877972 -0.95476085 -0.07486391 
-0.876639 -0.47234118 0.09164083 
-0.43488455 -0.84630555 -0.30764022 
0.006079779 0.22870144 -0.9734776 
-0.50731516 -0.21380667 -0.8348162 
-0.22386636 -0.14879735 -0.9631943 
0.061338153 -0.55154645 -0.83188593 
0.03428609 -0.7218489 -0.6912009 
0.24187197 -0.5707273 -0.78470916 
0.6762377 -0.67969024 -0.28411937 
0.22474608 -0.77495384 -0.59070784 
0.06040631 -0.25983387 -0.96376216 
0.6345228 0.36694464 -0.6802444 
0.9469387 -0.1663272 -0.27503175 
0.8072866 -0.5318721 -0.25573495 
0.83030874 -0.5522627 -0.07478827 
0.4111618 -0.8679122 -0.27870142 
0.03840023 -0.92699254 -0.37310895 
-0.15578574 -0.8230343 -0.54621005 
0.1400642 -0.806329 -0.57464397 
0.2784637 -0.00665069 -0.96042377 
0.082236886 -0.20235743 -0.9758528 
0.31199223 -0.77727497 -0.5463558 
-0.54584736 -0.028405027 -0.8374031 
-0.11528582 -0.44699597 -0.88707596 
0.09525161 -0.6035257 -0.79163367 
-0.10713416 -0.07024816 -0.9917598 
0.34862992 -0.38307476 -0.85540116 
0.9903422 0.13130736 0.044506535 
0.38358334 0.110825814 -0.91683227 
0.39962578 -0.0010359596 -0.91667783 
0.5641889 -0.796169 -0.21864554 
-0.6075898 -0.7347825 -0.301545 
0.05969414 -0.55554765 -0.82933915 
0.077366196 -0.8390698 -0.53849447 
0.52657336 -0.8272157 0.1960483 
0.22655278 -0.95936275 -0.1682176 
-0.5578194 0.48656222 -0.67238 
-0.4111098 0.8927293 -0.18445353 
-0.22363952 0.79415596 -0.56506795 
-0.6838517 0.44182354 -0.58063656 
-0.43992746 -0.15702799 -0.88419807 
-0.5756219 -0.010977419 -0.8176424 
-0.74965864 -0.050347187 -0.659907 
-0.15574028 -0.5903902 -0.7919498 
0.16683598 -0.40053776 -0.90096354 
0.19955575 0.24660333 -0.94834816 
0.39393237 0.58615947 -0.70797914 
-0.06105974 0.15512925 -0.9860054 
-0.50892764 -0.021482456 -0.86054116 
0.3467129 -0.055297524 -0.9363399 
0.717309 -0.075164676 -0.6926891 
0.7453398 -0.09632476 -0.6596894 
-0.37607512 -0.054342795 -0.92499423 
-0.24637294 0.14831248 -0.95775974 
-0.023418872 0.1436439 -0.98935235 
0.5591181 -0.11622031 -0.82090193 
-0.97421914 0.15507677 -0.16385469 
-0.423644 0.692949 -0.58339316 
-0.3118658 -0.15121312 -0.9380162 
0.23032889 0.07918493 -0.96988577 
0.07957279 0.5339934 -0.84173584 
-0.14049698 0.7525424 -0.64338225 
-0.49961072 0.48898578 -0.71503997 
-0.35117453 -0.07189115 -0.933546 
-0.5462984 -0.52200854 -0.6550307 
0.005681483 -0.47584632 -0.8795101 
-0.3960794 -0.22557287 -0.8900775 
-0.28212968 0.3410874 -0.8966952 
-0.031650178 -0.31723332 -0.9478193 
0.40832955 -0.108935535 -0.9063112 
-0.5063322 0.16721614 -0.8459707 
-0.2883418 0.11424834 -0.9506873 
-0.31050178 -0.14676733 -0.9391741 
-0.18864736 -0.13202426 -0.9731299 
0.057542913 -0.27392128 -0.9600292 
-0.0026984676 -0.58045894 -0.8142851 
0.6961454 0.10480945 -0.7102089 
0.9466216 0.3223165 -0.0044292524 
0.5799677 -0.71075255 0.39808103 
0.5967677 -0.79064614 0.13692006 
0.49581093 -0.46255785 -0.734991 
0.6401868 -0.03123117 -0.76758426 
0.28537577 0.15340482 -0.94605905 
0.5541901 -0.3128631 -0.77135605 
0.40486166 -0.10653691 -0.90815026 
-0.024774255 -0.3752723 -0.9265835 
0.34538648 -0.42404947 -0.837192 
0.2772246 -0.6784216 -0.68036073 
-0.025681566 -0.21467635 -0.9763476 
-0.30203652 -0.20005958 -0.9320677 
-0.3503202 -0.27882436 -0.89416593 
0.22170728 -0.5386128 -0.8128606 
-0.21615411 -0.8821527 -0.41843066 
0.25434127 -0.9563712 -0.143752 
-0.14636788 -0.2901358 -0.94572604 
0.4693274 -0.7200631 -0.51111734 
-0.3115335 -0.94393116 -0.10927428 
-0.4432677 -0.2537163 -0.85973364 
-0.090294495 0.51678425 -0.8513407 
0.26742148 -0.2439172 -0.93219644 
0.3884614 0.057360653 -0.919678 
-0.12769514 -0.7951701 -0.59278876 
-0.41034475 -0.16184431 -0.897454 
-0.21735023 0.6607389 -0.71845883 
-0.4916249 -0.1968207 -0.84827274 
-0.20167212 -0.93955696 -0.276697 
0.74004376 -0.52435094 -0.42117855 
0.12726793 0.15577929 -0.979559 
0.32839137 0.30516478 -0.8938868 
0.7797952 0.14206134 -0.60970336 
0.66842246 -0.19476268 -0.71782935 
0.843392 -0.11394413 -0.52507794 
0.57806456 -0.39586598 -0.7135346 
0.7639807 0.09615131 -0.6380348 
0.11556349 0.11687901 -0.98639977 
0.39437497 0.39422086 -0.8300954 
0.5516925 -0.15168115 -0.82013917 
0.47240868 0.4366858 -0.76559484 
0.9405254 -0.016963517 -0.3392997 
0.978316 -0.0046035224 -0.20706715 
0.27563056 0.17257676 -0.9456454 
-0.15200825 -0.123716675 -0.98060584 
0.11511867 -0.12669858 -0.9852387 
0.22860728 -0.7826612 -0.57894754 
-0.60926735 -0.21047345 -0.76452225 
0.7535225 -0.20769772 -0.6237512 
-0.4805173 -0.7271644 -0.4902398 
-0.56443185 -0.74107754 -0.36362192 
-0.07438113 -0.75413716 -0.65249115 
-0.22216424 -0.125192 -0.96693856 
-0.45110136 -0.29205287 -0.84333426 
-0.09160766 -0.5881793 -0.80352545 
-0.5668925 -0.3599993 -0.74096787 
-0.3816563 -0.10809856 -0.9179614 
-0.019558262 -0.90968335 -0.4148418 
0.16337037 -0.8390057 -0.5190179 
-0.11751896 -0.48845857 -0.8646373 
0.17885245 -0.3779594 -0.90838236 
0.4700002 -0.47092098 -0.74654764 
0.17889725 -0.47185746 -0.8633345 
0.7235165 -0.13904582 -0.6761584 
0.12870482 -0.75226486 -0.64616776 
-0.33474994 -0.87834287 -0.34125686 
0.2767824 -0.6434487 -0.7136983 
0.5039228 -0.74769026 -0.43245932 
0.09867922 -0.9881752 -0.11735488 
0.037205555 -0.7955805 -0.6047045 
-0.5733432 -0.51805264 -0.63474333 
-0.42321137 -0.7197908 -0.55026674 
0.26813155 -0.319426 -0.9088853 
0.14845395 -0.44962022 -0.8807969 
-0.14153562 -0.68482476 -0.71483064 
0.57452124 -0.43613532 -0.692612 
-0.15945564 -0.16050538 -0.97406983 
-0.30078962 -0.21005163 -0.93027097 
-0.32500377 -0.23677237 -0.91559356 
0.53888965 -0.22368634 -0.8121345 
0.30698457 -0.17084295 -0.93625486 
-0.049283843 -0.8853026 -0.46239647 
0.39924467 -0.6664416 -0.62965024 
-0.24624823 -0.81198525 -0.52918977 
0.13021927 -0.51208055 -0.8490092 
-0.1169648 -0.054580323 -0.99163514 
-0.53833294 0.47028854 -0.69930416 
-0.5820277 0.11619341 -0.8048249 
-0.32537985 -0.4259614 -0.8442067 
-0.48942715 -0.5524723 -0.6747114 
0.1534274 -0.7969981 -0.58416975 
-0.032622598 -0.6573177 -0.7529072 
0.0970239 -0.80166346 -0.5898493 
0.49344411 -0.15058693 -0.85664254 
0.02849255 -0.83228713 -0.55361205 
0.27719626 -0.33816224 -0.8993379 
-0.4783017 -0.18676004 -0.8581073 
-0.0965596 0.26942202 -0.9581691 
-0.117046 0.06854929 -0.990758 
-0.52963775 -0.29210293 -0.7963416 
-0.4150468 0.035479184 -0.9091081 
0.2534694 0.34613955 -0.9032944 
0.558754 0.032963663 -0.8286781 
0.7698821 -0.33540055 -0.5429438 
0.53181636 0.7817787 -0.3255666 
0.43840662 0.54508626 -0.7146192 
0.19770928 0.8826355 -0.42645717 
-0.115679786 0.12760535 -0.9850559 
-0.066646084 -0.057701167 -0.9961069 
0.099433266 -0.5581163 -0.8237836 
-0.11812689 -0.65685177 -0.74470925 
-0.27012426 -0.08370778 -0.9591799 
0.2037775 -0.9441883 -0.25881094 
-0.04010793 -0.5659374 -0.82347214 
0.011261492 -0.18610102 -0.98246616 
-0.20915063 -0.7114086 -0.6709351 
-0.47605184 -0.66230565 -0.5785551 
-0.22745775 -0.761081 -0.6074691 
-0.05712796 -0.61006105 -0.7902924 
0.55412126 -0.35163608 -0.75452095 
-0.32653585 -0.44448254 -0.83415216 
-0.32131574 -0.45164853 -0.8323281 
-0.073714696 -0.6280234 -0.7746954 
0.12802437 -0.7866486 -0.6039816 
0.28323072 -0.44018358 -0.85206735 
-0.20378996 -0.1457698 -0.96810174 
-0.10709785 -0.67030174 -0.7343199 
0.03083776 -0.25784433 -0.9656943 
-0.17673907 0.27846867 -0.9440437 
-0.115112856 0.23751944 -0.96453804 
0.2427035 -0.19645736 -0.9499998 
0.33787128 -0.16060883 -0.9273877 
-0.1022648 -0.67981976 -0.72621423 
0.51686037 0.16044466 -0.84090006 
0.36659595 -0.51824147 -0.7726793 
0.00701784 -0.010516161 -0.9999201 
0.50494254 0.085468106 -0.85891116 
0.83996147 0.2959073 -0.45486674 
0.7053947 0.20192122 -0.67944556 
0.72326314 0.006736772 -0.6905398 
0.43145642 -0.5608316 -0.7066211 
0.6443201 -0.60169524 -0.47203246 
0.914557 -0.35074878 -0.20139709 
0.51610833 -0.6039033 -0.60739857 
0.6138366 -0.38603526 -0.6886084 
-0.029245567 -0.8797557 -0.47452578 
0.351532 -0.93617475 -0.0014590545 
-0.17424923 -0.8888136 0.42384854 
0.10538627 -0.80153763 -0.58858407 
-0.5520959 -0.4101575 -0.72592086 
-0.72185683 -0.31977192 -0.6137334 
-0.57684493 -0.7207613 -0.38438663 
-0.9919797 -0.118025 -0.045236815 
-0.3472661 -0.74810916 -0.5654547 
-0.40124798 -0.3301167 -0.85441387 
-0.3008021 -0.36449957 -0.8812822 
-0.03130462 -0.31568468 -0.9483477 
0.021209681 -0.4474022 -0.8940813 
-0.40906397 0.008194546 -0.91246897 
-0.27012238 -0.3707831 -0.88856846 
-0.5011668 -0.15988138 -0.8504527 
0.7466737 -0.14014952 -0.65025884 
0.83317643 -0.17431617 -0.52481526 
0.0851724 0.14838642 -0.98525494 
-0.127747 -0.895741 -0.42582732 
-0.57073337 -0.81448483 0.10429817 
-0.5870075 -0.6349054 -0.50231206 
0.11711272 -0.77189946 -0.6248648 
0.4370508 -0.6358906 -0.6361052 
-0.36393958 -0.33398533 -0.86948365 
-0.57033414 -0.42976052 -0.70001787 
0.016395338 -0.3048195 -0.952269 
-0.0015736582 -0.18199034 -0.98329914 
-0.418048 0.39895108 -0.8161335 
0.704815 0.02575487 -0.7089236 
0.70917034 -0.017185347 -0.7048278 
0.35277504 -0.28909156 -0.8899303 
0.39384392 -0.6888939 -0.6085329 
0.10795253 -0.7484398 -0.6543579 
-0.82887197 -0.21602109 -0.5160487 
-0.02644113 -0.29003474 -0.9566508 
-0.23055394 0.56151307 -0.7946999 
0.16859815 -0.49410802 -0.85289633 
-0.23307396 -0.7845095 -0.57464886 
0.05757139 -0.7049221 -0.7069444 
-0.7878327 -0.30073437 -0.5374744 
0.46957374 -0.7704744 -0.4311262 
-0.45665732 -0.4580645 -0.76265395 
0.062191304 -0.19476493 -0.9788764 
-0.0755264 -0.673554 -0.73526925 
0.6576574 0.18440141 -0.73039913 
0.62467283 -0.47521728 -0.619639 
0.34708664 -0.59509087 -0.7248433 
0.43768865 -0.68712604 -0.5799022 
0.47929975 -0.58341813 -0.6556639 
0.07355558 -0.6618861 -0.7459869 
0.0034623193 0.1502951 -0.9886351 
-0.37417707 -0.24603651 -0.8941239 
0.17212205 -0.11618602 -0.97819984 
-0.0972381 -0.32600915 -0.94035256 
-0.5134629 -0.77649754 -0.36525002 
-0.33721086 -0.76195806 -0.5529094 
-0.29361302 -0.8419624 -0.4526486 
-0.15987824 -0.5738051 -0.8032352 
-0.61315227 0.17132655 -0.77116257 
-0.2888616 -0.23460057 -0.9281819 
0.41412285 -0.7282323 -0.54605865 
-0.41875774 -0.6081179 -0.67441434 
-0.1932488 -0.69009894 -0.697437 
-0.2121367 -0.9452781 -0.24788585 
-0.4992171 -0.6953224 -0.51701957 
-0.06103991 -0.7469822 -0.66203606 
-0.36943474 -0.7314548 -0.5731422 
0.095347576 -0.5631188 -0.820857 
-0.05975293 -0.5564471 -0.8287318 
-0.27630416 0.33593473 -0.90044653 
-0.60977334 0.17546806 -0.77290845 
-0.0015332357 0.27267164 -0.96210593 
0.22937511 -0.32101417 -0.91887814 
-0.134082 0.7479236 -0.65010184 
-0.042771105 0.12008319 -0.9918421 
-0.118170686 -0.26190645 -0.95783126 
0.022779081 -0.27151096 -0.9621658 
-0.19483545 -0.2142439 -0.95715135 
-0.007387493 -0.1775571 -0.9840828 
-0.38468602 0.23327093 -0.8930853 
-0.51520634 0.49840483 -0.6972482 
-0.9035804 0.12215693 -0.4106337 
-0.80464077 -0.23242871 -0.5463791 
0.35912764 -0.24979822 -0.8992376 
-0.20240529 -0.17266612 -0.9639598 
-0.845733 -0.35207066 -0.40097645 
0.032029066 -0.24213052 -0.9697149 
0.287186 -0.75199234 -0.5933225 
0.79598653 -0.05188762 -0.6030863 
-0.16255404 -0.2541651 -0.9534025 
0.49234587 0.47451463 -0.72967905 
0.35284144 -0.022663126 -0.93540865 
0.76788574 0.63562846 -0.07954914 
0.4210588 0.8056239 -0.4167492 
0.4453706 0.34888023 -0.8245772 
0.749168 0.55587566 -0.36020786 
0.0202457 -0.3632731 -0.9314627 
0.13924702 -0.013727394 -0.9901626 
0.26967987 -0.37249005 -0.8879888 
-0.3665514 0.19572966 -0.90957683 
-0.07661257 -0.092944145 -0.99271953 
-0.32818043 -0.16545263 -0.9300124 
0.2653024 -0.74878764 -0.6073975 
-0.14995095 -0.41599098 -0.89692044 
-0.6410719 0.121664666 -0.757776 
0.17373288 0.07613439 -0.9818455 
0.18234342 0.12705421 -0.9749913 
0.12289425 -0.15652093 -0.9799992 
0.5798608 -0.2912163 -0.76089066 
0.64181674 0.22178842 -0.73408526 
0.16198991 -0.9823839 0.09317324 
0.4049921 -0.91409373 0.020346958 
0.31395116 -0.685001 -0.6574255 
-0.4956867 -0.30969432 -0.8114088 
0.47364965 -0.21408553 -0.854297 
-0.20009565 -0.13868421 -0.96991163 
0.07255695 -0.056975987 -0.9957355 
0.5737287 0.01378718 -0.81892943 
0.42001852 0.25852513 -0.8699134 
-0.096716434 -0.75454736 -0.6490796 
0.114880934 -0.7267597 -0.67721695 
-0.585248 -0.49899015 -0.63913506 
-0.20164655 0.22674623 -0.952851 
-0.6217767 -0.1721853 -0.76403284 
-0.2066337 -0.3339446 -0.919665 
0.42926645 -0.8115675 -0.39634416 
0.26501948 -0.58221036 -0.7686324 
-0.118131734 0.51188564 -0.8508925 
0.014781862 0.21934238 -0.975536 
-0.0150055345 -0.09404207 -0.9954552 
-0.029224379 -0.17448434 -0.9842262 
0.36865696 0.32325125 -0.8715508 
-0.12821081 0.22607149 -0.9656364 
0.601521 0.18726458 -0.77659804 
0.8446868 -0.109675184 -0.5239042 
0.47764906 0.20334566 -0.85469407 
-0.21227236 0.10922893 -0.9710868 
0.29002637 -0.23336996 -0.92812884 