# OOMMF: rectangular mesh v1.0
# Segment count: 1
# Begin: Segment
# Begin: Header
# Desc: Time (s) :  7.540000000000018e-07
# Title: m
# meshtype: rectangular
# meshunit: m
# xbase: 2e-09
# ybase: 2e-09
# zbase: 5e-10
# xstepsize: 4e-09
# ystepsize: 4e-09
# zstepsize: 1e-09
# xmin: 0
# ymin: 0
# zmin: 0
# xmax: 1.024e-06
# ymax: 1.024e-06
# zmax: 1e-09
# xnodes: 256
# ynodes: 256
# znodes: 1
# ValueRangeMinMag: 1e-08
# ValueRangeMaxMag: 1
# valueunit: 
# valuemultiplier: 1
# End: Header
# Begin: Data Text
0.0689773 0.28554127 -0.95588094 
-0.211393 -0.3750895 -0.9025636 
-0.07432029 -0.31993902 -0.94451874 
0.056146666 -0.39115667 -0.9186099 
0.02946811 -0.87131584 -0.48983714 
0.6261554 -0.77919513 -0.028008062 
0.74895275 -0.19182768 -0.6342492 
0.45548412 -0.52964896 -0.71554613 
0.5446053 -0.61247045 -0.5729617 
0.96209466 -0.22104451 -0.15972874 
0.5594513 -0.7968537 -0.22811937 
-0.338116 -0.94076633 0.02522416 
0.09323601 -0.9181623 0.38507822 
0.004285822 -0.8691276 -0.49456954 
0.06431763 -0.99522275 0.07345046 
-0.86875993 -0.07609713 -0.48935205 
-0.71962976 -0.64065915 -0.2677478 
-0.38106775 -0.8754276 -0.29734492 
-0.45386195 -0.5004182 -0.73728627 
-0.23037472 -0.7465503 -0.6241715 
0.080954425 -0.5559799 -0.82724416 
-0.07589468 -0.48982567 -0.8685107 
-0.16538754 -0.43234384 -0.88641185 
0.14407623 -0.98164475 -0.12496313 
0.26422492 -0.68660873 -0.67731357 
-0.10921694 -0.20057593 -0.9735713 
0.03650896 0.27268335 -0.96141094 
0.22298133 -0.70421034 -0.6740676 
-0.3374539 -0.1190922 -0.9337784 
0.46903026 -0.61322933 -0.6355788 
0.69624656 -0.7132178 -0.08100097 
0.21532536 -0.9502776 -0.22496082 
-0.29408854 -0.8030677 -0.51826084 
-0.20506269 -0.9600386 -0.19046076 
-0.09444261 -0.1785632 -0.97938544 
0.24643205 0.05203303 -0.96776235 
0.32747775 0.88164324 -0.33979926 
0.6832056 0.5962716 -0.4215333 
0.6467239 -0.4627757 0.60628945 
-0.23693295 -0.6268535 0.74223816 
-0.90210533 0.15373999 0.40319973 
-0.91768706 -0.25584057 0.30396748 
-0.9413447 -0.26935953 -0.20326266 
-0.41221833 -0.5785408 -0.70382285 
-0.8085536 -0.05657326 -0.5856967 
-0.72952694 0.48003447 -0.48719338 
-0.19705538 0.19946146 -0.9598876 
0.5233567 0.21933939 -0.82340026 
-0.14207435 -0.14586745 -0.9790493 
-0.5906156 0.108834796 -0.79958004 
-0.2219681 -0.25822574 -0.94023913 
-0.36921248 -0.33137485 -0.86825854 
-0.2434113 -0.07949117 -0.9666603 
-0.49435145 -0.77126 -0.40096724 
-0.20440915 -0.25705388 -0.94453174 
0.45991153 0.24250548 -0.85420877 
0.1749451 0.030385453 -0.9841093 
0.18561386 -0.18082604 -0.9658414 
-0.8401557 0.23920633 -0.48674294 
-0.45687377 -0.5061698 -0.731477 
-0.49504417 -0.061271753 -0.86670476 
0.0267562 -0.20785178 -0.97779435 
-0.44816706 -0.042666633 -0.89293104 
-0.45436078 0.44929773 -0.7692126 
0.64966875 0.20469478 -0.73214114 
0.5496836 0.060534474 -0.8331769 
0.46731588 0.20976093 -0.85884595 
-0.61513716 0.5217321 -0.59110236 
0.16421147 -0.8431812 -0.5119377 
0.66974086 -0.6486778 -0.3614753 
-0.27344522 -0.7368172 -0.618327 
-0.17719473 -0.9439764 -0.27840745 
-0.33255038 -0.7134683 -0.6167441 
-0.45260516 0.5908284 -0.667885 
0.38142583 0.010171564 -0.9243435 
0.6479385 -0.23785685 -0.723602 
0.36155778 0.589278 -0.72251475 
0.20176502 0.26812074 -0.94202024 
-0.17883453 -0.23144037 -0.9562707 
0.15207236 -0.9579044 -0.24350229 
-0.0020749737 -0.7643564 -0.6447907 
0.36893448 -0.7159199 -0.59274465 
0.3629332 -0.7294115 -0.57986075 
0.2799297 -0.85233927 -0.44176605 
-0.036970075 -0.89739376 -0.43967918 
-0.2977239 -0.8659132 -0.4019389 
0.07874513 -0.9956568 -0.049666677 
-0.5214734 -0.52269125 -0.6744326 
0.13464922 -0.57333213 -0.80818313 
-0.30407932 -0.8710263 -0.38580963 
0.82550955 -0.54701763 -0.13894564 
0.072683565 -0.28168955 -0.9567488 
0.5277274 -0.7372666 -0.42183143 
-0.19840948 -0.9321894 -0.30274853 
0.6395439 -0.6771674 -0.3639067 
0.5878341 -0.30360767 -0.74984896 
0.38369983 -0.03246843 -0.9228869 
0.386561 0.74999624 -0.5367274 
0.14177488 0.03372813 -0.9893242 
0.2986714 -0.35141426 -0.8873012 
0.95087034 -0.25079283 -0.18151769 
0.45901692 -0.8709356 0.175427 
-0.3059646 -0.71042234 -0.6337869 
-0.090842 -0.9359155 -0.3403086 
0.20787415 -0.7510604 -0.62665516 
0.17771384 -0.9390004 -0.29444224 
-0.64700043 -0.07526639 -0.7587657 
0.6082189 -0.0938357 -0.78820354 
0.53337264 0.0288258 -0.8453891 
0.5719824 0.38466653 -0.7244777 
0.26208422 0.71511763 -0.6480113 
0.11609849 0.06759634 -0.9909349 
-0.020428305 -0.33294517 -0.94272494 
0.36818632 -0.63227797 -0.68166226 
0.41115844 -0.51224405 -0.7540258 
-0.10677796 -0.9937179 0.03351607 
-0.45680177 -0.78587776 -0.41680756 
0.13715118 -0.29793552 -0.94468194 
0.31126386 -0.18837665 -0.9314661 
-0.28259042 -0.43109515 -0.8569129 
-0.37168157 0.094694704 -0.9235182 
0.11181467 -0.73074836 -0.67342734 
-0.49830285 -0.30465338 -0.8117146 
-0.6782386 0.038666192 -0.73382384 
-0.31522045 -0.9456629 0.07973573 
-0.36630756 -0.7122584 0.59875435 
-0.17873341 -0.80397195 -0.5671716 
-0.28631726 -0.8359957 -0.46811724 
-0.832375 -0.08267434 -0.5480119 
-0.4306495 0.06566835 -0.9001271 
0.2722809 -0.7165585 -0.6421893 
-0.064356245 -0.9615809 -0.26687166 
-0.58291316 -0.81219906 -0.023346266 
-0.39003304 -0.91455734 -0.10704773 
-0.45484465 -0.726532 -0.5150415 
-0.7748337 -0.52139884 -0.35745773 
-0.47772264 -0.6328513 -0.60932773 
-0.26699868 0.31882125 -0.9094311 
0.7623724 -0.40306658 -0.50628626 
0.18151416 -0.50835246 -0.841802 
0.4653868 -0.13930953 -0.87407553 
0.7640511 -0.4946023 -0.41423997 
-0.27141312 -0.1451595 -0.95145345 
0.5321312 0.11126369 -0.8393192 
0.08267444 -0.16279401 -0.98319024 
0.34090543 -0.54581565 -0.7654206 
-0.1094167 0.035386596 -0.99336594 
-0.13189486 -0.30783114 -0.9422546 
-0.0979773 -0.3284848 -0.9394138 
0.3928884 0.0065768375 -0.91956276 
-0.5936612 -0.27492422 -0.7562956 
-0.43576935 -0.70328385 -0.56169116 
0.43020737 0.06607254 -0.9003089 
0.21794708 -0.6990368 -0.68106294 
0.87877196 -0.28680685 0.38144687 
0.13627595 -0.98562956 -0.09981591 
0.5492966 -0.7884181 0.2768937 
-0.13780697 -0.35722136 -0.9237978 
0.06349215 -0.25718668 -0.9642737 
-0.007289875 -0.5873526 -0.80929834 
0.33603272 -0.571565 -0.7485958 
0.21328709 -0.97675616 0.021355042 
0.26800615 -0.92991 -0.2518735 
-0.052495472 -0.9839959 -0.17028305 
-0.36495143 -0.92618614 -0.09481483 
-0.7806189 -0.4333016 -0.45042625 
-0.38100576 -0.59656125 -0.7063635 
-0.5153111 -0.37628102 -0.7699786 
0.2056524 -0.0037051102 -0.97861814 
-0.16768642 -0.12693457 -0.9776344 
0.61986417 -0.065396436 -0.7819794 
0.22026096 -0.19439222 -0.955875 
0.12173502 -0.050471675 -0.99127865 
-0.96769845 -0.02422258 -0.25094444 
-0.7659699 -0.24811897 -0.593066 
-0.48626518 -0.25090647 -0.83701384 
-0.2462691 -0.93454593 0.25685698 
-0.8873223 -0.19124043 -0.4196264 
0.18758446 0.36066902 -0.9136356 
0.2790246 -0.5063965 -0.8159093 
-0.5613826 -0.23101279 -0.7946589 
-0.09365777 -0.29288018 -0.95155114 
0.17019801 0.29131344 -0.94136554 
0.45798525 0.37974745 -0.8037671 
0.17625502 0.5840097 -0.7923806 
-0.90917534 -0.04955451 -0.41345456 
-0.34591955 -0.48426384 -0.8036344 
-0.50919956 -0.36512962 -0.77935624 
-0.3036226 -0.12584746 -0.9444447 
0.20926218 -0.23377599 -0.9495042 
0.46150792 -0.01113895 -0.8870662 
0.31149405 -0.40271145 -0.8606945 
0.5597268 -0.6339253 -0.53370845 
0.35650292 -0.92807317 -0.10763778 
-0.58913463 -0.3613379 -0.72274154 
-0.25438282 -0.10878481 -0.9609659 
0.22554947 -0.57264036 -0.78816915 
0.71907276 -0.614989 0.32360944 
0.19000733 -0.7480578 -0.63585126 
0.08260193 -0.632175 -0.77041006 
0.17993417 -0.7763818 -0.6040322 
0.1321155 -0.88334554 0.44971794 
-0.009551915 -0.9983879 0.05594983 
-0.2386575 -0.529857 0.8138146 
0.036731414 -0.998018 0.051097672 
0.3881876 -0.9144398 0.11450054 
-0.019813633 -0.81167585 -0.583772 
0.6444564 -0.7548646 0.121883325 
-0.13200781 -0.71893674 -0.6824251 
0.81954163 -0.26753077 -0.50673354 
0.79492277 -0.13530748 -0.5914302 
0.62945765 -0.18991421 -0.75346917 
0.384073 -0.8090492 -0.44489047 
-0.1646678 -0.96377754 -0.20980346 
0.21684653 -0.9635949 0.15640546 
-0.23019643 -0.9727149 0.028902717 
0.06799189 -0.82207394 0.5653066 
-0.71193105 -0.51880604 0.4732807 
-0.8179588 -0.266245 -0.50995785 
-0.11370324 -0.81311923 0.5708841 
-0.8506542 -0.4075713 0.33207405 
-0.80439526 -0.14411953 -0.5763487 
-0.89789087 0.1274189 -0.4213747 
-0.42704523 0.43882257 -0.79061186 
-0.16436377 -0.26603895 -0.9498462 
-0.29766902 -0.57632685 -0.76107866 
-0.23973599 -0.08629284 -0.9669955 
0.24934024 0.17012314 -0.95335597 
0.7659797 -0.3242986 -0.5550727 
-0.046665456 -0.59917015 -0.7992606 
0.24212976 0.11046983 -0.9639345 
0.42957947 -0.3342407 -0.8388949 
0.44280103 -0.5634047 -0.69749737 
-0.26954502 -0.4241592 -0.86454296 
-0.18964115 -0.46356487 -0.865531 
-0.18225639 -0.5474504 -0.8167501 
0.19964065 0.043491445 -0.9789036 
-0.098856114 -0.19137897 -0.9765253 
0.27675092 -0.6903604 -0.66843957 
0.50022656 -0.53872246 -0.6779023 
0.42706648 -0.65298676 -0.6254778 
-0.24493285 -0.90218604 -0.35506096 
-0.5687792 -0.82043594 -0.058095675 
-0.1086152 -0.7302734 -0.6744654 
0.4001784 -0.7546455 -0.51996857 
0.13119361 -0.6948272 -0.7071093 
-0.30762818 -0.82974005 -0.46572137 
0.14473519 0.07757714 -0.9864247 
0.4856593 0.054385073 -0.87245476 
0.55843365 -0.40973705 -0.7212957 
0.4185096 0.24087708 -0.8756872 
0.5352455 -0.25212526 -0.80619174 
0.35823393 -0.39231092 -0.84720755 
0.47963887 -0.75663227 -0.44435847 
0.52079433 -0.84525466 0.119657174 
0.33514783 -0.87096274 0.3593048 
0.57076305 0.027078697 -0.8206683 
0.22222045 -0.10855749 -0.9689341 
0.049483407 0.061797205 -0.99686134 
-0.03186568 0.10051114 -0.9944256 
0.4367004 -0.18373887 -0.88064337 
0.20127654 -0.66021144 -0.72360814 
-0.045318604 -0.6716062 -0.7395211 
0.7007048 -0.56659406 -0.43357122 
0.62488794 -0.40345824 -0.66838354 
0.1845455 -0.86522806 -0.46617982 
0.045287065 -0.9439833 0.32687107 
0.11486201 -0.84984505 -0.5143637 
0.7555593 -0.6030305 -0.25589892 
-0.20273161 -0.9696391 0.13674746 
0.0058551645 -0.9443924 -0.3287685 
-0.3201278 -0.70444816 -0.6334596 
-0.5305402 -0.61189544 -0.5866098 
-0.4667455 -0.119330116 -0.87630415 
-0.22125964 -0.73650247 -0.6392248 
0.26942167 -0.41441557 -0.8692938 
0.38552022 0.08898232 -0.9183988 
0.09456708 -0.43061364 -0.8975684 
0.047759794 0.29371357 -0.9546997 
0.062307917 -0.34800792 -0.9354188 
0.30167785 -0.07846751 -0.9501754 
0.188089 -0.0477471 -0.98099077 
0.2720765 -0.02967253 -0.9618181 
0.24663739 0.004892823 -0.9690955 
0.49341878 -0.14484635 -0.85764647 
0.44093964 -0.15054706 -0.8848208 
0.19835153 -0.94578964 -0.2571742 
0.08589836 -0.5835711 -0.80750626 
0.5697411 -0.6628737 -0.4857917 
-0.6053971 -0.7658224 -0.21681933 
0.09117815 -0.8375707 -0.53866667 
0.4420874 -0.39340433 -0.8060966 
0.41358623 0.31061268 -0.8558424 
0.5277207 0.3058269 -0.7924524 
0.030495176 -0.8372644 0.5459473 
0.22819306 -0.8896355 0.39557117 
-0.6482544 -0.730139 -0.21601696 
-0.93168 -0.3604829 -0.04499353 
-0.5577773 -0.6107732 -0.561997 
-0.8328851 -0.467801 -0.29574442 
-0.89012414 -0.13195409 -0.43619624 
-0.5424906 0.17035411 -0.82260776 
-0.09641045 0.25428653 -0.9623115 
-0.7842147 0.2336841 -0.5748035 
-0.6292445 0.5836253 -0.513257 
0.04677701 -0.5138497 -0.85660404 
-0.27577126 -0.6003168 -0.75071305 
0.15341802 -0.8162229 -0.5569948 
0.8514622 -0.15722872 -0.50029117 
0.69857544 -0.7101168 -0.08790059 
0.2231872 -0.7562461 -0.61504424 
-0.7519716 -0.3170782 -0.5779275 
-0.92162967 -0.19771293 -0.3339287 
-0.42919996 -0.108836815 -0.89662814 
-0.2893342 0.4525201 -0.84351134 
-0.3299266 -0.42730832 -0.8417577 
0.098575816 -0.05508269 -0.99360394 
-0.0072973566 -0.20348722 -0.9790505 
0.28602317 -0.5630631 -0.7753391 
0.20708638 0.05323563 -0.97687316 
0.20070049 -0.29938108 -0.9327863 
0.3177963 0.15282245 -0.93576217 
0.13302986 -0.36700028 -0.92065954 
-0.4743831 -0.037452545 -0.87952155 
0.17771478 0.018749006 -0.98390347 
-0.40475425 -0.08424493 -0.9105366 
-0.31501544 -0.9200393 -0.23300876 
-0.506799 -0.560713 -0.6547944 
-0.41898638 -0.08806274 -0.903712 
-0.14902109 -0.27985036 -0.94840735 
-0.2752327 -0.6894665 -0.66998726 
-0.16598855 -0.8046227 -0.5701141 
0.29999718 0.1818522 -0.93644625 
0.4378019 -0.05372812 -0.89746463 
-0.5285479 0.20792009 -0.8230471 
-0.41485298 -0.5450083 -0.72860354 
-0.3253494 -0.4961953 -0.804946 
0.59407395 -0.06820059 -0.80151415 
0.54810435 -0.5824586 -0.6002696 
0.40724808 -0.623177 -0.6676822 
0.27074426 -0.6361954 -0.72246313 
-0.40113375 0.21786107 -0.8897349 
-0.058085717 -0.82725316 -0.5588188 
0.25079885 -0.85627836 -0.4515388 
-0.016917646 -0.67743427 -0.73538876 
0.06627494 -0.18738323 -0.9800486 
0.1870994 -0.76506376 -0.6161748 
0.046636026 0.405885 -0.9127336 
0.39332256 -0.22574918 -0.89125454 
0.28079996 -0.014086459 -0.959663 
0.20572254 -0.42773333 -0.8801832 
-0.21087328 -0.15896921 -0.96450055 
-0.35524446 -0.052394297 -0.93330395 
0.43784502 -0.7182884 -0.5406973 
0.51250684 -0.3850198 -0.7675262 
0.19762152 -0.3409412 -0.91907835 
-0.16267626 -0.3034086 -0.9388715 
0.41997546 -0.71632826 -0.55722034 
0.06564323 -0.64159596 -0.76422876 
0.015550705 -0.33538038 -0.94195443 
0.18005604 -0.26390627 -0.9475935 
-0.7298504 -0.47578934 -0.4908594 
-0.09355293 0.07472227 -0.99280643 
0.5020398 0.45759872 -0.7338662 
0.94575757 0.09642371 -0.3102341 
0.80776036 0.5782554 -0.11464758 
0.9314213 0.30250937 -0.20234285 
0.74382913 -0.254921 -0.617846 
-0.26297578 -0.46729055 -0.8440873 
-0.4301507 -0.3168979 -0.8453083 
0.18122187 -0.73341155 -0.6551841 
-0.15677385 -0.77508223 -0.6121027 
0.5247185 -0.7115398 -0.4673131 
0.007947154 -0.16966094 -0.9854705 
-0.35918996 0.012001463 -0.9331873 
-0.4833389 0.3192888 -0.8151308 
-0.2763791 -0.4144899 -0.8670714 
0.26739416 -0.33256605 -0.9043784 
-0.6680344 0.2147326 -0.7124746 
-0.8119102 0.22514537 -0.53861994 
-0.21012524 -0.76167744 -0.6129395 
0.020322533 -0.84610456 -0.53262943 
-0.38408214 -0.27769688 -0.8805484 
-0.46616614 -0.51847005 -0.7168529 
0.063434884 -0.1858949 -0.9805199 
0.19683126 0.12951064 -0.97184587 
-0.38498273 -0.11902443 -0.9152166 
-0.3269741 -0.93491715 -0.13790564 
-0.5210012 -0.7895202 -0.3243694 
-0.23630373 -0.97164595 0.008045423 
-0.395451 -0.9183562 -0.015510975 
-0.10499719 -0.68860704 -0.7174929 
-0.40836918 -0.74651206 -0.52531356 
0.057437167 -0.7660996 -0.64015025 
0.691982 0.39932728 -0.601414 
0.60988885 -0.44513726 -0.65565884 
0.54482037 -0.22066249 -0.80899876 
0.055259153 -0.31042096 -0.9489918 
0.37154794 -0.6410973 -0.67152554 
0.5888204 -0.32555127 -0.739802 
0.8051138 -0.52109313 -0.28329086 
-0.42354038 -0.29190066 -0.8575591 
-0.34437189 -0.27209157 -0.89854 
0.469377 0.46435317 -0.7510403 
0.07670863 0.3502652 -0.9335042 
0.018287221 0.67533267 -0.7372865 
-0.25810456 0.12610069 -0.9578522 
-0.4621368 0.007904575 -0.88677347 
0.31990647 0.40683538 -0.8556547 
0.56061274 -0.49424106 -0.664409 
0.7749474 -0.5913354 -0.22311199 
0.5578528 -0.67638904 -0.4809347 
-0.039789394 -0.8875077 -0.4590719 
-0.05990132 -0.30921084 -0.9491051 
0.16926855 0.59993744 -0.78193563 
0.016414264 -0.03332876 -0.99930966 
0.7351274 -0.10346859 -0.6699866 
0.3359402 -0.75147617 -0.5678273 
0.37055048 -0.887422 -0.27417973 
-0.15016678 -0.7450263 -0.6499122 
-0.44043362 -0.42781153 -0.7893007 
0.20638531 -0.7492047 -0.6293627 
-0.59117454 -0.48154333 -0.6470153 
0.08024063 -0.3607731 -0.92919546 
-0.063814126 -0.730988 -0.6794 
0.26522294 -0.3931855 -0.88037604 
0.3462154 -0.25545105 -0.90270686 
0.13685429 0.19237512 -0.9717319 
0.56776017 -0.018048404 -0.82299614 
-0.19515595 -0.076301515 -0.9777998 
-0.11715934 -0.9881514 -0.099149495 
0.07604248 -0.9764693 -0.20180494 
-0.37843466 -0.9250596 -0.03243142 
-0.3895317 -0.8446088 -0.36728883 
-0.009230905 -0.32321313 -0.9462812 
0.09309622 -0.038365416 -0.99491775 
0.22763216 -0.5600646 -0.7965621 
0.19294418 0.1379816 -0.97145957 
0.36629853 0.4219163 -0.82934445 
0.1944477 0.9127861 -0.35918182 
0.09857101 0.8483785 -0.52013236 
-0.7778206 0.17201762 -0.6044875 
-0.21776453 -0.31029075 -0.92536384 
-0.13318439 0.03570369 -0.990448 
-0.31501842 0.14888702 -0.9373346 
0.070786834 -0.38076806 -0.92195714 
0.056691933 0.045226313 -0.9973669 
0.74597555 0.12020014 -0.6550362 
0.67774683 -0.58447284 -0.44615105 
0.080553494 -0.7123822 -0.69715345 
0.02550697 0.0556484 -0.9981246 
0.6549394 -0.25248656 -0.71225345 
0.40148255 -0.5810191 -0.707975 
0.071012974 -0.99588954 0.05622463 
0.36369184 -0.26445523 -0.8931919 
0.07056176 -0.025889734 -0.9971714 
0.032980748 -0.6032382 -0.796879 
0.5071263 -0.8361129 -0.20913696 
0.24223408 -0.96783787 0.06791623 
0.5864024 -0.8054959 -0.08549056 
0.4510234 -0.69938785 -0.5544679 
0.27703598 -0.3836072 -0.8809635 
0.52548355 -0.5497253 -0.64936066 
-0.35536954 -0.7339786 -0.5787815 
0.22066325 -0.20386755 -0.953806 
-0.056249462 -0.62888795 -0.7754586 
-0.20663175 -0.56429434 -0.7992968 
0.25360623 -0.67406315 -0.6937743 
0.4006585 -0.91571105 0.030759467 
-0.084715 -0.8129902 -0.57608193 
-0.5060358 -0.6852325 -0.5238169 
-0.6915681 -0.72086895 -0.045626104 
-0.465391 -0.8284013 -0.31170878 
-0.4892317 -0.35952365 -0.7946038 
-0.21665667 -0.468747 -0.85635054 
0.30996206 -0.730788 -0.6081714 
-0.51918125 -0.3142823 -0.79478145 
-0.3534902 -0.5436817 -0.76121944 
-0.7525892 0.19915976 -0.6276504 
-0.01134446 -0.09109425 -0.99577767 
-0.11536917 -0.10739294 -0.98750025 
-0.53861517 -0.45423847 -0.7096205 
0.19310592 -0.02291487 -0.9809103 
0.48087722 -0.5863392 -0.65189224 
0.6705549 -0.05990536 -0.7394373 
0.23331363 -0.60368395 -0.7623192 
0.34194592 -0.25899675 -0.9033237 
-0.6160623 -0.77768993 0.12516205 
0.13450168 -0.42581743 -0.8947564 
-0.37874046 -0.49473676 -0.7821709 
-0.33244568 0.10505702 -0.9372528 
0.015330953 -0.33457834 -0.94224334 
-0.13890922 -0.22110721 -0.96530616 
0.38194492 -0.11199054 -0.9173747 
0.40705457 -0.6647193 -0.6264623 
0.27857652 -0.9603866 0.007275117 
-0.085292436 -0.9962191 -0.016519403 
-0.3203641 -0.6700869 -0.66958976 
-0.16821133 -0.46333084 -0.8700745 
0.06091919 -0.3887592 -0.91932327 
0.10534975 -0.55287385 -0.8265785 
0.3520935 -0.86399585 0.3599187 
-0.78446555 -0.366592 -0.5002241 
-0.74546385 -0.00861202 -0.6664905 
0.36776823 0.9220587 -0.1206416 
0.69287366 0.50497085 -0.5147142 
0.51315707 -0.21773925 -0.8302165 
0.6229938 -0.52548033 -0.5794386 
0.56644094 -0.056288514 -0.82217777 
0.78776586 -0.61491334 0.03614576 
0.36428457 -0.92834127 -0.074022554 
0.5547997 -0.65339303 -0.51504844 
-0.06548434 -0.17633845 -0.98214895 
0.5058208 -0.15222281 -0.8491016 
0.076399885 -0.55845696 -0.8260079 
-0.119825765 0.2793848 -0.9526731 
-0.13046785 -0.33668047 -0.9325366 
-0.16611116 0.045453284 -0.98505896 
-0.21863982 -0.34380856 -0.9132319 
0.77808386 -0.43230885 -0.4557354 
0.19049703 -0.42240286 -0.88616407 
-0.191476 -0.10238716 -0.97614235 
0.7178642 -0.33903882 -0.6080491 
0.24384364 -0.12184633 -0.96212983 
-0.2521348 -0.79931045 -0.54546404 
-0.12068108 -0.6977833 -0.7060698 
-0.13496922 -0.44709787 -0.8842436 
0.020146519 -0.7623285 -0.64687663 
-0.3180887 -0.61778164 -0.7191422 
-0.6232996 -0.53392214 -0.571336 
0.012733259 -0.4320503 -0.9017597 
0.19843692 -0.91963756 -0.3389537 
-0.17147404 -0.8526236 -0.49358857 
0.22159426 -0.73031104 -0.6461748 
-0.10286569 -0.4328649 -0.8955705 
0.2743441 -0.42647353 -0.8618908 
0.17342232 -0.6676645 -0.72398126 
0.34500074 -0.44850257 -0.82451195 
0.049080055 0.6588113 -0.75070566 
-0.12081267 0.42452064 -0.89732194 
0.093531884 0.08290816 -0.9921583 
0.4527207 0.0740032 -0.88857615 
0.44677764 -0.15458016 -0.8811894 
0.61893827 -0.42853555 -0.65823454 
0.07976924 0.26822382 -0.9600484 
-0.013043377 -0.50517076 -0.8629208 
-0.37316376 -0.33168486 -0.8664492 
-0.1423974 -0.16113506 -0.9766056 
0.18946916 0.10729962 -0.97600627 
0.074493565 0.58788055 -0.80551046 
-0.86808366 -0.20834002 -0.45058334 
-0.6243994 -0.7752358 -0.095576495 
-0.28344738 -0.84496063 -0.45354077 
-0.71515006 -0.6586852 -0.23386803 
-0.0043816343 -0.8743381 -0.48529762 
0.22868475 -0.8596139 -0.4569105 
-0.20202015 -0.04511887 -0.9783416 
-0.3736634 0.6360218 -0.6751682 
-0.32174054 -0.53202885 -0.7832167 
-0.43283123 -0.22812453 -0.87213326 
0.25033095 -0.44698694 -0.8587999 
0.17224431 -0.6429732 -0.74626905 
0.27696922 -0.59250003 -0.75646 
0.10279215 -0.2610253 -0.9598435 
0.25963482 -0.70639694 -0.65847796 
-0.4823326 -0.7558671 -0.4427416 
-0.16175734 -0.9475496 -0.2756527 
-0.35719424 0.02301271 -0.93374664 
-0.8309907 0.28912827 -0.47524652 
-0.2506728 0.25962958 -0.9326069 
0.13506544 0.4709143 -0.8717782 
0.08206189 0.43404993 -0.89714354 
0.58123577 0.056952503 -0.8117398 
0.068419024 0.5141139 -0.85498875 
-0.124803126 -0.014077016 -0.9920817 
0.5794198 -0.4098787 -0.7044659 
0.27144608 -0.39264986 -0.8787168 
0.0532051 -0.58482444 -0.80941325 
0.1840486 -0.26136246 -0.9475315 
-0.43658876 0.2451164 -0.865626 
0.21326101 0.48142308 -0.8501481 
-0.2515852 0.19839202 -0.94728327 
0.098822854 -0.6024349 -0.79202664 
-0.122868694 0.3147114 -0.94120145 
-0.22953942 -0.17217837 -0.95794904 
-0.04283387 0.046180885 -0.99801433 
-0.22448021 -0.21404284 -0.950681 
0.36736616 -0.37004527 -0.85329276 
0.5043646 0.32410124 -0.8003592 
0.16197377 0.5842278 -0.7952625 
-0.5023214 0.35134122 -0.790084 
-0.4697828 -0.09234051 -0.8779393 
-0.4926649 0.037704848 -0.8694019 
-0.60294867 0.5931229 -0.53353375 
0.16223904 -0.8145982 -0.5568737 
0.0943544 -0.62772685 -0.77269423 
0.2443393 -0.35887274 -0.9008378 
0.13755055 -0.17856582 -0.974266 
0.4805543 -0.78099936 -0.3988829 
0.3530824 -0.8663047 -0.35333985 
-0.3743201 -0.80321306 -0.46339318 
0.3640031 -0.8027152 -0.4723876 
0.074929535 -0.2629372 -0.96189904 
0.24153556 0.24612835 -0.93865937 
0.31056607 0.1873037 -0.9319153 
-0.513377 0.6027985 -0.6108011 
-0.020298546 -0.23514345 -0.97174877 
0.3835097 0.18638968 -0.9045326 
0.43470705 0.51663065 -0.7376467 
0.24236481 -0.19066982 -0.9512647 
0.2108529 -0.5160784 -0.8301832 
0.49995014 -0.21557833 -0.83879435 
0.26541165 0.23817126 -0.9342543 
0.7103446 -0.7034307 0.024410807 
-0.4726224 -0.3489909 -0.8092178 
0.5734362 -0.34028152 -0.7452378 
0.19779204 -0.1730219 -0.9648532 
-0.5585472 -0.43414316 -0.7067849 
0.10377406 0.2810741 -0.9540588 
0.5845241 0.80117744 -0.12824306 
0.6872724 0.608769 -0.39630404 
0.6288299 0.68817276 -0.36192718 
0.58171797 0.6306641 -0.51368 
0.66536385 0.7271912 -0.168772 
-0.07411105 -0.027566446 -0.9968689 
0.28083047 -0.15178463 -0.94767916 
-0.08914414 -0.11107911 -0.9898054 
-0.17665753 -0.036626536 -0.98359066 
-0.31136 -0.87496537 -0.37079722 
-0.20707162 -0.86163175 -0.46337053 
-0.3793962 -0.4725198 -0.7954771 
-0.0031883633 -0.35591847 -0.9345116 
-0.34749153 -0.17876568 -0.9204849 
-0.49296224 -0.13461013 -0.8595745 
-0.16551663 0.0048741563 -0.98619497 
-0.17951524 0.36077356 -0.91521406 
0.7047107 -0.4448779 -0.55269027 
0.68376607 -0.20581497 -0.7000744 
0.48215455 -0.33685207 -0.8087384 
0.2883191 -0.46139857 -0.83903724 
0.032701682 -0.35855857 -0.93293434 
-0.34042934 0.18301345 -0.9222874 
-0.0062375846 0.014802416 -0.999871 
-0.037698366 -0.6922973 -0.7206271 
0.23047905 -0.7659997 -0.6001033 
-0.34795642 -0.81407636 -0.46497968 
0.061804347 -0.6119342 -0.78849024 
-0.0010352118 -0.6205032 -0.7842033 
-0.13828683 -0.6526851 -0.744902 
0.5506032 -0.59432274 -0.5861882 
-0.24416833 -0.94587594 -0.21377714 
0.68219995 -0.7044165 -0.19596067 
0.27205306 -0.5448712 -0.7931598 
0.36428615 -0.7981897 -0.47978017 
-0.00090003177 -0.62556744 -0.78016955 
0.27473968 -0.5312995 -0.8013981 
0.31308997 -0.5797125 -0.75226873 
-0.40931946 0.19498257 -0.8913133 
0.011635397 -0.14016274 -0.9900601 
0.33113855 -0.17452988 -0.9273007 
0.25119177 -0.31930992 -0.91375273 
-0.5981589 -0.16293019 -0.78463984 
0.007767607 0.18923634 -0.98190093 
0.72969586 -0.39457795 -0.5584373 
0.6650261 -0.24691959 -0.70481986 
0.38491443 -0.9000281 -0.20442714 
-0.17951879 -0.72765344 -0.66203743 
-0.18711583 -0.6876837 -0.7014833 
-0.23312071 -0.47967315 -0.84591275 
0.2629379 -0.33997175 -0.90293014 
0.84495705 -0.49201572 -0.20968607 
0.68744075 -0.51235956 -0.51469696 
0.40309626 -0.045059513 -0.9140477 
-0.05709689 -0.50671244 -0.8602223 
0.38660747 -0.71837556 -0.578335 
-0.21592143 -0.96416885 -0.1541309 
0.101055 -0.6292345 -0.7706178 
-0.69953406 -0.35343462 -0.6210766 
-0.8910023 -0.08505675 -0.4459599 
0.029359614 -0.3597347 -0.9325927 
-0.3510018 -0.04825871 -0.9351304 
0.022681396 -0.22784348 -0.97343355 
-0.06384848 -0.23668472 -0.9694864 
0.21619655 -0.42240658 -0.88024527 
-0.44150665 -0.4785976 -0.7589574 
0.04499916 0.4301066 -0.9016559 
0.30941504 -0.5485052 -0.77679116 
0.45742464 -0.7619996 -0.45838776 
0.5318282 -0.8038492 -0.26643088 
0.46453327 -0.51679885 -0.71911603 
0.03051857 -0.38021553 -0.9243943 
0.60060775 -0.5506073 -0.5797431 
0.25206053 -0.20889467 -0.94489604 
-0.380498 0.19253054 -0.9045183 
0.7066795 0.12985036 -0.69551635 
0.42617658 0.145695 -0.89283067 
-0.6383266 0.28005776 -0.71701247 
-0.69677556 -0.46522617 -0.5459565 
-0.3733053 -0.61991465 -0.6901805 
-0.17106602 -0.46027818 -0.87113756 
0.18168394 -0.19909509 -0.96299124 
-0.43672717 0.14073485 -0.88851744 
0.057638105 -0.31839573 -0.94620407 
0.62403965 0.43820688 -0.6469538 
0.56295294 -0.6858419 -0.46119955 
0.4497104 -0.09264084 -0.88835716 
0.2563019 0.051880207 -0.96520346 
-0.5408842 -0.2340242 -0.8078843 
-0.35088107 -0.88189787 -0.31486285 
-0.36023006 -0.7483077 -0.55701876 
0.06280389 -0.47077364 -0.8800159 
-0.37580034 -0.8327794 -0.40651286 
-0.07503492 -0.7622172 -0.64295775 
0.089715876 -0.45855212 -0.8841273 
0.6009557 -0.70958245 -0.36789265 
0.4689752 0.098909594 -0.8776556 
0.48038042 -0.35933554 -0.80007046 
-0.09243045 -0.03002101 -0.9952665 
0.9225347 -0.24248265 -0.30021966 
-0.6052872 -0.5446181 -0.580533 
0.2220783 -0.5437694 -0.80931836 
0.18965848 -0.90564036 -0.3792694 
-0.32612842 -0.5734145 -0.75155586 
-0.30613956 -0.672591 -0.673721 
0.048385344 -0.8712043 -0.4885304 
-0.03596058 -0.7713244 0.6354254 
-0.19637541 -0.73175114 -0.6526691 
-0.23470974 -0.72005075 -0.6530224 
-0.5237715 -0.40541267 -0.74920225 
0.021908509 0.021312747 -0.9995328 
0.07432902 -0.507698 -0.8583228 
-0.32800257 0.48792133 -0.8089173 
-0.5930185 -0.14711048 -0.7916361 
-0.86940545 0.0062150205 -0.49406022 
-0.2680243 0.33749956 -0.902362 
-0.44823182 -0.15600431 -0.88019943 
0.17549175 -0.20929213 -0.9619768 
0.9226601 -0.21642117 -0.31915548 
0.54128027 -0.21768424 -0.8121757 
0.69502676 -0.060807243 -0.71640795 
0.49695462 -0.2034504 -0.8435901 
0.30319014 -0.45256093 -0.8386087 
0.091010295 -0.73195267 -0.67524993 
-0.15764466 -0.7282157 -0.66697085 
-0.03605972 -0.84080964 -0.54012865 
-0.94063616 -0.0557397 -0.33480862 
-0.383606 0.29276136 -0.8758638 
-0.2818678 0.16258016 -0.9455783 
-0.35350052 0.31082088 -0.88228554 
-0.13604087 -0.5461555 -0.8265635 
0.21158978 -0.8111641 -0.5451997 
0.09826144 -0.9946606 0.031543817 
-0.3730709 -0.7928894 -0.4818137 
-0.17850667 -0.6970148 -0.6944823 
0.45660114 -0.634423 -0.62371707 
0.36289486 0.23234278 -0.9023992 
0.343544 -0.7555025 -0.5578472 
-0.46885765 -0.773888 -0.4257582 
-0.07775792 -0.4226207 -0.90296483 
-0.07658084 -0.5724946 -0.81632435 
0.45743784 0.07251356 -0.8862801 
0.610317 -0.2946496 -0.73531955 
0.32766467 0.08630479 -0.94084406 
0.59075344 -0.14356382 -0.79397726 
0.83525276 -0.51752156 -0.18580759 
0.91340125 0.07619947 -0.3998647 
0.75538045 -0.53028303 -0.384968 
0.79825205 -0.09141419 -0.5953464 
-0.6375933 -0.60441196 -0.47766212 
-0.363099 0.60483927 -0.70875144 
-0.1531131 0.6176827 -0.7713784 
0.23374663 0.69749 -0.67739964 
0.37379804 -0.42016816 -0.82688195 
-0.076773845 -0.74067014 -0.6674681 
0.4719857 -0.70363677 -0.53115433 
0.2174724 0.17739326 -0.9598112 
-0.04097555 -0.28387952 -0.95798415 
-0.43669593 0.05519201 -0.8979146 
-0.28779325 0.054932777 -0.95611584 
0.13773765 0.18494417 -0.97304887 
-0.053636882 -0.45309946 -0.8898449 
-0.25549433 -0.5459411 -0.7979167 
-0.90562344 -0.024366094 -0.42338222 
-0.50739455 -0.17383204 -0.8439984 
-0.072148986 -0.21025503 -0.9749807 
0.09563341 -0.09280231 -0.99108124 
0.6394214 -0.06089518 -0.7664413 
0.005372505 -0.65695626 -0.7539096 
0.33987328 -0.93223923 -0.12416222 
0.5515602 -0.76487887 -0.33277863 
0.38664854 -0.72328967 -0.57214946 
0.6226564 0.24837261 -0.7420311 
0.26851204 0.60159785 -0.7523173 
0.16198018 0.8252632 -0.5410206 
-0.090666816 0.4955022 -0.86386186 
0.42280906 0.7923134 -0.43985444 
-0.0015894728 0.46194854 -0.8869053 
0.23743477 -0.02649202 -0.97104216 
-0.23606911 -0.47452113 -0.84799826 
0.07028943 -0.42095706 -0.9043532 
-0.116959795 -0.2144443 -0.96970826 
0.28189832 -0.31640214 -0.9057721 
0.28822204 -0.35416475 -0.8896603 
-0.43096006 -0.2116322 -0.87720317 
0.1718528 0.00859494 -0.9850852 
-0.6991597 0.03866659 -0.7139193 
-0.38537556 0.23433465 -0.89250934 
-0.613144 0.008813601 -0.789922 
0.25092244 -0.17430949 -0.95218396 
0.5433435 -0.0155816 -0.83936596 
-0.406625 -0.12480771 -0.90502995 
-0.8062757 -0.24467279 -0.53856736 
-0.5458763 -0.251056 -0.79936844 
-0.44939628 0.011184817 -0.89326257 
-0.28982237 -0.37870553 -0.87896824 
-0.461496 -0.28103793 -0.84145063 
-0.08953509 -0.4963424 -0.8634974 
-0.017001025 0.1236359 -0.992182 
0.008696119 0.15087801 -0.9885142 
-0.10529506 0.09762151 -0.9896379 
-0.029396825 -0.12339521 -0.9919221 
-0.20604606 -0.2369168 -0.9494291 
0.109530576 -0.53572893 -0.8372561 
0.2797963 0.23410079 -0.9310805 
0.17872716 0.015544544 -0.983776 
0.24597086 -0.73369354 -0.63339734 
-0.14729992 -0.15310752 -0.9771698 
0.396189 0.38327134 -0.83434856 
0.1254025 0.3706967 -0.920249 
0.7120031 -0.13445427 -0.6891833 
-0.23447612 -0.25769445 -0.9373445 
0.2543154 -0.4794081 -0.8399354 
0.17672786 -0.5235523 -0.8334629 
-0.7138309 -0.01678827 -0.7001169 
-0.11264446 -0.11486048 -0.9869743 
0.028233381 0.16203234 -0.9863815 
-0.4813601 0.4011338 -0.77934855 
0.08287636 0.44076443 -0.8937887 
-0.001183062 0.21251637 -0.9771568 
0.24853362 -0.6299974 -0.7357543 