# OOMMF: rectangular mesh v1.0
# Segment count: 1
# Begin: Segment
# Begin: Header
# Desc: Time (s) :  7.630000000000018e-07
# Title: m
# meshtype: rectangular
# meshunit: m
# xbase: 2e-09
# ybase: 2e-09
# zbase: 5e-10
# xstepsize: 4e-09
# ystepsize: 4e-09
# zstepsize: 1e-09
# xmin: 0
# ymin: 0
# zmin: 0
# xmax: 1.024e-06
# ymax: 1.024e-06
# zmax: 1e-09
# xnodes: 256
# ynodes: 256
# znodes: 1
# ValueRangeMinMag: 1e-08
# ValueRangeMaxMag: 1
# valueunit: 
# valuemultiplier: 1
# End: Header
# Begin: Data Text
-0.88674754 0.4508682 -0.101964004 
-0.37040454 0.45111185 -0.811972 
-0.6371289 -0.13958582 -0.75801224 
-0.2724949 -0.43622637 -0.85758567 
-0.020424789 -0.74977434 -0.6613784 
0.9192768 0.11303558 -0.37703204 
0.75545746 -0.19475892 -0.6255823 
0.72247964 -0.05325008 -0.68933856 
0.3977795 -0.8221572 -0.4072211 
0.051617518 -0.35046315 -0.935153 
0.34463996 -0.8322138 -0.4343313 
-0.06829259 -0.8354619 -0.5452886 
0.042339504 -0.7245443 -0.6879266 
0.48711774 -0.41092816 -0.77061945 
-0.14083922 -0.7026698 -0.6974379 
-0.7266745 -0.6553896 -0.2059338 
-0.22996783 -0.8579428 -0.45940083 
0.7143143 -0.5724091 -0.4026201 
0.8156557 -0.54802054 0.18541709 
-0.09851462 -0.84432775 -0.526693 
0.28348196 -0.59961253 -0.7484003 
0.34938684 -0.70852506 -0.613124 
-0.6494409 0.036640696 -0.7595289 
0.04649265 -0.20741162 -0.9771484 
-0.46678734 -0.77128226 -0.43270475 
-0.4939282 -0.83678234 -0.23628435 
-0.7787485 -0.42639026 -0.46015468 
0.007216003 -0.22382581 -0.97460246 
-0.123786256 -0.5060118 -0.85359776 
0.67341316 -0.3383219 -0.65730745 
-0.16978358 -0.74915147 -0.64027005 
-0.12267214 -0.99202645 -0.028899197 
0.33177096 -0.8787631 -0.34307927 
0.9663519 -0.00042482335 -0.25722358 
0.91899407 -0.10484493 0.38007572 
0.6165571 -0.7434911 0.25899476 
0.45351323 -0.81302285 0.3651298 
0.46102473 0.079342075 0.8838332 
0.31399345 -0.65802395 -0.68440676 
0.6027705 0.034595218 -0.7971644 
0.3870916 -0.7998642 -0.45866922 
0.047818664 -0.65544397 -0.7537285 
-0.027319243 -0.7126402 -0.7009976 
-0.050047487 -0.62017584 -0.7828648 
0.03382434 -0.9687238 -0.24582581 
-0.077149674 -0.99429786 -0.07361846 
0.41899005 -0.5072069 -0.7531192 
0.1407264 -0.57324934 -0.80720586 
-0.33100545 0.1124896 -0.93689996 
-0.43935397 -0.6663694 -0.6024285 
-0.4123221 -0.6249093 -0.66293204 
-0.24787915 -0.60586315 -0.7559669 
0.4387733 -0.44840187 -0.7787258 
0.19158182 -0.95639735 -0.22045545 
0.3691405 -0.62318325 -0.6894766 
0.4929231 -0.86721796 0.07042747 
-0.07238618 -0.823009 0.56339717 
-0.252098 -0.9278961 0.27469173 
-0.5150211 -0.28967202 -0.80674875 
-0.22216222 -0.3161555 -0.9223284 
-0.108768396 0.26519665 -0.95803976 
0.10872988 0.33211544 -0.93695104 
0.22228925 -0.9138931 -0.33968648 
-0.015076003 -0.24984695 -0.968168 
-0.115866624 -0.41894364 -0.9005894 
0.3323728 -0.24219674 -0.9115203 
0.6828823 -0.56487 -0.46324256 
0.49446353 -0.2574973 -0.83018124 
0.033485677 0.010386648 -0.9993853 
-0.23559353 -0.22616518 -0.9451694 
0.33991826 -0.3351274 -0.87871796 
0.79145396 -0.36530215 -0.49005607 
0.33091184 -0.26821327 -0.9047426 
-0.31513438 -0.4028195 -0.85931766 
-0.5578626 0.23990093 -0.7945043 
-0.39529338 -0.19217604 -0.89822686 
-0.7388596 -0.3431792 -0.57992643 
-0.4622534 -0.30697206 -0.8319195 
-0.5632532 -0.07846601 -0.82255024 
-0.153355 -0.3425547 -0.9268973 
0.5599587 -0.4323886 -0.70674354 
0.5541683 -0.5295431 -0.6422473 
0.1941418 -0.84186435 -0.5035607 
-0.029640181 -0.7752809 -0.6309209 
0.43517306 -0.3625162 -0.82413983 
-0.87486684 -0.4818696 0.049089253 
-0.69879997 -0.37858522 -0.60692 
-0.02303896 -0.99784946 0.061364803 
-0.2717324 -0.9394227 -0.20891786 
-0.37949565 -0.9217762 -0.079446614 
-0.77371347 -0.3290125 -0.54140407 
-0.9214802 0.031522185 -0.38714424 
-0.9676281 -0.071472466 0.24204838 
-0.8248607 -0.50413823 -0.2558313 
-0.6686051 -0.5005505 -0.549924 
0.15823455 -0.8076856 -0.5679841 
-0.3544006 0.14293782 -0.9241044 
-0.31423682 -0.7045871 -0.6362487 
0.006215357 -0.82070905 -0.5713125 
-0.4528883 -0.4732883 -0.7555728 
-0.8728526 -0.1392039 -0.46770796 
-0.27389005 -0.3436813 -0.8982581 
-0.40787002 -0.25792608 -0.87585175 
-0.2628997 -0.87746483 -0.40117228 
-0.29959217 -0.46149644 -0.8350243 
0.3228791 -0.6529023 -0.6851772 
-0.38020173 -0.41721392 -0.82545704 
-0.5803311 0.041874096 -0.81330335 
0.30241013 0.2410588 -0.92219245 
0.43447542 -0.14953737 -0.8881835 
0.5660534 -0.67411596 -0.47450113 
0.11836367 -0.70327365 -0.7009966 
0.8413607 -0.49332407 -0.22077979 
0.42286122 -0.90581226 -0.026320111 
0.8416802 -0.47025502 0.2653956 
0.53381366 -0.7501633 -0.39025393 
-0.078111686 -0.5435654 -0.8357245 
-0.16264851 -0.9445464 -0.28526774 
0.056095775 -0.59648305 -0.80066305 
-0.07412706 -0.20648181 -0.9756385 
-0.60252184 -0.3158703 -0.73293483 
-0.4232017 -0.7587368 -0.4951959 
-0.19642846 0.0013619341 -0.9805172 
0.65253997 -0.25086957 -0.7150217 
0.7197388 -0.25726494 -0.6448185 
0.22825353 0.19746822 -0.9533659 
-0.043675415 0.41034302 -0.9108848 
-0.08352136 -0.17329231 -0.98132265 
0.39273247 -0.89152896 -0.22569294 
0.019194202 -0.66279024 -0.7485591 
-0.6629243 0.6043951 -0.44185743 
-0.25276366 0.82167953 -0.5108359 
-0.7479102 -0.4786571 -0.4599105 
0.2802717 -0.61436474 -0.7375661 
-0.20768921 -0.57450473 -0.7917131 
-0.18481514 -0.8236134 -0.53619444 
-0.08629483 -0.85477984 -0.5117663 
0.16114019 -0.9253038 -0.34328812 
0.1071665 -0.834243 -0.54088247 
0.16694503 -0.13278484 -0.9769839 
-0.19761291 0.4525676 -0.86955833 
-0.120333485 0.19144158 -0.97409964 
0.8101991 0.26946655 -0.5205433 
0.5272277 -0.35765684 -0.77078694 
0.4075823 0.013582386 -0.9130676 
0.64182967 0.22396116 -0.73341405 
0.4371915 -0.0019637651 -0.8993663 
0.59981483 0.20455085 -0.77355105 
0.69883156 0.23920265 -0.6741044 
0.3454546 -0.58615285 -0.7328615 
0.64208657 -0.56345755 -0.51984656 
0.36795112 -0.83585596 -0.40737817 
0.8845187 -0.4515518 0.11716509 
0.569398 -0.795942 0.205578 
0.12847658 -0.9890912 -0.072058566 
0.5371006 -0.83708245 -0.10399952 
-0.68616414 -0.5402112 -0.48718646 
-0.5372029 -0.8417848 0.053023383 
-0.23512347 -0.92716795 -0.2916788 
-0.5961021 -0.4873628 -0.63807505 
-0.89573056 0.041084338 -0.442695 
-0.7536357 0.6114279 -0.24122454 
-0.9361972 -0.3506915 0.023459533 
-0.32541093 -0.3078671 0.89405006 
-0.5289124 -0.12136974 0.8399531 
-0.9414049 0.31419003 0.12264408 
-0.5086796 -0.3424948 -0.7899003 
-0.16828215 -0.62476766 -0.7624609 
-0.46376163 -0.75675774 -0.46069837 
-0.4154483 -0.90139383 -0.12203274 
0.44604778 -0.8811447 -0.15692498 
0.38698208 -0.9117895 -0.13742201 
0.41893077 -0.9079493 -0.011181699 
-0.07308601 -0.76151615 -0.6440123 
-0.2597762 -0.50312656 -0.8242451 
-0.74818 -0.6395115 -0.1767815 
-0.17005096 -0.9088438 -0.3809011 
-0.18252161 -0.33797517 -0.9232869 
-0.31514052 0.021905407 -0.9487922 
-0.29193446 -0.64316034 -0.7078976 
0.27320704 -0.52696675 -0.8047758 
-0.32092455 -0.80668133 -0.49625868 
-0.4838831 -0.85958546 -0.16422558 
0.5039949 -0.78493696 -0.36036548 
0.401083 -0.12260857 -0.9077994 
0.11785727 0.21926378 -0.9685211 
0.2439235 -0.33974317 -0.9083369 
-0.3698176 -0.8515492 -0.37161678 
0.27291104 -0.6247891 -0.73154503 
-0.22084267 -0.35568365 -0.9081397 
0.46923897 -0.8353893 -0.2862508 
0.5501934 -0.111017436 -0.8276246 
0.64220625 0.116517656 -0.7576245 
0.012657213 -0.49009988 -0.87157446 
-0.16273293 0.09291326 -0.9822857 
-0.18749736 -0.058662403 -0.98051184 
0.2555363 -0.099030025 -0.96171427 
0.3867824 0.5631456 -0.73025095 
0.114910305 0.36653745 -0.92328006 
0.46283066 0.20028646 -0.8635237 
0.91611105 -0.3075118 -0.25724936 
0.36001107 -0.44071242 -0.8222924 
0.014768714 -0.89250916 -0.4507875 
0.40722516 -0.6922717 -0.595758 
0.11047443 -0.99116504 0.07339929 
0.0637628 -0.91762525 0.3922986 
0.15255383 -0.8588309 0.48901623 
-0.7080004 -0.6383422 0.3020839 
-0.69984275 -0.4769281 0.53175163 
-0.23474436 -0.50903934 -0.8281148 
-0.01654456 -0.79786325 -0.6026114 
-0.023523724 -0.8206657 -0.5709241 
0.30933088 -0.9499743 -0.04316532 
-0.065000676 -0.6423802 -0.7636247 
0.38317382 -0.27415308 -0.8820533 
-0.093848825 -0.541956 -0.8351504 
0.34955543 -0.7495624 -0.56210965 
0.16696434 -0.7866538 -0.5943894 
0.43787476 -0.89902824 -0.0037253683 
0.34381106 -0.9390148 -0.0067271115 
-0.89366627 0.36421007 -0.2621292 
-0.9561892 -0.27706644 -0.09453192 
-0.5286986 -0.23634565 -0.81524134 
-0.5567183 -0.8303747 0.023295164 
0.40631026 -0.47474888 -0.78072107 
0.05130474 -0.9897445 -0.13331823 
-0.15871446 -0.91653043 -0.36712638 
-0.3652237 -0.8983874 -0.24395056 
-0.47974926 -0.5887333 -0.6505643 
-0.3482931 -0.883292 -0.31382656 
-0.59008336 -0.68127286 -0.4332078 
0.02059315 -0.7978404 -0.6025169 
0.2771379 -0.9225043 -0.26866427 
-0.29971448 -0.67160344 -0.67758405 
0.2659319 -0.8897584 -0.37095872 
0.17989458 -0.9200031 0.34818426 
0.14006154 -0.23655254 -0.9614706 
0.04691073 -0.88259304 -0.46779165 
0.773485 -0.6038637 -0.19253485 
0.3217353 -0.7579781 0.5674115 
0.2762974 -0.8147179 0.5097985 
-0.30404583 -0.9481461 -0.092601985 
0.48582348 -0.83381414 0.26216328 
-0.33253977 -0.7521706 0.5689084 
-0.63911974 -0.6181355 -0.45764017 
-0.7560516 -0.45532325 -0.47017723 
-0.63495535 -0.16958223 -0.7537065 
0.3360804 0.1345754 -0.9321692 
-0.36635557 0.072771594 -0.92762494 
0.027966155 -0.24497145 -0.96912694 
0.037968628 -0.57585675 -0.81666857 
-0.08058288 -0.9967405 -0.0038392472 
-0.61667174 -0.58531487 0.5264243 
-0.3046051 -0.35064605 0.8855863 
0.32533786 -0.94500464 0.033490025 
0.23110062 -0.95583326 0.181591 
-0.59605193 -0.7914475 -0.13539994 
-0.74936986 -0.17876267 -0.6375648 
-0.47192806 -0.20555013 -0.8573408 
-0.2603883 -0.30876485 -0.9148018 
-0.51696706 -0.46936762 -0.7158486 
0.059371885 -0.9659176 -0.25194904 
-0.4314632 -0.5338346 -0.7272278 
-0.12863898 -0.8527729 -0.50619227 
-0.14746702 -0.11566662 -0.9822804 
-0.08402092 -0.71277446 -0.69634265 
0.40724406 0.08982502 -0.90889156 
0.8883485 0.16578658 -0.428196 
0.46138334 -0.17768745 -0.86922526 
0.6503257 -0.54616475 -0.52799684 
0.20570467 -0.8763242 -0.4355934 
-0.80764484 0.14121673 -0.5725101 
-0.05975344 -0.31589326 -0.94691133 
0.4538937 -0.7891724 -0.4137482 
0.096775346 -0.8784982 -0.46784127 
0.19334295 0.074214295 -0.97832036 
0.3623459 -0.27741188 -0.8898024 
-0.025959956 -0.084873036 -0.9960535 
0.003647383 -0.23174076 -0.97277075 
0.3242937 -0.34004062 -0.88272655 
-0.31600744 -0.86903083 -0.3806901 
-0.20974118 -0.56768775 -0.7960775 
0.13953535 -0.19827335 -0.97016376 
0.14634767 0.3665683 -0.9188091 
0.25528836 0.2771423 -0.92629373 
0.7545809 -0.0828611 -0.6509546 
0.24635184 -0.52643126 -0.813745 
-0.40180537 -0.8989246 -0.17460558 
-0.08041428 -0.8999765 -0.4284576 
0.5149054 -0.73917997 -0.4341491 
0.7300144 -0.52989024 -0.43161958 
0.34488416 -0.8867225 -0.30786064 
0.06964991 -0.9264912 -0.3698148 
0.39732403 -0.42606094 -0.8127766 
0.22403008 -0.093640186 -0.9700732 
0.615954 -0.18001504 -0.7669389 
0.06618848 -0.903367 -0.42373022 
-0.23637652 -0.59980994 -0.7644307 
-0.031416867 -0.69601065 -0.7173439 
-0.039260443 -0.5387702 -0.8415376 
-0.0070252665 -0.61895156 -0.7853978 
-0.059850056 -0.9863112 0.15364993 
-0.16003473 -0.8697973 -0.46673512 
0.44804084 -0.4180149 -0.79026765 
0.3686213 -0.6266822 -0.68657684 
0.15647283 -0.36836928 -0.9164172 
-0.26619995 -0.6302931 -0.72929305 
0.12934092 -0.71964324 -0.6821911 
-0.32563463 -0.63732266 -0.69841397 
-0.04285251 -0.68284714 -0.7293034 
-0.032641385 -0.50000024 -0.86541 
0.5423885 -0.7170339 -0.43780956 
0.3423545 -0.93681854 -0.07186471 
0.25610885 -0.959525 0.117132984 
-0.14784281 -0.20135257 -0.9682973 
-0.16912447 -0.44778183 -0.8780026 
0.033248417 -0.25167722 -0.96724 
0.0008721486 0.28346318 -0.9589827 
-0.1445775 -0.7328979 -0.6647993 
0.2407368 -0.3604433 -0.90118057 
0.17900234 0.0721574 -0.98119897 
0.42995077 -0.31442785 -0.8463317 
0.3922425 -0.05475994 -0.91823053 
0.57387954 -0.11811319 -0.8103774 
-0.15681967 -0.76795816 -0.6210055 
-0.474064 0.10909971 -0.8737051 
-0.5436112 0.011469957 -0.8392588 
-0.005977071 -0.3027947 -0.95303714 
-0.035649776 -0.39896 -0.9162751 
-0.38819537 -0.120069906 -0.91372186 
0.23714313 0.54970837 -0.80098933 
-0.44553393 0.58235365 -0.67997336 
0.09871299 0.06496471 -0.9929931 
0.23548797 -0.23328684 -0.9434632 
-0.67953956 0.5427001 -0.49366245 
0.22206308 -0.049560163 -0.9737719 
0.14906552 -0.26686835 -0.95213485 
0.2585222 -0.7929888 -0.5516659 
0.4642952 -0.6285157 -0.6240177 
-0.055034075 -0.58630866 -0.8082162 
0.24396634 -0.49882826 -0.83165556 
-0.102275655 -0.68084323 -0.7252532 
-0.14423305 -0.45025426 -0.88117427 
0.48093894 -0.45240587 -0.7510171 
-0.05662134 -0.62894756 -0.7753831 
0.28768805 -0.31997964 -0.90268975 
0.02954166 -0.085017234 -0.99594146 
-0.8723826 -0.48561633 0.055905513 
-0.82980466 -0.5295174 0.17616907 
-0.065430276 -0.26940295 -0.96080226 
-0.69439703 0.21924731 -0.6853784 
-0.5927293 0.35774198 -0.7215904 
-0.6353495 0.0572777 -0.7700976 
-0.31320027 -0.5637259 -0.76427674 
0.039915986 -0.59079057 -0.8058369 
-0.37911555 -0.70796025 -0.5958723 
-0.2671483 -0.8413761 -0.46980625 
-0.49103135 -0.3189372 -0.8106586 
-0.34288046 -0.7156449 -0.6085109 
-0.6419175 -0.3772808 -0.66753364 
0.03636091 -0.8005198 -0.59820217 
-0.06708792 -0.28383332 -0.9565239 
-0.28218523 0.20185287 -0.9378843 
-0.014857474 0.6043114 -0.79660964 
-0.03681957 0.87835056 -0.47659707 
0.25828925 0.22368458 -0.93981487 
0.5513784 -0.03456727 -0.8335388 
-0.02777357 -0.07178948 -0.9970331 
0.7041402 -0.18866386 -0.6845382 
0.2658061 -0.96252465 -0.053791456 
0.664859 -0.7332305 -0.14260319 
0.389355 -0.8317534 -0.3957135 
0.07718056 -0.69470835 -0.7151389 
-0.24407943 -0.95989084 -0.13796689 
-0.64607924 -0.431595 -0.6295295 
0.20133853 -0.81800705 -0.53882015 
-0.070160486 -0.6714461 -0.7377247 
-0.118723385 -0.67022014 -0.7326048 
-0.5360555 -0.5277524 -0.65887934 
0.8745461 -0.3163905 -0.3675136 
0.50103176 -0.6320012 -0.59122056 
0.31469506 -0.10257592 -0.94363415 
-0.2627591 -0.43845344 -0.85948604 
0.33803535 -0.57005537 -0.7488451 
0.110839866 -0.9826449 -0.14874046 
-0.008507755 -0.951783 -0.30665413 
0.06765332 -0.41195983 -0.908687 
0.0808087 -0.06902796 -0.99433655 
-0.26011643 -0.0064915107 -0.9655554 
0.48977143 -0.49096298 -0.7204717 
-0.13246988 -0.18459055 -0.9738471 
0.45025477 0.4662131 -0.76152223 
0.33953652 -0.575231 -0.74419373 
0.042496752 -0.82399535 -0.5650006 
-0.11588305 -0.059493598 -0.9914795 
-0.18476817 -0.39144322 -0.9014616 
-0.017332973 0.5753498 -0.8177239 
0.13877062 -0.21409364 -0.9669057 
-0.03049326 0.12327864 -0.99190354 
0.32743928 0.5379365 -0.7767934 
0.2633203 0.2841815 -0.92190206 
0.5461482 0.07303681 -0.83449864 
0.73295546 0.20359474 -0.649096 
0.5982491 0.23150806 -0.76713884 
0.49912843 0.26006615 -0.82658124 
-0.5252751 -0.04543122 -0.8497188 
-0.521267 -0.4741326 -0.7095626 
0.2578391 -0.6960351 -0.67011505 
0.68405294 -0.4301234 -0.5891227 
0.77192867 -0.5828671 -0.25375605 
0.47639272 -0.5751774 -0.66499704 
0.04965256 -0.43809447 -0.8975566 
-0.1753133 -0.8487617 -0.4988675 
0.019999478 -0.9955619 0.09195989 
0.11889312 -0.9316375 -0.34338915 
-0.23233669 -0.97047496 0.06479315 
0.0919158 -0.6856 -0.7221525 
-0.077468954 -0.63866585 -0.7655747 
-0.6292059 -0.7690946 -0.11222046 
-0.66868997 -0.6944885 0.2655927 
-0.9603139 0.24902767 0.12562814 
-0.5730334 0.55570406 -0.60235023 
-0.047924235 0.76678205 -0.64011604 
-0.1657266 -0.66520983 -0.72803205 
-0.17847425 -0.5254941 -0.83186716 
-0.701684 -0.6478427 -0.29654583 
0.18294722 -0.857761 -0.480392 
0.42361072 -0.8672299 -0.2616608 
0.68916965 -0.7224844 0.055331804 
-0.020707386 -0.8979091 -0.43969375 
-0.482917 -0.77330947 -0.41083312 
-0.74033856 -0.37669605 -0.5567755 
-0.39626804 -0.44681278 -0.8020786 
-0.28236553 -0.15448923 -0.9467855 
-0.6301771 -0.5183489 -0.5780928 
-0.26889753 -0.8518378 -0.44951805 
-0.3373152 -0.5248992 -0.78147256 
0.43259192 -0.80688405 -0.40224653 
-0.0638524 -0.5877684 -0.8065055 
-0.14200415 -0.6990332 -0.7008477 
0.50166315 -0.85921234 -0.10044138 
-0.13750437 -0.46912888 -0.8723592 
-0.27754727 -0.27694178 -0.9199298 
0.031377286 0.057878196 -0.9978305 
0.2534743 -0.09779797 -0.9623858 
0.7093996 -0.5648872 -0.42149115 
0.6259598 -0.74233776 -0.23897506 
0.35953325 -0.41585842 -0.83534294 
0.21299838 0.014814489 -0.9769402 
0.50629276 0.4485356 -0.73653483 
-0.1457357 0.23298173 -0.96149915 
-0.062153187 0.47180897 -0.8795075 
-0.31266984 0.10038451 -0.94454247 
-0.08089901 0.0082239965 -0.99668837 
0.45569798 -0.028905729 -0.88966507 
0.6808426 -0.6481409 -0.34112588 
0.5457985 -0.14751643 -0.82482904 
0.32729995 -0.7562682 -0.56650966 
0.40601698 -0.6055586 -0.6844334 
0.44322947 -0.76381356 -0.4691871 
0.55615705 -0.83081436 -0.020899035 
-0.36522874 -0.8001651 -0.47575614 
-0.30615494 -0.92204547 -0.23685712 
-0.40083176 -0.9152187 0.04133769 
0.14235774 -0.73441833 -0.6635993 
0.26259086 -0.8730223 -0.4109478 
0.2101665 -0.46215108 -0.8615373 
-0.36440477 -0.46419176 -0.80730116 
0.37913272 -0.63727707 -0.670922 
-0.035907615 -0.09884107 -0.9944552 
0.3527693 -0.61135095 -0.7083812 
0.2233334 -0.65112954 -0.7253638 
-0.21140938 -0.6099868 -0.7636898 
0.26581937 -0.39384803 -0.87989986 
0.09128223 -0.8422538 -0.5312966 
0.1441482 -0.7769014 -0.61289936 
-0.105021626 -0.6455011 -0.7565044 
-0.70841247 -0.58557534 -0.39402217 
-0.08130181 -0.71572447 -0.69363433 
-0.25855973 -0.52242583 -0.8125382 
0.40985864 -0.77213085 -0.48562327 
0.55992365 -0.55148095 -0.6183481 
0.21488163 -0.54355437 -0.81140286 
-0.15708563 -0.84525675 -0.5107496 
-0.27685055 -0.840737 -0.46531194 
-0.23664464 -0.5759555 -0.78247976 
-0.27669898 0.072697684 -0.95820284 
0.72577006 -0.27168968 -0.63201475 
0.0005333201 -0.607225 -0.7945298 
0.055658836 -0.34541586 -0.9367978 
0.38140842 -0.80115324 -0.46117356 
0.8781424 -0.13196583 -0.4598379 
0.6082335 -0.076348424 -0.79007787 
0.41362497 -0.44702348 -0.79314834 
0.1365151 -0.81550926 -0.5624129 
0.8963363 -0.17859118 0.40581596 
0.9049376 -0.35515347 0.23442268 
-0.6202912 -0.77804005 -0.09946143 
-0.4427035 -0.46556762 -0.7663292 
-0.51488197 -0.7994317 -0.30952495 
-0.15241805 -0.3955845 -0.90569407 
-0.16880596 -0.62610346 -0.7612483 
-0.32963622 0.18282859 -0.92623633 
-0.27877516 0.117609896 -0.95312774 
-0.73001224 -0.6443552 -0.22779055 
0.20340197 -0.5965485 -0.77637464 
-0.18875448 -0.26910305 -0.9444339 
0.01660522 -0.75409746 -0.6565526 
-0.6927958 -0.6725251 -0.26027665 
0.2962075 -0.9550918 0.0078043826 
0.080861375 -0.94895124 -0.30488223 
0.36080268 -0.87870085 -0.31258023 
-0.96239644 0.01574931 -0.27119216 
-0.7188806 -0.18778218 -0.66928965 
-0.77901083 -0.03747365 -0.62588966 
-0.7151912 -0.11005845 -0.69020927 
-0.26978138 -0.059710525 -0.9610685 
-0.39685214 -0.4024888 -0.8249311 
0.37077433 -0.49231577 -0.7874971 
0.578666 -0.4171446 -0.700811 
-0.48776558 -0.3196237 -0.812358 
-0.19042584 -0.43714616 -0.8790002 
0.21740246 -0.15739389 -0.9633085 
0.48296583 -0.36276805 -0.7969588 
0.48391417 -0.76863635 -0.41836044 
0.35635215 -0.108024366 -0.9280862 
0.443747 -0.17965142 -0.87796015 
0.27503642 -0.7748365 -0.56919545 
0.38474664 -0.26470268 -0.8842525 
0.10360293 -0.92825633 -0.35722068 
-0.07526645 -0.93915874 -0.3351357 
0.27996692 -0.74523175 -0.60518444 
0.14907059 0.4390873 -0.8859911 
0.107588746 0.0018412439 -0.99419385 
0.35506868 0.4864797 -0.79828805 
0.17121619 -0.4841992 -0.8580421 
-0.31993484 -0.5739921 -0.75377387 
-0.8800989 -0.0964602 -0.4648885 
-0.13710777 0.077173665 -0.9875453 
0.10340118 -0.13013712 -0.9860895 
0.21688683 -0.35315123 -0.91007936 
0.71578944 -0.30944785 -0.62600917 
0.59270436 0.032151066 -0.8047783 
0.09744373 -0.56647426 -0.8182981 
-0.6083991 0.046600282 -0.79226196 
-0.6177109 -0.3994148 -0.67742234 
-0.011230658 -0.25994882 -0.9655571 
-0.54340893 -0.24210484 -0.8037985 
-0.392248 -0.4081812 -0.8243359 
-0.3289663 0.17808099 -0.9273988 
0.17808485 0.33396852 -0.92560846 
0.17373623 -0.3235937 -0.930109 
-0.45252115 -0.48608214 -0.7476288 
0.1374828 -0.27722216 -0.9509188 
-0.65718436 -0.08416931 -0.7490155 
-0.22250071 -0.57818043 -0.78498465 
0.062117983 -0.8781171 -0.4743963 
-0.30458093 -0.77242434 -0.557307 
-0.3508821 -0.27042845 -0.89652115 
0.4096392 -0.39111066 -0.82415307 
0.23145817 0.46883133 -0.8524227 
-0.37221995 -0.5032398 -0.7798732 
-0.721221 -0.624914 -0.29886937 
-0.2697876 -0.8528636 -0.44703272 
-0.7413024 -0.048344452 -0.66942793 
-0.301843 -0.23817477 -0.9231271 
0.052480526 -0.7559823 -0.652485 
0.9888255 -0.14314103 0.04165104 
-0.2377497 -0.9471858 -0.2152072 
-0.25906527 -0.65951777 -0.7056356 
-0.37054756 -0.28181508 -0.8850281 
0.36886927 -0.046677474 -0.9283085 
0.39260077 -0.7041846 -0.5915986 
0.30808744 -0.011569399 -0.95128775 
-0.17822056 -0.19899951 -0.96365803 
0.4077594 0.08197674 -0.9094021 
0.52826124 0.45625815 -0.7160787 
0.36644495 0.18773264 -0.9113039 
0.39357978 -0.60844487 -0.6891226 
-0.083081 -0.3068403 -0.94812804 
0.04155448 -0.17521079 -0.9836536 
-0.3400406 -0.07299671 -0.9375734 
-0.58981305 -0.26821244 -0.7616973 
-0.21499562 -0.069638334 -0.974129 
-0.14861332 0.47005308 -0.8700369 
0.08609368 0.32086346 -0.9432044 
-0.7236301 0.14541061 -0.6746965 
-0.6790315 -0.11925268 -0.7243584 
-0.4501365 0.1488141 -0.88047236 
0.18054464 -0.21101214 -0.9606652 
0.09960248 0.30263314 -0.9478885 
0.1618596 0.4107876 -0.8972486 
-0.10884546 0.4710701 -0.8753546 
0.1482916 0.060670067 -0.987081 
-0.021971826 0.08106696 -0.99646646 
-0.3693228 -0.23429932 -0.8992801 
-0.23394613 -0.3656051 -0.9008897 
0.564684 -0.3349147 -0.7542972 
0.09335923 -0.36969453 -0.9244512 
0.12562959 -0.21219952 -0.96911746 
-0.19139962 0.0076532084 -0.9814823 
-0.25366652 -0.31717253 -0.9138135 
0.26486313 -0.63088906 -0.7292644 
-0.393325 -0.87579215 -0.27979225 
-0.70219934 -0.6539059 -0.28164375 
-0.8393735 -0.009004364 -0.5434805 
-0.67630565 0.22007523 -0.70297766 
-0.5913833 0.037842665 -0.80550224 
0.108826436 0.10053405 -0.988964 
-0.255005 0.025979945 -0.96659064 
0.29977658 -0.45443287 -0.8388235 
-0.11341585 -0.62975687 -0.76846814 
-0.50727594 -0.6028384 -0.6158386 
-0.6410563 -0.059308976 -0.76519895 
-0.47445372 -0.5011663 -0.72368926 
-0.32932723 -0.34128845 -0.8803782 
0.17726305 -0.4793417 -0.8595403 
-0.13898928 0.36499262 -0.9205773 
0.18181612 0.34509733 -0.92078817 
0.22926664 -0.016784558 -0.9732189 
0.21717384 0.3735174 -0.9018428 
0.2640296 0.49227613 -0.82942915 
0.28327614 0.5046922 -0.8155001 
0.15492712 0.29133826 -0.94399136 
0.9213359 0.17454667 -0.34738117 
0.69625837 -0.36868012 -0.61587286 
0.5628696 -0.2544972 -0.7863898 
0.59884214 -0.42645162 -0.67788434 
0.003909242 -0.8328748 -0.55344766 
-0.3118879 -0.14687325 -0.9386982 
-0.053669263 -0.82775337 -0.5585195 
-0.020336691 -0.89412117 -0.4473632 
0.26120466 -0.34970844 -0.899709 
0.24787177 -0.87052864 -0.4251348 
0.59964854 -0.26244572 -0.7560053 
0.2706936 -0.43829975 -0.8570988 
-0.2268607 -0.35766062 -0.905877 
0.15601256 -0.6991449 -0.697751 
-0.33408865 -0.39181232 -0.8572444 
0.3903045 -0.31092665 -0.8665951 
0.26731455 -0.8802459 -0.39205903 
-0.39684713 0.04988176 -0.91652834 
-0.25823146 -0.35911813 -0.89685607 
-0.10793967 -0.46928677 -0.87642395 
0.16740489 -0.22957067 -0.95878726 
0.41722918 -0.637072 -0.6481196 
0.19367673 0.26272532 -0.9452326 
0.20427051 0.021036979 -0.9786884 
0.78094155 -0.12865338 -0.61121094 
0.1628435 -0.36635545 -0.9161145 
0.3298655 -0.1236019 -0.9359014 
-0.31723514 0.06998745 -0.9457609 
0.4283237 0.13419804 -0.8936049 
0.36704212 0.13844518 -0.91984403 
0.26905084 -0.36552808 -0.8910673 
0.7472374 0.6645473 0.0036313778 
0.27048826 -0.090205655 -0.9584879 
0.8144819 0.02623512 -0.57959545 
0.0018048063 -0.57052046 -0.82128143 
0.014346803 -0.593483 -0.8047188 
0.7243679 0.2147843 -0.65510213 
-0.70527995 0.05294098 -0.7069495 
0.45498142 -0.5855692 -0.6708954 
0.090656795 -0.7258256 -0.6818787 
0.36797386 0.039957844 -0.92897725 
0.41923347 -0.4012347 -0.81440413 
0.44788635 -0.08740404 -0.889808 
0.2779124 -0.8331901 -0.47807857 
-0.20770872 -0.38189638 -0.9005623 
-0.5092122 -0.64155126 -0.5736854 
-0.3114951 -0.14851631 -0.93857 
-0.14330752 -0.7561529 -0.6385106 
0.098431535 -0.65334463 -0.75063455 
-0.20311517 -0.07456528 -0.9763116 
-0.5566328 -0.62685966 -0.5451668 
-0.2794456 -0.5948977 -0.75366247 
-0.6302735 -0.415635 -0.65574616 
-0.8526785 -0.057086963 -0.51930773 
-0.44224703 0.20225237 -0.8737916 
0.019439716 0.039673634 -0.9990236 
-0.097203635 0.37778118 -0.9207784 
-0.36773595 -0.5459049 -0.7528335 
0.27932566 -0.5311764 -0.7998931 
0.57092094 -0.23677093 -0.78612274 
-0.051527448 -0.7009054 -0.7113907 
0.15110205 -0.08242721 -0.98507565 
0.09994518 -0.8026848 -0.5879696 
-0.44936484 -0.8195716 -0.35549077 
0.3941028 -0.05229075 -0.9175776 
0.09492117 0.6163218 -0.7817529 
-0.44895932 0.09572649 -0.8884099 
0.21529081 -0.63471645 -0.7421489 
-0.0955881 -0.4885161 -0.86730325 
0.25090283 -0.73150927 -0.6339889 
-0.24929269 -0.4063985 -0.87902987 
-0.38693756 -0.67770016 -0.62530136 
-0.2658355 -0.95692426 -0.11673686 
-0.3998964 0.043735508 -0.9155164 
0.043692596 0.058314953 -0.9973417 
0.4432649 0.1405973 -0.8852958 
-0.2180073 -0.29976156 -0.92877114 
0.2798569 0.13412543 -0.95062643 
0.6938679 -0.48730302 -0.5301728 
-0.020933118 -0.61351234 -0.78940773 
0.35420436 -0.26625264 -0.8964646 
-0.271612 -0.2348911 -0.9333023 
-0.21397656 -0.20194186 -0.95573723 
-0.68052965 0.05270096 -0.7308229 
-0.3371611 0.4423989 -0.83102685 
-0.011306126 -0.27409527 -0.96163607 
0.0103518125 0.39559704 -0.9183659 
-0.40392825 0.19855587 -0.8929825 
-0.005101862 0.023624703 -0.99970794 
-0.53922594 -0.6606756 -0.52224827 
-0.27214253 -0.42874792 -0.8614602 
0.01952257 -0.48690507 -0.8732367 
-0.29058087 -0.8643599 -0.4104201 
0.4954377 -0.8325311 -0.24785782 
-0.5531556 -0.60972595 -0.56767344 
0.08156097 -0.9838592 -0.15927625 
0.11860943 -0.7567418 -0.64286363 
-0.114393696 -0.86965114 -0.48023015 
-0.45381114 -0.79191345 -0.40856886 
0.41277125 -0.24452214 -0.8773989 
0.54892015 -0.27505583 -0.7893232 
0.6209479 -0.741136 -0.25522792 
0.75781554 -0.34141245 -0.55601555 
-0.006265854 -0.5605703 -0.8280832 
0.15186645 -0.375775 -0.91418266 
0.10494665 -0.39847195 -0.91115665 
0.22232866 -0.53550565 -0.8147416 
-0.26646525 -0.8236766 -0.50055295 
-0.11483752 -0.90707034 -0.40501344 
-0.32218102 -0.76603043 -0.5562344 
-0.10440305 -0.76934177 -0.6302486 
-0.23593803 -0.9575044 -0.16588765 
0.2161712 -0.5763571 -0.78808796 
0.39583072 -0.61753076 -0.67968655 
-0.14913842 0.59554434 -0.7893571 
-0.83882797 0.052490678 -0.5418602 
-0.7751392 -0.57999486 -0.25053003 
-0.62999356 -0.05354896 -0.774752 
-0.9131705 0.1875379 -0.36186913 
0.13126211 -0.2684444 -0.9543102 
0.013755045 -0.73229337 -0.6808504 
-0.28100687 0.009072497 -0.9596629 
-0.41706097 -0.7418273 -0.5251214 
0.4379164 -0.29308906 -0.8498989 
0.5130355 0.3169666 -0.79770094 
0.124503486 -0.59347606 -0.79516363 
0.51561844 -0.4070824 -0.7539374 
0.415011 -0.53943443 -0.73265034 
0.0049041975 -0.99349767 0.11374727 
0.0033633863 -0.71718204 -0.6968778 
-0.27930906 -0.66089076 -0.6965701 
-0.3914373 -0.6538118 -0.64753926 
-0.31430602 -0.47537753 -0.82172257 
0.2540914 -0.4420635 -0.86024266 
-0.10773924 0.10197224 -0.98893577 
-0.40337637 0.022264333 -0.9147632 
-0.44799417 -0.6699124 -0.5920462 
-0.36529055 -0.4762541 -0.7998406 
0.027168881 0.41928846 -0.9074465 
-0.419291 0.19983101 -0.885586 
-0.16552374 -0.76259303 -0.6253429 
0.27882245 -0.6820275 -0.67608917 
0.22568727 -0.4664782 -0.85525644 
-0.16515598 -0.28802598 -0.9432733 
-0.9202132 -0.2753503 0.2781905 
-0.7475427 -0.09213814 -0.65779215 
-0.50912243 -0.108145244 -0.85387295 
-0.2347272 -0.12337631 -0.9641999 
-0.47118294 0.33950973 -0.81407607 
-0.66170865 -0.14367388 -0.73586655 
-0.43851495 -0.47425625 -0.763404 
-0.15362754 -0.25725976 -0.9540524 
0.59662753 -0.032485235 -0.80186063 
0.548718 -0.05783973 -0.8340043 
0.20296799 -0.5653294 -0.7995041 
0.3829349 -0.2794927 -0.8804799 
0.09327856 -0.68169445 -0.7256665 
0.40551004 -0.10151425 -0.9084363 
0.41808233 -0.60183537 -0.68044215 
0.516721 0.1504688 -0.8428278 
0.71770334 0.122154444 -0.68555105 
0.29200068 -0.2053725 -0.93410796 
-0.3283299 -0.4563904 -0.82698697 
0.3580103 -0.20424895 -0.9111043 
0.26687253 -0.587683 -0.7638114 
0.24522968 -0.4739144 -0.84573495 
0.42576426 -0.07899374 -0.90137947 
-0.05566453 0.050108474 -0.9971914 
-0.60201293 0.13094367 -0.7876766 
-0.22684966 -0.37277466 -0.89976573 
-0.10259607 -0.20411834 -0.97355527 
0.3588208 -0.31175816 -0.8798037 
0.4233584 -0.24473375 -0.8722804 
0.48065197 -0.2372714 -0.8442014 
0.11167821 0.14035115 -0.98378336 
-0.0724696 -0.091154315 -0.9931964 
-0.096059434 -0.029153008 -0.9949487 
-0.052011564 -0.15073104 -0.9872056 
0.24692194 -0.4841497 -0.8394217 
0.12554474 -0.09119523 -0.9878876 
0.20386024 0.21762575 -0.95450515 
-0.28501824 0.31291008 -0.90600884 
0.38717252 0.35145015 -0.8523968 
0.5025624 -0.21527828 -0.83730894 
-0.17837985 -0.29445973 -0.9388685 
-0.4834129 -0.51032454 -0.71125305 
-0.55524135 -0.45930567 -0.6933581 
-0.39763495 -0.3705272 -0.8394022 
0.24882416 -0.17055058 -0.95341444 
-0.4554686 0.12714906 -0.88112515 
-0.5034706 0.012432176 -0.8639229 
0.2407511 0.40081885 -0.8839588 
0.1054913 0.08957054 -0.99037814 
-0.18373393 -0.4920678 -0.8509472 
0.34582853 -0.42256925 -0.83775765 
-0.28001782 0.36827016 -0.8865479 
-0.30989453 0.5265635 -0.79164153 
-0.406325 0.17510149 -0.896794 
-0.093874894 -0.2416685 -0.96580744 
0.14621076 -0.57999235 -0.80139333 
0.6994145 -0.6749801 -0.23499194 
0.32215923 -0.88052243 -0.34769806 
-0.029262517 -0.548125 -0.8358845 
-0.29871386 -0.33910912 -0.8920623 
0.11504375 -0.18877609 -0.97525823 
0.29093108 0.18476014 -0.93873477 
0.23126931 0.34837997 -0.9083754 
0.36787206 0.6373855 -0.6770598 
0.43758246 0.49765536 -0.7489064 
0.06345506 0.5280748 -0.8468238 
0.35704097 -0.2540763 -0.89886993 
-0.060285114 -0.51203966 -0.8568437 
0.062180195 -0.52967465 -0.8459187 
-0.111951694 -0.015996663 -0.993585 