# OOMMF: rectangular mesh v1.0
# Segment count: 1
# Begin: Segment
# Begin: Header
# Desc: Time (s) :  7.690000000000019e-07
# Title: m
# meshtype: rectangular
# meshunit: m
# xbase: 2e-09
# ybase: 2e-09
# zbase: 5e-10
# xstepsize: 4e-09
# ystepsize: 4e-09
# zstepsize: 1e-09
# xmin: 0
# ymin: 0
# zmin: 0
# xmax: 1.024e-06
# ymax: 1.024e-06
# zmax: 1e-09
# xnodes: 256
# ynodes: 256
# znodes: 1
# ValueRangeMinMag: 1e-08
# ValueRangeMaxMag: 1
# valueunit: 
# valuemultiplier: 1
# End: Header
# Begin: Data Text
-0.086657755 0.86517453 -0.49392667 
0.18822287 0.123969816 -0.9742709 
0.3737961 -0.3868839 -0.8429694 
0.7116528 -0.4784841 -0.51439613 
0.6252564 -0.49290234 -0.6050634 
0.060991682 -0.22039837 -0.9735012 
-0.5432704 -0.11076347 -0.83221924 
-0.3383504 -0.20410116 -0.9186195 
-0.7477187 0.42597538 -0.5093739 
-0.0957343 0.044893384 -0.99439406 
-0.68142045 -0.30432236 -0.6656231 
-0.6399942 -0.535275 -0.5512605 
-0.94504535 0.037185084 -0.32481778 
-0.4891459 -0.618588 -0.61488646 
-0.73831344 -0.5554656 -0.382559 
-0.73980314 -0.44586837 -0.5038778 
-0.30512583 -0.78477746 -0.53946525 
-0.4617108 -0.110309 -0.88014495 
-0.17137487 -0.45178884 -0.8755098 
0.4534455 -0.64471585 -0.61540943 
0.30485305 -0.5117853 -0.8032063 
0.06833473 -0.17012781 -0.98304987 
0.78591746 -0.15485014 -0.59862787 
0.40773734 0.16503266 -0.8980615 
0.07934693 -0.52515435 -0.8472999 
0.71407384 -0.6861744 -0.1387924 
0.40410417 -0.88352495 -0.23681968 
-0.18397988 -0.7865154 -0.5895295 
-0.12732518 -0.97320914 -0.19144815 
-0.9771366 -0.14158466 -0.15861246 
0.032198887 -0.7231671 -0.68992215 
-0.020593885 -0.87269366 -0.4878337 
0.16757996 -0.64912534 -0.7419928 
0.121908024 -0.33148456 -0.9355514 
0.33413988 -0.055181667 -0.9409068 
0.5865497 -0.31387937 -0.7466185 
-0.3087004 -0.5407923 -0.78246266 
-0.11248284 -0.31978858 -0.94078845 
-0.25901994 -0.36750048 -0.89322567 
-0.9755803 -0.13630444 -0.17223324 
-0.248959 -0.9624846 -0.1079018 
-0.5727951 -0.21244468 -0.79169 
0.35711044 0.19615635 -0.91323316 
0.57634306 -0.46955147 -0.6688424 
0.47273126 -0.0028072319 -0.8812023 
0.99826163 0.009688732 -0.058136247 
0.97478735 0.21763155 0.04925691 
0.98394233 0.04015632 -0.17391059 
0.5657355 -0.7890094 0.2395985 
0.41880995 -0.80323386 0.42357266 
-0.14177866 -0.96490675 -0.22102897 
-0.5458906 0.03544481 -0.8371064 
-0.07819154 -0.23733604 -0.9682757 
0.6170455 -0.14927165 -0.7726402 
-0.23166323 0.61674064 -0.7523053 
0.45003387 0.54129195 -0.7102623 
0.31062627 0.22966924 -0.9223684 
0.09012435 -0.27870885 -0.95613754 
-0.30912757 0.6310277 -0.71150845 
0.40911198 0.058985926 -0.9105756 
0.033310767 -0.29926676 -0.95358795 
0.68358 0.28893274 -0.67025095 
0.9746898 -0.19802815 -0.10375291 
0.20650339 -0.5246609 -0.8258859 
0.17170851 -0.06414363 -0.9830574 
0.49033636 -0.4593358 -0.7406625 
0.5394671 0.4422449 -0.7165158 
0.1284895 0.18910941 -0.97351336 
0.038438722 -0.53970176 -0.8409783 
0.57221407 -0.48630327 -0.66036373 
0.41079792 -0.7230462 -0.55538213 
0.5932211 -0.77812505 -0.20642218 
-0.32505932 -0.7501356 -0.57587594 
-0.12239962 -0.96688837 -0.22393152 
-0.5388198 -0.7955611 -0.2770488 
0.20377676 -0.81671125 -0.53986835 
-0.09259339 0.1912536 -0.9771635 
0.37139544 -0.65331596 -0.6597301 
0.6261964 -0.47478458 -0.6184317 
0.052232813 -0.975949 0.21164912 
0.043354344 -0.9898575 0.13528731 
0.024935067 -0.81618446 -0.57725316 
-0.21092921 -0.9198021 -0.330867 
0.43791723 -0.6858065 -0.58128995 
0.44285977 -0.6412607 -0.62662596 
-0.34033045 -0.24346109 -0.9082412 
0.46274778 -0.13011658 -0.87688893 
-0.088673614 -0.39130875 -0.91597736 
-0.057499606 -0.6703385 -0.73982435 
0.20507531 -0.9091626 -0.36244676 
-0.59550196 -0.78668135 -0.16281834 
-0.13353278 -0.88083166 -0.45420757 
-0.12618819 -0.97358465 0.19028832 
-0.37197402 -0.46327442 0.80437064 
-0.7186749 -0.4956909 -0.48764426 
-0.4397374 -0.5397036 -0.71787953 
-0.29560763 -0.537208 -0.7899517 
-0.5098946 0.061260838 -0.8580528 
-0.62445915 -0.27268842 -0.7319097 
-0.36649814 -0.053126775 -0.9289009 
-0.49012992 -0.5572735 -0.670238 
-0.42183417 -0.22170633 -0.8791486 
-0.42700726 -0.10028673 -0.8986699 
0.15562163 0.38634357 -0.90913177 
0.008674031 -0.70903516 -0.7051198 
-0.3156136 -0.94845027 0.028813006 
0.12226151 -0.79667455 -0.5919138 
0.61562264 -0.6178619 -0.4891376 
0.36719608 -0.17629354 -0.913284 
0.722471 -0.33296624 -0.60594493 
0.8020153 -0.5227096 0.28904343 
0.027253658 -0.9442484 0.32810402 
-0.7637635 -0.5685695 -0.30560485 
0.40732643 -0.06808459 -0.91074127 
0.3297117 -0.099543184 -0.9388191 
0.31824955 -0.5880254 -0.7436017 
0.75655425 0.49457994 -0.42780414 
-0.022426963 -0.39845455 -0.9169138 
0.0995222 -0.6247986 -0.7744173 
0.8944048 0.07018163 -0.4417178 
0.22505789 -0.76410645 -0.60455805 
0.4176273 -0.8914575 -0.1757586 
-0.013616616 -0.8710424 -0.49101928 
-0.15742151 -0.84951866 -0.5035243 
0.19417743 -0.5997931 -0.7762368 
0.09561848 -0.29771236 -0.949855 
0.29874036 0.49657503 -0.81496465 
0.56980324 0.20171456 -0.7966403 
0.19885795 0.11603749 -0.9731345 
0.059596047 -0.9877507 -0.14421149 
-0.5374246 -0.7447811 -0.39557055 
-0.26559165 -0.28385428 -0.92135113 
0.53926575 0.18299173 -0.82201374 
0.6173275 -0.42782202 -0.66020846 
-0.6838564 -0.23558925 -0.69053465 
-0.14910433 -0.7119316 -0.68623716 
-0.52872914 0.24395673 -0.8129765 
-0.57884717 0.0036092014 -0.8154281 
-0.5697081 -0.7121664 -0.41018498 
-0.45616248 -0.70508915 -0.5429228 
-0.4423017 -0.5616538 -0.69922405 
0.055481635 -0.930688 -0.3615821 
-0.7507368 -0.031136537 -0.6598673 
-0.55286694 -0.071743205 -0.8301754 
0.5741198 0.4048868 -0.7116553 
0.025219636 0.3825117 -0.9236064 
-0.50953865 0.1323291 -0.8502115 
-0.51471174 0.55285877 -0.6553008 
-0.22187398 0.5118056 -0.82995605 
-0.32964635 0.08764269 -0.9400278 
-0.12047481 -0.53351575 -0.8371659 
-0.012031478 0.04334511 -0.9989878 
-0.01308632 0.24591352 -0.9692035 
-0.21538594 -0.4889835 -0.84528345 
0.43006572 -0.62242764 -0.6539322 
0.6680448 -0.61448044 -0.41967845 
0.52755743 -0.32278028 -0.7858092 
-0.14180799 -0.5487374 -0.8238798 
-0.12984818 -0.786069 -0.6043469 
-0.45035654 -0.49192208 -0.7451119 
-0.43098724 -0.48299038 -0.7622141 
-0.12592497 -0.12346675 -0.9843266 
0.027939081 -0.14201196 -0.9894706 
0.3010708 0.3561051 -0.884616 
0.2687375 0.38277954 -0.8838891 
0.20229189 -0.82445604 -0.52853614 
-0.13786905 -0.54086363 -0.829734 
-0.07845686 0.2222964 -0.9718173 
-0.4083287 -0.27384505 -0.8707909 
-0.72053516 -0.18242066 -0.66899323 
0.053644348 -0.32004398 -0.94588274 
0.2786948 -0.43236443 -0.8575491 
0.069494165 -0.64288414 -0.76280445 
-0.032259077 -0.90320873 -0.4279877 
-0.2647346 -0.52167684 -0.8110295 
-0.6777954 -0.3719165 -0.6342488 
-0.4955299 -0.85155666 -0.17117664 
-0.058740895 -0.4229916 -0.9042277 
-0.14047731 -0.49375412 -0.85818005 
-0.16902587 -0.7664603 -0.6196523 
0.1471354 -0.9172907 -0.37003928 
-0.18845415 -0.66238433 -0.7250739 
0.025501704 -0.9568859 -0.2893426 
-0.5375102 -0.5111161 -0.67070353 
-0.50599885 0.07497189 -0.85926974 
-0.18590313 -0.020162622 -0.98236126 
-0.71419334 -0.31365874 -0.62573653 
-0.7274315 -0.45741102 -0.5114867 
-0.6813404 -0.17080042 -0.71176016 
0.03862 -0.31970355 -0.9467303 
0.65246207 -0.3619581 -0.66579247 
-0.069636695 -0.99434423 0.080189325 
-0.32904375 -0.7966758 -0.5069891 
-0.9968268 -0.060520906 -0.05170621 
-0.9843507 0.039126776 -0.17182231 
-0.13218196 -0.9910962 0.016008181 
-0.6081963 -0.75504375 -0.24496152 
-0.30197936 -0.5748572 -0.7604917 
0.035001684 -0.6707523 -0.7408551 
-0.5561695 0.06541881 -0.8284902 
-0.69095826 -0.22010313 -0.688572 
-0.8071572 -0.23748925 -0.54045933 
-0.83838874 -0.2362756 -0.4912009 
-0.97593457 -0.17230983 -0.13364586 
-0.45907965 -0.36463818 -0.8101141 
-0.8832126 -0.17367281 -0.4356296 
-0.010554347 0.28758225 -0.95769787 
0.8371353 0.0017611609 -0.5469931 
0.39236644 -0.080550134 -0.9162752 
-0.125695 -0.23100072 -0.9648003 
0.4562239 -0.27926156 -0.84490997 
0.7338461 -0.6231872 -0.2703844 
-0.35815316 -0.2794568 -0.8908593 
-0.7492279 -0.1793698 -0.637561 
-0.73152095 -0.34065002 -0.5906223 
-0.20087257 -0.40410194 -0.89238554 
-0.72711575 -0.24028283 -0.6430916 
-0.63313395 0.29152888 -0.7170442 
-0.3868005 0.2799441 -0.8786448 
-0.080431975 -0.37690905 -0.9227515 
0.054086234 -0.8492433 -0.5252242 
0.1680449 -0.8996791 -0.40291235 
0.59897083 -0.7589479 0.25540575 
0.6552062 -0.72806114 0.2015734 
0.5126345 -0.6618941 0.5469023 
-0.49857444 -0.8493542 0.17326583 
-0.75302935 -0.32488412 -0.57218635 
-0.65278816 -0.4268892 -0.62580615 
-0.19858964 -0.31699994 -0.9274013 
-0.4571025 -0.43515524 -0.7756915 
0.1789007 0.40907907 -0.8947899 
-0.21140778 -0.74893105 -0.6280199 
0.23990045 -0.75426406 -0.61117387 
-0.60505146 -0.076715685 -0.79248184 
-0.65020746 0.22551236 -0.72551674 
-0.6001596 -0.16629791 -0.78240246 
-0.3409722 -0.48161268 -0.8073334 
-0.35690004 0.35508877 -0.8640222 
0.27570996 -0.070749715 -0.95863366 
0.4452252 -0.79327303 -0.4153222 
0.2675278 -0.5418406 -0.796767 
-0.42449012 -0.46510702 -0.77684224 
0.18235011 -0.6671061 -0.72230047 
0.7731678 -0.5430689 -0.3275481 
0.65684265 0.35246626 -0.6665773 
0.39368582 -0.36196408 -0.84498143 
0.4919383 -0.7331649 -0.46953815 
0.16640647 -0.4773074 -0.8628364 
-0.18806846 -0.49504605 -0.84826857 
0.4159789 -0.22280285 -0.8816578 
-0.39109555 -0.6894676 -0.60965466 
-0.17718856 -0.8294788 -0.5296878 
-0.04455402 -0.29529005 -0.95436823 
-0.10701087 -0.2780843 -0.9545774 
-0.13875328 0.23262607 -0.96261764 
-0.3512038 0.3369551 -0.87356585 
-0.08039508 0.7652892 -0.63864636 
0.22825195 0.6071513 -0.76109684 
-0.24643953 -0.09072597 -0.9649022 
0.11288674 -0.32969376 -0.9373146 
0.32265264 -0.8523961 -0.4114806 
-0.8637168 -0.29420245 -0.40919226 
-0.90890014 -0.4154539 -0.036037423 
-0.34270808 -0.03028646 -0.93895364 
-0.8216331 0.23940523 -0.51730496 
-0.2957872 -0.087060414 -0.9512784 
-0.25721285 -0.10238141 -0.96091604 
-0.608362 -0.1578489 -0.7778043 
-0.60835975 -0.77071744 -0.18945485 
-0.8372508 -0.33591393 -0.43147773 
-0.8354911 -0.22788839 -0.5000216 
-0.27667195 -0.10512631 -0.9551969 
-0.2225098 0.37042147 -0.90181893 
0.17046657 -0.11759787 -0.978321 
0.011089921 -0.27824706 -0.9604456 
-0.43744412 -0.24182466 -0.86611974 
-0.20665652 -0.37159857 -0.9051009 
0.40554476 -0.0050523123 -0.9140612 
-0.37692377 -0.4567557 -0.80579317 
-0.66311103 -0.13223606 -0.73674786 
-0.19151144 -0.3415453 -0.9201469 
0.050025985 0.06610425 -0.9965579 
0.28331614 -0.10382536 -0.9533899 
0.21507685 -0.022715878 -0.9763329 
0.07715893 -0.6413845 -0.7633299 
-0.030307505 -0.4041133 -0.91420674 
-0.15598035 -0.84155804 -0.5171559 
0.19667587 -0.1891196 -0.96205634 
0.5827849 -0.7430994 -0.3288848 
0.17199129 -0.39893246 -0.9007063 
0.22176255 -0.1872773 -0.95694757 
0.24767739 -0.39371753 -0.8852358 
-0.0742424 -0.3301235 -0.94101363 
0.13708541 -0.99040955 -0.017220547 
-0.40589023 -0.51644397 -0.7540151 
-0.72139543 -0.3865792 -0.5745827 
-0.20418955 -0.85565937 -0.47555616 
-0.43623003 -0.50571877 -0.74427944 
0.070306964 -0.14451359 -0.98700196 
0.37112528 -0.003203595 -0.92857736 
0.3942378 -0.01755279 -0.9188408 
0.6343383 -0.003601225 -0.7730472 
0.48327634 0.13019682 -0.8657325 
0.8594178 -0.032549977 -0.510237 
0.7883026 -0.5917537 0.1685424 
0.5350575 -0.84346366 -0.04777594 
-0.1335796 -0.7243822 -0.67633355 
-0.681318 -0.30718842 -0.6644104 
-0.28599083 -0.29791906 -0.9107435 
-0.040205292 -0.36274594 -0.93102044 
0.19400935 -0.48140472 -0.85475725 
-0.0377419 -0.1643348 -0.9856823 
0.5099282 0.17561853 -0.8420994 
0.3816958 0.11270348 -0.917391 
0.062659435 0.3426416 -0.9373743 
-0.2900307 -0.33026484 -0.8982246 
0.19241637 -0.61634636 -0.7636054 
0.065475695 -0.8895163 -0.45218772 
0.023409305 -0.73513055 -0.6775213 
-0.36238125 -0.7942492 -0.48769662 
-0.37221867 0.4083922 -0.8334682 
0.08260513 -0.13704462 -0.9871146 
0.123236924 0.8412431 -0.5264246 
0.04400157 0.4716554 -0.88068444 
0.23261957 -0.53803456 -0.81018955 
0.2588075 -0.5820183 -0.7708913 
0.09845821 -0.8239165 -0.5580927 
-0.31778204 -0.90270144 -0.29007745 
-0.516569 -0.5187561 -0.6812112 
-0.54987514 -0.41628674 -0.7241152 
-0.48267984 -0.03647657 -0.875037 
0.5419992 -0.572091 -0.6155881 
0.07299819 -0.073714755 -0.9946042 
0.15015745 -0.5943154 -0.7900899 
0.6009493 -0.7844024 0.15353455 
0.7738105 -0.62256724 0.11673598 
0.43410006 -0.7923915 -0.42857078 
0.5286554 0.13748287 -0.8376288 
0.016834512 0.035098486 -0.9992421 
-0.0694179 -0.43689033 -0.8968322 
0.4415799 0.08511636 -0.89317554 
-0.12337456 -0.793793 -0.59554285 
-0.06740356 -0.43679222 -0.8970337 
0.05638311 -0.5343472 -0.8433826 
-0.1786655 -0.8008241 -0.57162875 
0.007240326 -0.36504158 -0.93096304 
-0.38504866 -0.90377045 -0.18691325 
-0.30093262 -0.33938155 -0.8912125 
-0.7353743 -0.32553476 -0.59435004 
-0.8004643 -0.5203197 -0.29753032 
-0.8430159 -0.5150056 0.15522066 
-0.68540686 -0.065556765 -0.72520334 
-0.27133596 0.15213688 -0.95038474 
-0.5651482 -0.6331796 -0.5288585 
-0.63467294 -0.3896229 -0.6673712 
-0.69629997 -0.23016173 -0.679847 
-0.8887367 -0.34311208 -0.30400845 
-0.42805767 0.7478169 -0.50748056 
-0.047805842 0.6351065 -0.7709439 
-0.33634502 0.43340957 -0.836079 
0.42747194 -0.24112044 -0.87127995 
0.26074937 -0.659129 -0.7053784 
-0.4657423 -0.57638896 -0.6714611 
-0.09310012 -0.5763692 -0.8118688 
-0.32945293 -0.5113076 -0.7937414 
0.5441526 -0.45183465 -0.7069254 
0.16722989 -0.61889625 -0.7674644 
0.1913547 -0.89546674 -0.40189904 
0.38434485 -0.5802619 -0.71803576 
-0.35087097 0.49407455 -0.79547465 
0.10563342 0.62976295 -0.76957154 
0.31440988 0.37766564 -0.87092775 
0.062003523 0.64488345 -0.76176167 
0.26215744 0.53081554 -0.8059209 
0.014779575 -0.14107804 -0.98988813 
0.6107454 -0.29450083 -0.73502344 
0.008034223 -0.9984374 0.055301856 
0.1916253 -0.80606055 -0.559952 
-0.050263807 -0.66174084 -0.74804586 
0.38842335 -0.4811434 -0.7858933 
-0.10520638 -0.4092611 -0.9063316 
-0.4095593 -0.49723402 -0.76486576 
-0.16299178 -0.8894548 -0.4269707 
-0.22700454 -0.08090835 -0.9705272 
0.45613268 -0.559746 -0.691829 
-0.33771968 -0.77637273 -0.53215665 
-0.65369844 -0.6717572 -0.34845474 
-0.099127114 -0.33521858 -0.93691117 
0.9047275 0.045451 -0.42355904 
0.5848151 0.23924774 -0.77508193 
-0.14248335 -0.28250062 -0.9486264 
-0.17357565 -0.56904775 -0.8037762 
-0.6691811 -0.33290097 -0.66435957 
-0.17373814 0.0842234 -0.9811837 
-0.8037775 -0.4148887 -0.42639092 
-0.925435 -0.37890577 -0.00063883944 
-0.83933645 -0.4120774 -0.35455126 
-0.2750109 -0.40473148 -0.87210184 
-0.4910442 -0.2535007 -0.8334346 
-0.5892313 -0.55222297 -0.5897935 
-0.41886157 0.19793867 -0.886214 
-0.31843314 0.27365077 -0.9075879 
-0.58022225 -0.08838591 -0.8096481 
-0.4763445 -0.2621224 -0.83927816 
-0.5042426 0.16337918 -0.8479663 
-0.099177755 -0.33540478 -0.93683916 
-0.3741068 0.17475097 -0.9107724 
0.22427644 0.3443084 -0.9116753 
-0.03741105 0.5495976 -0.83459145 
0.28847682 -0.092727475 -0.9529863 
0.47956693 -0.4443948 -0.75665647 
0.22511397 -0.6305264 -0.74280566 
0.14399327 -0.9581233 -0.24751912 
-0.16207606 -0.72287935 -0.671697 
-0.39393562 -0.6463577 -0.65348023 
-0.38566887 -0.5415349 -0.74699366 
-0.28618643 -0.4789343 -0.8298912 
0.1298483 -0.89011556 -0.4368451 
-0.17511885 -0.3470583 -0.92134905 
-0.05875041 -0.0907879 -0.9941358 
0.3419799 0.45530072 -0.82204086 
0.2265809 0.12109311 -0.9664355 
0.45763502 0.40518194 -0.79145294 
-0.07902101 0.49842352 -0.8633248 
0.3573959 0.29192263 -0.88715804 
-0.40967727 0.08526794 -0.90823674 
0.4425184 -0.3616272 -0.8206116 
0.18660323 -0.8075024 -0.5595705 
-0.18988082 -0.6238888 -0.7580951 
-0.63776857 -0.54149514 -0.5477539 
-0.68976337 -0.29403228 -0.66164315 
-0.56752616 -0.77041435 -0.29047534 
-0.33722755 -0.9289844 0.1525313 
-0.2514572 -0.82365996 -0.5082849 
0.4391478 -0.4165222 -0.79602677 
-0.12647562 -0.72168386 -0.6805706 
-0.29552668 -0.2563761 -0.92029095 
0.00290746 -0.7767134 -0.6298475 
-0.22042413 -0.91350263 -0.34194478 
-0.36680773 -0.47103536 -0.80223304 
-0.36142495 -0.22857457 -0.9039501 
-0.025501778 -0.06380786 -0.9976363 
-0.15619868 0.17253856 -0.97253925 
-0.3015031 -0.034124374 -0.9528544 
-0.55385345 0.0651574 -0.8300608 
-0.35225728 -0.6233496 -0.6981046 
0.72185 -0.15163459 -0.675233 
0.30284953 -0.8682146 -0.3930466 
-0.45231047 -0.5077671 -0.7332039 
-0.9088954 0.4126557 -0.060203586 
-0.6747152 -0.64268637 -0.3629238 
-0.33506685 -0.2632678 -0.9046659 
0.117268145 -0.62679684 -0.7703078 
0.25220865 -0.59902877 -0.7599707 
0.7140377 -0.5159411 -0.47323895 
0.18238044 -0.2588448 -0.9485446 
-0.5340845 0.043336198 -0.84431976 
-0.50894225 -0.72405124 -0.46554008 
-0.86815417 -0.4224077 -0.260538 
-0.572465 -0.81754255 -0.062514365 
-0.90217316 -0.32011616 -0.28915283 
-0.72345906 0.34952283 -0.5953493 
0.1766611 -0.10706786 -0.97843105 
0.49934298 0.069186516 -0.8636375 
0.07848079 0.16082385 -0.9838579 
0.20862819 0.024563981 -0.9776866 
0.3225507 -0.5275766 -0.78589064 
-0.34708625 -0.5302723 -0.7735261 
0.115101516 -0.53837967 -0.8348049 
0.21298526 -0.93416744 -0.2863017 
-0.39197373 -0.72148895 -0.570798 
-0.4940291 -0.122629456 -0.860754 
-0.28901333 0.36544487 -0.88482845 
-0.13776019 -0.016529238 -0.9903278 
-0.591812 -0.1474456 -0.7924761 
0.11155022 -0.41363776 -0.9035819 
0.7320916 0.16739483 -0.6603188 
0.5068996 -0.46863127 -0.7234899 
0.596464 -0.49416786 -0.63247836 
0.37936336 -0.6297336 -0.6778784 
-0.4316091 -0.8856806 -0.17112464 
-0.8866352 -0.118238986 -0.44709918 
-0.30057007 -0.40819004 -0.8619969 
-0.41054076 -0.48221698 -0.77390134 
-0.16691287 -0.6011866 -0.7814825 
-0.44456774 -0.43010002 -0.78573126 
-0.5380827 -0.09801973 -0.8371733 
-0.16002293 -0.6910094 -0.70491046 
-0.15478858 -0.62831426 -0.7624053 
0.2552323 0.04792714 -0.9656912 
-0.21767801 0.2653228 -0.9392658 
0.057257704 0.121848315 -0.99089587 
0.4158396 -0.18581788 -0.8902523 
-0.045959488 -0.033571072 -0.99837905 
-0.12877552 -0.1768555 -0.9757761 
0.49868378 -0.6735599 -0.5455562 
-0.108713314 -0.443816 -0.8894992 
0.3989766 -0.63421565 -0.66226 
-0.3444634 -0.8249088 -0.4481859 
-0.3403416 -0.6887214 -0.64018005 
-0.41573226 0.18216074 -0.89105797 
0.48028442 -0.07150572 -0.87419325 
0.5279311 -0.35036644 -0.7736486 
0.6216313 -0.45597112 -0.63691837 
0.1300296 -0.64508665 -0.75296456 
-0.040428337 -0.49396148 -0.8685435 
-0.4709081 -0.8604254 -0.19471458 
-0.2580978 -0.43064085 -0.86483175 
0.2876361 0.11145058 -0.9512331 
-0.17287831 -0.18488039 -0.967436 
-0.15182835 0.11594128 -0.9815833 
0.5481014 -0.26111338 -0.79460984 
-0.36034802 0.4276852 -0.8289962 
-0.27333432 0.6001163 -0.7517639 
0.51760864 -0.43926182 -0.73425496 
0.46300527 -0.5590501 -0.6878148 
-0.016982026 -0.84933263 -0.527585 
-0.10248748 -0.694816 -0.7118477 
-0.18375055 -0.83693707 -0.51553106 
-0.24256371 -0.95991963 -0.14041783 
-0.50161105 -0.44491982 -0.74191153 
-0.11151675 -0.16529247 -0.9799197 
-0.4518518 -0.45552856 -0.7670227 
-0.5497022 -0.40389946 -0.7312269 
-0.5077598 -0.27494994 -0.816445 
-0.46862438 -0.15817465 -0.86912143 
-0.3066443 0.12498763 -0.9435822 
0.19210115 -0.42197442 -0.8860219 
0.2938133 -0.18860938 -0.93707013 
0.5202854 -0.27524608 -0.8084199 
0.22214375 -0.81672114 -0.53255886 
0.4469028 -0.1499423 -0.881927 
0.41819957 0.13448185 -0.89834505 
-0.06696468 -0.22837594 -0.97126734 
-0.619716 -0.43712592 -0.65182287 
-0.6001706 -0.06232582 -0.7974401 
0.2028014 0.41011205 -0.88920176 
-0.17580621 -0.4702258 -0.8648583 
0.44441685 -0.5436637 -0.7119856 
0.42267513 -0.48506305 -0.76554537 
-0.052638587 -0.36014324 -0.93141085 
-0.058643382 -0.3420376 -0.9378546 
-0.2538686 -0.60128677 -0.7576311 
-0.0016736229 -0.053736147 -0.9985538 
0.17277342 -0.069605365 -0.9824991 
-0.13205214 0.18374482 -0.9740637 
0.34795034 0.54170465 -0.765171 
0.030446006 -0.26836413 -0.9628363 
0.009030859 -0.044408903 -0.99897265 
0.37501273 -0.88828063 -0.26518524 
0.13869333 -0.29355964 -0.94582605 
-0.7763533 -0.383602 -0.5001251 
-0.2801939 -0.14183271 -0.9494077 
0.11774237 -0.020196557 -0.9928388 
0.029984487 0.04658042 -0.9984644 
0.2598347 -0.18536954 -0.9476941 
0.5042132 0.21329075 -0.836825 
0.71694887 -0.38861385 -0.57876056 
0.6209358 -0.617175 -0.48325336 
0.95256764 0.22051011 -0.20973828 
0.45301124 -0.89060336 0.040080998 
-0.15672366 -0.81074417 -0.5640316 
-0.3523603 -0.8822151 -0.31231198 
0.10267738 -0.8919347 -0.44035193 
0.049488895 0.28489003 -0.95728195 
0.14211512 -0.6219395 -0.77006155 
0.118933626 -0.5061387 -0.8542122 
-0.30330807 -0.5298162 -0.79202217 
0.41976568 -0.087892346 -0.9033669 
0.43776217 0.4625747 -0.77096635 
-0.17928663 0.27693975 -0.94401306 
0.21562572 0.03774725 -0.9757463 
0.5976443 -0.23843776 -0.765486 
0.67324567 -0.46413192 -0.57560575 
0.15703562 -0.7905056 -0.59198034 
-0.6739876 -0.5853761 -0.45063922 
-0.48899993 0.05054325 -0.87081826 
0.0025839757 -0.12738803 -0.9918496 
-0.11590353 -0.3738985 -0.92019904 
0.27223423 -0.22503237 -0.9355474 
0.56240743 -0.1710984 -0.80896425 
0.11172479 -0.6146296 -0.78086364 
-0.8246089 -0.39349946 -0.40642127 
-0.72592664 -0.42215094 -0.54297256 
-0.47367033 0.2506193 -0.8442905 
-0.42856938 -0.4687166 -0.77242035 
-0.11217216 0.06578207 -0.9915091 
-0.08760252 0.05929742 -0.9943891 
0.1994766 0.25443214 -0.94629455 
-0.062282752 -0.723365 -0.6876511 
0.66785944 -0.6901002 -0.27879292 
0.5961261 -0.6561309 -0.4627376 
0.6164391 -0.7678964 -0.17417856 
0.29576668 -0.7230922 -0.62422734 
0.091070004 -0.5655664 -0.819659 
-0.14252272 -0.7102945 -0.6893251 
0.32776582 -0.44557095 -0.8330883 
-0.05320785 -0.82201767 -0.5669708 
0.24410172 -0.3772974 -0.8933427 
0.06894245 -0.43978778 -0.8954517 
-0.39260837 -0.7446479 -0.5397761 
-0.47754264 -0.4275266 -0.7675768 
-0.46825004 -0.7981799 -0.379013 
-0.17081146 0.0689015 -0.98289174 
-0.35636315 -0.5851717 -0.7284088 
-0.46739206 -0.1877893 -0.86387503 
-0.7463647 0.32637542 -0.58001626 
-0.8658729 0.34250876 -0.36462566 
-0.8621636 -0.05219896 -0.50393367 
-0.46867922 -0.2290121 -0.85316664 
-0.66627413 0.038211286 -0.7447273 
-0.85986567 -0.41928545 -0.29125738 
-0.6989337 -0.48368576 -0.5268204 
-0.6683348 0.06320307 -0.7411707 
-0.45831507 0.18735096 -0.86881936 
-0.49663258 0.4167593 -0.7613592 
0.17256233 -0.55317694 -0.8149954 
-0.037258472 -0.4011384 -0.91525954 
-0.33182096 -0.14119962 -0.9327151 
-0.4953523 -0.36486155 -0.7883541 
-0.13797452 -0.5159989 -0.84540415 
0.24402906 -0.4841907 -0.8402436 
0.772585 -0.55453306 -0.30920163 
0.30173457 -0.59904444 -0.74168867 
0.051555008 -0.046642408 -0.9975804 
-0.09937877 -0.068200625 -0.9927097 
-0.27407366 0.0751653 -0.9587669 
0.3656383 0.2287483 -0.90221006 
0.09941323 -0.054993 -0.9935255 
0.1700612 0.15595679 -0.97301424 
0.30563995 0.17313357 -0.93627405 
0.17431077 -0.16441475 -0.9708675 
-0.08710812 -0.3926795 -0.9155408 
0.11995125 -0.42552888 -0.8969598 
0.12929954 -0.45377237 -0.8816873 
-0.7673811 0.12437785 -0.62901235 
-0.21260394 -0.46647656 -0.858603 
-0.19546796 -0.043628488 -0.9797392 
0.36708388 -0.35875997 -0.85821956 
0.28552565 0.26848242 -0.9199959 
0.20397119 -0.5072519 -0.837312 
0.28685188 -0.530949 -0.7973765 
-0.092190005 -0.91888505 -0.38360313 
-0.74751353 -0.63925785 -0.18047985 
-0.68613 -0.631285 -0.36153144 
-0.5804763 -0.5011309 -0.64180624 
-0.060554136 -0.28441077 -0.95678824 
0.17921057 -0.35274273 -0.9183988 
-0.12378098 -0.277587 -0.9526929 
-0.25528392 -0.196642 -0.94665843 
-0.5289109 -0.34097028 -0.77716964 
-0.29290542 -0.6392453 -0.7110358 
-0.81945974 -0.1609562 -0.5500717 
-0.41279554 -0.016172627 -0.9106802 
-0.30811122 0.11581368 -0.9442748 
-0.55255014 0.142246 -0.8212518 
0.038864452 0.24071659 -0.96981704 
-0.42591473 0.19016902 -0.8845521 
0.3328301 0.16496928 -0.92844456 
-0.59247416 -0.79682577 0.11850399 
0.03499948 -0.5170171 -0.85525924 
0.4630323 -0.44496265 -0.76655686 
0.35273743 -0.05859583 -0.93388593 
0.038119648 0.5671275 -0.82274747 
-0.04224591 0.4681514 -0.882638 
0.27327472 -0.269794 -0.9233267 
0.5810556 -0.23539281 -0.7790794 
-0.10241745 -0.67051625 -0.73479164 
-0.19535968 -0.3889872 -0.9002908 
-0.32611325 -0.5151489 -0.7926359 
-0.013426479 -0.87685007 -0.48057663 
-0.26818037 -0.1278487 -0.95484763 
-0.525219 -0.84632486 -0.088766314 
-0.5388247 -0.72461927 -0.42964512 
-0.91828513 -0.32739136 -0.22263773 
-0.037632335 0.26981896 -0.9621754 
0.37494507 0.4268455 -0.8229332 
-0.10562383 -0.5743998 -0.8117318 
-0.012747627 -0.5870036 -0.809484 
0.06229713 0.83108723 -0.55264205 
-0.024085935 0.040819254 -0.9988763 
0.36561143 -0.16901733 -0.9152931 
0.2184235 -0.41403043 -0.8836686 
0.5740564 0.12686968 -0.8089273 
-0.27485952 -0.32330433 -0.905498 
-0.11480666 -0.833588 -0.5403245 
-0.6764064 -0.4299563 -0.5980067 
-0.8020205 -0.5843766 -0.12356039 
-0.37095386 -0.88238055 -0.2894784 
0.010501633 -0.72747844 -0.6860503 
0.5164883 -0.50331616 -0.6927573 
0.42171213 -0.67946255 -0.6004079 
0.14077857 -0.416599 -0.898124 
0.27088234 -0.55851823 -0.78401536 
0.07876022 -0.15276693 -0.9851188 
0.15806998 -0.25061205 -0.9550955 
0.018737955 0.08547531 -0.9961641 
-0.096780635 -0.42227864 -0.90128475 
-0.8794708 -0.07690075 -0.46969926 
-0.2584674 0.25100514 -0.93284035 
0.36589333 0.13520068 -0.9207838 
0.4619612 -0.3327187 -0.8221254 
0.48133388 -0.51989836 -0.70570785 
0.3074117 -0.928346 -0.2089782 
-0.8543146 -0.51743925 0.04902163 
-0.7736551 0.27121985 -0.5726234 
0.03814743 -0.20011955 -0.97902864 
-0.4627646 -0.24007148 -0.85335505 
-0.17091231 -0.3549803 -0.9191181 
-0.05497752 -0.4550075 -0.88878894 
0.050464746 -0.47755238 -0.87715274 
0.09127428 -0.19773903 -0.9759961 
0.19144592 0.041824967 -0.9806116 
-0.2590811 -0.57617956 -0.77517366 
-0.6657209 -0.6405342 -0.38279447 
-0.4839246 -0.46282938 -0.7427019 
-0.7485542 -0.5175921 -0.41444558 
-0.7237473 0.15237077 -0.67303276 
-0.4691634 -0.19490165 -0.8613356 
-0.056861594 0.20096166 -0.9779475 
0.00037906072 -0.5012849 -0.8652823 
0.09711123 -0.14572607 -0.9845473 
0.023033557 0.041496336 -0.9988732 
0.7191952 -0.1293732 -0.68265724 
0.30068475 -0.3427373 -0.89001113 
-0.44947922 -0.41969395 -0.78855914 
-0.4753471 -0.22719236 -0.8499582 
-0.2922413 -0.34713706 -0.8911179 
-0.23310764 0.064547405 -0.97030646 
-0.30496457 -0.66635555 -0.6804167 
-0.99521035 -0.009734005 -0.09727092 
-0.17697299 0.02664661 -0.98385495 
0.2979336 -0.55207795 -0.7787461 
0.28788748 -0.28719163 -0.91358733 
-0.09642659 -0.91370153 -0.39478037 
0.087846205 -0.73039836 -0.6773488 
-0.08882195 -0.7844005 -0.6138619 
-0.8286544 -0.5131596 -0.22360495 
-0.6177502 -0.17414795 -0.7668488 
0.275902 -0.7717779 -0.5729197 
0.15742639 -0.98556006 -0.062356662 
0.21758723 -0.82742304 -0.5177131 
0.6098684 -0.30709934 -0.7305824 
-0.11729681 -0.44154617 -0.88953835 
-0.30472004 -0.35524976 -0.88371 
0.43854746 0.073013656 -0.8957373 
0.57357824 0.039618775 -0.8181922 
0.35877442 0.2734043 -0.89248586 
0.62573475 0.5712202 -0.53119075 
-0.29002467 0.6678481 -0.6854667 
-0.08811409 0.5110877 -0.85500026 
0.3808315 -0.2730757 -0.8834009 
0.8240963 -0.2204957 -0.5217729 
-0.14214116 -0.9166011 -0.3736822 
-0.22887409 -0.4423772 -0.86713266 
0.3180214 -0.36948785 -0.8731215 
0.20288719 0.50372446 -0.8397015 
0.0428445 -0.04851428 -0.9979032 
0.26073927 -0.43811208 -0.86027485 
0.7460453 -0.44317243 -0.4970058 
0.0048675863 0.37506527 -0.9269857 
-0.24199009 -0.276334 -0.930097 
-0.3522318 -0.82352895 -0.44467163 
-0.07957723 -0.28169876 -0.95619726 
0.18353088 0.28258288 -0.9415219 
-0.16852613 -0.109336555 -0.97961444 
-0.12030767 -0.000607216 -0.99273646 
-0.004768229 -0.64591736 -0.7633925 
-0.6340805 0.4576301 -0.623311 
-0.68751186 0.62131405 -0.3758942 
0.19112201 -0.43800136 -0.8784231 
0.14966775 -0.6854333 -0.7125874 
0.2159762 -0.88480437 -0.41288698 
-0.5543223 -0.7547119 -0.3509085 
-0.10150279 -0.9412294 -0.32215595 
-0.014143001 -0.37011713 -0.9288775 
0.21005817 -0.7795693 -0.5900401 
0.27756295 -0.5953152 -0.7540283 
0.34068754 -0.70317674 -0.6240789 
0.21848303 -0.4779885 -0.8507598 
0.15837865 -0.063357055 -0.9853437 
0.28519523 0.43038774 -0.85640544 
0.02581533 0.5342524 -0.84493077 
0.3165657 -0.26953918 -0.90946954 
0.37522683 0.20991315 -0.90285176 
0.40058878 0.15249911 -0.90347815 
-0.0097011 0.45552564 -0.8901699 
0.23999864 -0.2757266 -0.9307929 
0.2699183 -0.18587156 -0.94477296 
-0.39933792 -0.3680469 -0.8396849 
-0.74712944 -0.5104712 -0.4256957 
-0.6511777 -0.7457815 -0.14063272 
-0.48185518 -0.36765778 -0.79538894 
-0.068472825 -0.62205684 -0.7799724 
0.42937413 -0.6817338 -0.59234875 
0.55588055 -0.63763636 -0.53330743 
-0.4067496 0.12651144 -0.90473735 
-0.14761715 -0.49509117 -0.8562091 
-0.4002052 -0.56726295 -0.71975595 
-0.25730723 -0.40689227 -0.87648827 
0.17099155 -0.3933249 -0.90335906 
0.30809194 0.119113766 -0.9438704 
0.46650717 0.15231296 -0.8713047 
-0.15273228 0.27120104 -0.95032775 
-0.06167176 -0.29760194 -0.952696 
-0.15930703 -0.72062796 -0.67477155 
0.56524247 -0.5520435 -0.6129837 
0.25716987 -0.6104085 -0.7491764 
0.41533113 -0.37371388 -0.82936 
0.7483301 -0.66332304 -0.002136459 
0.63979155 0.56727475 -0.5185231 
0.718534 0.329728 -0.6123629 
0.97296363 0.13783203 0.18532188 
0.80720913 0.21373472 -0.55021 
0.33109635 -0.60506594 -0.72406524 
-0.31201413 -0.5351551 -0.7850198 
0.340703 -0.5622119 -0.75355107 
0.35821104 -0.85155815 -0.38279706 
-0.3501983 -0.46274808 -0.81438655 
0.14748426 -0.6168984 -0.7731008 
-0.17161964 -0.16035059 -0.972026 
0.11910106 -0.063108295 -0.9908745 
0.07378579 -0.025798712 -0.99694043 
-0.17949712 -0.16716187 -0.96945226 
-0.35156563 -0.793599 -0.4965906 
0.3006228 -0.39591458 -0.86768526 
-0.06905055 0.047558665 -0.996479 
0.54098326 -0.09661107 -0.83546597 
0.67816526 0.057482183 -0.732658 
0.6424061 -0.3116206 -0.7001479 
0.4856554 -0.48138446 -0.7296629 
-0.7571872 0.04439816 -0.6516873 
-0.7962188 0.45780826 -0.395534 
-0.61943007 -0.7797987 -0.090667404 
0.31244177 -0.5453933 -0.7777701 
-0.011067829 -0.3820792 -0.9240634 
-0.32542002 -0.04740671 -0.9443805 
-0.10410724 -0.52082455 -0.8472918 