# OOMMF: rectangular mesh v1.0
# Segment count: 1
# Begin: Segment
# Begin: Header
# Desc: Time (s) :  7.750000000000019e-07
# Title: m
# meshtype: rectangular
# meshunit: m
# xbase: 2e-09
# ybase: 2e-09
# zbase: 5e-10
# xstepsize: 4e-09
# ystepsize: 4e-09
# zstepsize: 1e-09
# xmin: 0
# ymin: 0
# zmin: 0
# xmax: 1.024e-06
# ymax: 1.024e-06
# zmax: 1e-09
# xnodes: 256
# ynodes: 256
# znodes: 1
# ValueRangeMinMag: 1e-08
# ValueRangeMaxMag: 1
# valueunit: 
# valuemultiplier: 1
# End: Header
# Begin: Data Text
-0.06985978 -0.83265084 -0.5493746 
-0.17375726 -0.8855473 -0.43082988 
-0.33703715 -0.6331869 -0.69676423 
-0.2887733 -0.58461225 -0.7581811 
-0.46576285 0.34377494 -0.81540406 
-0.34750476 0.21554573 -0.91256815 
0.050153818 -0.4518813 -0.8906672 
0.49518558 -0.37910828 -0.7817084 
-0.21469738 -0.79150397 0.572212 
-0.78036445 -0.47939032 -0.4015176 
-0.75082904 -0.27483642 -0.60060036 
-0.024179397 -0.41732436 -0.90843594 
-0.19398572 -0.8193805 -0.53943026 
0.21270563 -0.85399824 -0.47480875 
0.08041842 -0.9590529 -0.27157024 
-0.10219575 -0.5128668 -0.85236365 
0.26688176 -0.8947823 -0.3579647 
0.22478208 -0.65585905 -0.72063994 
0.5890562 -0.44328973 -0.67565316 
0.8212431 -0.339311 -0.45872423 
0.7579741 -0.54724413 -0.35496384 
0.75312465 -0.6537338 -0.07372525 
0.050906368 -0.90484643 0.4226838 
0.5409444 -0.83700794 0.08244327 
0.60611993 -0.2203654 -0.7642367 
0.70757085 -0.5390361 -0.45692858 
-0.091964416 -0.83769155 -0.53834516 
-0.538726 -0.8132417 -0.22002792 
-0.42957798 -0.4401351 -0.78850734 
0.22676319 -0.7048043 -0.6721826 
-0.17040901 -0.8925331 -0.41754696 
-0.86059994 -0.2503824 -0.44348228 
0.054350752 -0.9723053 0.22730707 
0.19336456 -0.9676946 -0.16179472 
0.8324284 0.37532413 -0.40767026 
-0.08678369 -0.6595626 -0.7466229 
0.36306188 -0.8818873 -0.30076706 
-0.30607566 -0.08616531 -0.9480998 
-0.028896775 0.057517283 -0.9979263 
-0.4550856 -0.4135873 -0.78857005 
-0.22684854 -0.6911068 -0.68622977 
0.28489488 -0.13274592 -0.94932264 
-0.7748716 0.25582895 -0.57803595 
0.18210621 -0.58897644 -0.7873653 
-0.0011360854 -0.42695507 -0.90427214 
0.46612614 -0.73897207 -0.48646358 
0.35274354 -0.68536144 -0.637065 
0.10751154 -0.96408415 -0.24286419 
0.06638917 -0.9220872 -0.3812452 
-0.2786153 -0.88306206 -0.37759107 
-0.28082827 -0.8977819 0.33929807 
-0.6273576 -0.77270913 -0.09665959 
-0.74595124 -0.040839907 -0.6647473 
-0.5697436 -0.07401111 -0.8184831 
-0.57332253 0.23282945 -0.78555197 
0.023479778 0.034276765 -0.99913657 
0.13477844 -0.98947966 0.052581217 
0.029899023 -0.6199945 -0.78403634 
0.49066967 -0.5478759 -0.677551 
0.60799545 -0.56205416 -0.5607465 
-0.2294406 -0.6415196 -0.73199016 
-0.38825887 -0.67159545 -0.6310425 
-0.5807706 -0.76026696 -0.29103225 
-0.56603676 0.12337115 -0.8150964 
-0.0017112816 -0.87430876 -0.48536706 
-0.3151739 -0.8569012 -0.40790424 
-0.4063917 -0.7466744 -0.5266149 
-0.33755833 -0.22593273 -0.9137882 
-0.18582997 -0.2263031 -0.9561664 
0.87065816 0.29280022 -0.39524966 
0.8435678 0.5315194 -0.076685525 
0.81196725 -0.57781166 -0.08272209 
0.506936 -0.85336375 0.1215982 
0.1907622 -0.6982965 -0.6899216 
-0.123979814 -0.94668865 -0.2973377 
-0.0028005787 -0.9198663 -0.39222223 
-0.18718377 -0.9776878 -0.09533551 
-0.658013 -0.718995 -0.22375257 
-0.63398 -0.66081786 -0.4017328 
-0.61384404 0.21343462 -0.76002717 
-0.23960634 -0.59368724 -0.76819557 
-0.24019475 -0.4289084 -0.8708296 
-0.55723804 -0.82235396 0.1149778 
-0.32216403 -0.7312415 -0.6012456 
-0.6979222 -0.05266467 -0.71423465 
-0.2382957 -0.10230531 -0.9657892 
-0.40607288 -0.6265781 -0.6652103 
-0.6126179 -0.40799072 -0.67693645 
0.1297252 -0.70216113 -0.70010084 
0.004183697 -0.650388 -0.7595906 
-0.002120138 0.1503545 -0.98862994 
0.4650238 -0.1279347 -0.8760055 
0.23692793 -0.10629262 -0.9656952 
0.061625417 -0.5867827 -0.8073961 
-0.51344746 -0.48618457 -0.7071042 
-0.3751817 -0.5229253 -0.7653678 
0.041214466 -0.14220768 -0.9889785 
0.30989397 -0.58746266 -0.747565 
0.8444587 0.45739484 -0.27871034 
0.40921634 0.09273707 -0.9077124 
0.50243795 0.21090034 -0.8384969 
0.4601094 0.16264483 -0.8728379 
0.5405041 -0.526544 -0.65620637 
0.074630365 -0.6955043 -0.7146356 
-0.14641346 -0.55590844 -0.81824744 
-0.024790805 -0.83190525 -0.55436367 
0.057754446 -0.81201637 -0.5807702 
0.4518365 -0.053035814 -0.89052296 
0.10934577 -0.5541527 -0.82520205 
-0.17300835 -0.54045194 -0.8233954 
0.8896626 0.26888096 -0.36905771 
0.11253203 0.95569867 -0.27198642 
0.25128624 0.52730256 -0.8116694 
-0.1201092 -0.44589436 -0.8869905 
-0.04806355 -0.20230491 -0.97814244 
0.3386097 -0.8920545 -0.29930303 
0.14642176 -0.45615825 -0.8777701 
0.17867428 -0.84908396 -0.49712375 
0.18232267 -0.79130393 -0.5836065 
0.19594969 -0.9520695 -0.23487727 
-0.0779227 -0.9385828 -0.3361407 
-0.1091467 -0.8175284 -0.56545055 
0.2906532 -0.49579674 -0.81835586 
0.23987271 0.035837285 -0.97014266 
0.7701058 -0.24145211 -0.59045583 
0.9035648 -0.39826155 -0.15798223 
0.42439127 -0.20068228 -0.8829602 
0.859103 -0.26110238 -0.44019035 
0.62094057 0.06212366 -0.7813921 
0.56158084 -0.8148905 -0.14345862 
0.089081526 -0.4973618 -0.86295766 
0.48134723 -0.27468196 -0.832379 
0.8057181 -0.51232725 -0.29721922 
0.5736836 -0.40105125 -0.7141744 
0.22457089 -0.66358674 -0.71359694 
0.6920597 0.18615097 -0.69742477 
0.5957103 -0.18144868 -0.7824357 
0.07801653 -0.89342535 -0.4423853 
0.30928394 -0.7768089 -0.5485538 
-0.008832199 -0.92719114 -0.37448454 
0.8847436 -0.074579634 -0.46007255 
0.8483507 -0.4876716 -0.20610046 
0.22360139 -0.70020646 -0.67802167 
-0.16413264 -0.8712218 -0.46263728 
-0.9455112 -0.22597492 -0.23440109 
-0.8727 -0.15058659 -0.46445522 
-0.59807193 -0.35500002 -0.7185298 
0.20804697 -0.59749544 -0.77441317 
-0.26187903 -0.48188925 -0.83618313 
-0.41430825 -0.8099377 0.41515014 
-0.8427199 -0.37969345 0.38164917 
-0.37372875 -0.5294019 -0.7616171 
-0.8614846 -0.4931823 0.12089508 
-0.92979985 -0.07482791 0.36037895 
-0.90238106 0.40337273 -0.15165432 
-0.21682854 0.7481312 -0.6271245 
-0.35462025 -0.51926774 -0.7775638 
0.37089422 -0.37810552 -0.8482181 
0.32872337 -0.27085936 -0.9047521 
0.9902351 0.12706082 -0.057358816 
0.5821982 -0.56808424 0.5816576 
0.01013507 -0.84899265 -0.5283076 
0.26734287 -0.7536763 -0.60041636 
0.075757116 -0.9239341 -0.37497568 
-0.5077968 -0.6750225 0.5352448 
-0.43395254 -0.858932 0.2718842 
-0.4677304 -0.70127743 -0.5379947 
-0.46532938 -0.054451954 -0.88346124 
-0.019134045 -0.99957174 0.022145068 
0.43462515 -0.79487336 -0.42341158 
0.5695905 -0.54538476 -0.6149165 
-0.16292837 -0.9412264 -0.295884 
0.5111179 -0.2673928 -0.81685966 
0.37336984 -0.44877985 -0.81190616 
-0.15912063 -0.43722877 -0.88516206 
0.078934304 -0.10850255 -0.9909575 
-0.50140685 -0.84564924 -0.1829443 
0.11675606 -0.49814948 -0.85919446 
0.053103358 -0.6894288 -0.72240436 
0.05710025 -0.20632762 -0.97681546 
0.11676324 -0.19829622 -0.97316235 
0.19486381 0.17658807 -0.96480304 
-0.007526855 -0.4650111 -0.88527286 
0.12894936 -0.39145952 -0.91111565 
0.2511428 -0.5302555 -0.8097879 
-0.0841969 -0.9838977 -0.15765862 
-0.0847472 -0.1430291 -0.98608345 
-0.020886801 -0.7782681 -0.62758464 
-0.6759488 -0.12150794 -0.7268625 
0.26847768 -0.36271432 -0.89238894 
0.4116811 -0.88839173 -0.20317177 
0.23720148 -0.9606787 -0.14433323 
0.8318528 -0.36694565 0.41637942 
0.40405613 -0.7185707 0.5660343 
0.25891683 -0.6912784 0.67460823 
0.40867952 -0.8793767 0.24429028 
0.6911977 -0.67902714 0.24732174 
-0.06470243 -0.8116462 -0.58055514 
0.29386076 -0.81125015 -0.505489 
0.44960308 -0.5173486 -0.7281535 
-0.22896463 0.26362815 -0.9370568 
0.4123675 -0.63561004 -0.6526508 
0.22774684 -0.46559313 -0.8551926 
0.11019524 -0.7213142 -0.6837856 
0.6053116 -0.76588315 -0.2168429 
0.7326823 -0.6802868 -0.01966194 
0.6052699 -0.75659555 0.24741006 
0.045512408 -0.75192094 0.6576805 
-0.80167365 0.13898103 0.58138096 
-0.5466435 -0.603035 -0.5809731 
-0.18042286 -0.6398635 -0.7470089 
-0.20679541 -0.4042622 -0.89095896 
-0.31654796 -0.72746426 -0.60876375 
-0.6818195 -0.19351569 -0.70546013 
-0.75163966 -0.55995154 -0.34855738 
0.095564745 -0.75276464 -0.6513162 
0.22488251 -0.7827695 -0.5802585 
-0.14299248 -0.28478327 -0.9478669 
-0.47662273 -0.56503755 -0.67347115 
0.11816588 -0.22750577 -0.96658057 
0.20825073 -0.3974495 -0.89368093 
0.49799994 -0.2391466 -0.83354974 
0.94427186 0.064973265 -0.32269067 
0.55969566 0.66640127 -0.49259546 
-0.2967605 -0.78899455 -0.5379785 
-0.5808807 -0.6688386 -0.4639317 
0.4774978 -0.3079942 -0.82288235 
0.44149554 -0.56975335 -0.69315434 
-0.35529527 -0.6180582 -0.7012628 
-0.0010663915 0.36447972 -0.9312108 
-0.4114009 -0.2767024 -0.8684383 
0.13424124 -0.093536064 -0.9865244 
0.015551323 -0.084405705 -0.9963102 
-0.4193897 -0.8134716 -0.4029594 
-0.33377546 -0.8875556 -0.31755188 
-0.50502414 -0.65463567 -0.5624969 
0.5932224 -0.555183 -0.58297443 
0.5038984 -0.7014189 -0.5040814 
0.7044039 -0.5001351 -0.50366664 
0.39066544 -0.51804656 -0.7609259 
0.31137377 -0.2587496 -0.9143824 
0.27570468 -0.43051586 -0.8594434 
0.16210878 -0.9823017 -0.09383015 
0.7622605 -0.6356297 -0.1222044 
0.29104432 -0.8587146 -0.42178494 
0.8392571 -0.4019172 -0.36621043 
-0.1489871 -0.984955 -0.08755845 
-0.17739297 -0.7072739 -0.6843211 
0.17397475 -0.25489694 -0.9511889 
0.11542529 -0.03396064 -0.9927355 
-0.050370876 -0.8581074 -0.51099354 
0.088941775 -0.13816732 -0.9864073 
-0.49929094 0.024253003 -0.86609495 
-0.7449362 0.29319662 -0.5992544 
-0.28918827 0.31663856 -0.90338826 
-0.3338619 -0.9210637 0.20044442 
-0.04887137 -0.81950253 -0.5709879 
-0.05913363 -0.7629635 -0.6437314 
-0.7036418 -0.52616906 -0.47752947 
0.0010377128 -0.5482738 -0.83629835 
-0.5956996 0.43283296 -0.67660743 
-0.3210557 0.14693634 -0.93559235 
-0.5185755 -0.19779496 -0.8318393 
0.5737301 0.2528105 -0.7790512 
0.06573272 -0.65956384 -0.7487689 
-0.21730193 -0.0928775 -0.97167575 
-0.29972303 -0.14123762 -0.94351375 
-0.12518243 -0.39355877 -0.91073644 
0.1958642 -0.9116084 -0.36139652 
0.414469 -0.8227582 -0.38895303 
0.55047023 -0.2932946 -0.7816399 
-0.009343951 -0.5157573 -0.85668385 
-0.23549148 -0.44910043 -0.861889 
0.106479585 -0.4874554 -0.8666311 
0.35796067 0.13151371 -0.9244287 
0.054163724 -0.7870469 -0.6145109 
0.79760563 -0.29097202 -0.5283566 
0.32659915 -0.92796224 0.17949717 
-0.6480699 -0.5950165 -0.4753535 
0.1390489 -0.7905216 -0.5964404 
0.29110682 -0.344027 -0.8926939 
0.51695204 -0.30445546 -0.8000423 
-0.22968543 -0.42244527 -0.87680364 
-0.034558367 -0.20506139 -0.9781388 
-0.26847693 -0.5146858 -0.8142596 
0.1203709 -0.74746126 -0.6533089 
-0.4132161 -0.8546022 -0.31449586 
-0.1970759 -0.37569594 -0.90554607 
-0.07370054 -0.99034345 -0.11742279 
0.4377862 -0.89854956 0.030853925 
0.5620792 -0.8035187 -0.19602217 
-0.03728465 -0.9519166 -0.30408043 
-0.2982895 -0.9206719 -0.25176746 
-0.2722802 -0.28434184 -0.9192461 
0.05550881 0.052434698 -0.99708045 
-0.15829356 -0.6536594 -0.74004906 
-0.35113394 -0.3914055 -0.850592 
0.2617867 -0.5212815 -0.8122398 
-0.7149298 0.11119169 -0.6902983 
0.09929453 -0.48375678 -0.86955154 
0.5514089 -0.649425 -0.5236369 
0.39713228 -0.81033987 -0.43085417 
0.4817972 -0.46314895 -0.7438848 
0.6048261 -0.6117593 -0.5098392 
-0.17264447 -0.94343835 -0.28305113 
-0.0220009 -0.91921407 -0.39314315 
-0.440252 -0.8806726 -0.17491104 
-0.45894584 -0.8408313 -0.28700435 
-0.94385725 -0.17492978 -0.2802375 
-0.56435007 -0.70142186 -0.43533492 
-0.05243466 -0.3452706 -0.93703735 
-0.15470971 -0.7392456 -0.65542424 
0.10963158 -0.62008065 -0.7768403 
0.4422256 -0.43879408 -0.782238 
-0.10860456 -0.85554475 -0.5062099 
0.46241692 -0.8104118 -0.35972673 
-0.18318287 -0.6721625 -0.71738535 
-0.37414473 -0.55254763 -0.7447865 
-0.59949434 -0.50358915 -0.6220969 
-0.38462976 -0.17580347 -0.906175 
-0.07451933 0.02980552 -0.9967741 
-0.4315626 -0.41854805 -0.7991066 
0.07734359 -0.69288003 -0.7168928 
-0.53297925 0.011361599 -0.8460521 
0.34617284 0.11656429 -0.93090135 
0.48300794 0.00860353 -0.8755738 
0.48698136 -0.35022488 -0.80011994 
0.16670303 -0.7942454 -0.58428097 
0.06542476 -0.7003804 -0.7107651 
0.1396175 -0.9754912 -0.17007004 
-0.2957831 -0.6440127 -0.70552117 
0.28426787 -0.5642854 -0.77509606 
-0.30472955 -0.7353946 -0.60525596 
-0.55034834 -0.4798163 -0.6832958 
-0.5173713 -0.026437474 -0.8553525 
-0.7176942 0.0600721 -0.6937625 
-0.17345834 -0.18219358 -0.96784186 
0.105576955 0.1159054 -0.98763335 
-0.062417638 -0.6106849 -0.78941005 
-0.4353017 -0.7388887 -0.5143501 
0.048005883 -0.22149388 -0.9739794 
0.358652 0.13124727 -0.92419857 
-0.12954217 0.039075885 -0.99080366 
0.060875066 0.51490265 -0.8550845 
-0.28386506 -0.491767 -0.8231561 
0.20399432 -0.17791161 -0.9626702 
-0.29247898 -0.200356 -0.9350473 
-0.44732532 -0.12556322 -0.88551337 
-0.059046622 -0.18193811 -0.9815356 
0.21609701 -0.12647313 -0.968146 
-0.55857414 -0.09746114 -0.82370895 
-0.05798455 0.014510719 -0.99821204 
-0.43498495 0.25996318 -0.8620947 
-0.14170565 -0.2664112 -0.9533859 
0.24107145 0.36210915 -0.900423 
-0.2716682 0.27781236 -0.92142105 
0.19374432 -0.23117882 -0.95342517 
-0.079536006 -0.31719416 -0.9450195 
0.18133938 -0.5427706 -0.82007074 
0.016671576 -0.18166995 -0.98321825 
0.04972699 -0.28063452 -0.95852566 
-0.26024368 -0.4663341 -0.84546196 
0.31757358 -0.6337822 -0.7053135 
0.92382723 -0.010872798 -0.38265517 
0.020378808 -0.8358845 -0.548527 
0.16175888 -0.4683748 -0.868596 
0.7798524 0.12997949 -0.6123198 
0.60771567 0.20181024 -0.76808476 
0.41335195 0.18536669 -0.8915041 
0.8183424 -0.13721809 -0.55811024 
0.7796946 0.080936305 -0.6209072 
0.063100666 -0.96566784 -0.25199997 
-0.5189781 -0.5808747 -0.6270936 
-0.17584038 -0.68224984 -0.7096587 
-0.415578 -0.7332433 -0.5381907 
-0.556257 -0.5879509 -0.587275 
-0.028239943 -0.9253306 -0.3781083 
0.70128477 -0.4056902 -0.586187 
-0.28010437 -0.83757055 -0.4690599 
-0.031431545 0.21408322 -0.9763096 
0.6524053 0.10584752 -0.7504423 
0.8518697 -0.30812758 -0.42352727 
0.4442573 0.28162047 -0.8504854 
0.5124389 -0.389033 -0.76554537 
0.21528623 -0.20111527 -0.9556174 
-0.11768592 -0.33863577 -0.9335288 
0.1660621 -0.81604373 -0.55362093 
0.28906468 -0.5224244 -0.80219346 
0.50560254 -0.7917957 -0.3426742 
0.58959407 -0.7165152 -0.37280676 
0.6922232 -0.34696013 -0.63280785 
0.9656058 -0.22454114 -0.13109802 
0.77602845 -0.55657184 -0.29666072 
0.90769887 -0.24490283 -0.34074247 
0.24367698 -0.94668967 -0.21071367 
0.3706538 -0.91792244 -0.1415425 
0.33491126 -0.70872873 -0.6209172 
0.28180465 -0.3429621 -0.8960822 
0.3882976 -0.055480305 -0.9198625 
0.10150947 -0.2223271 -0.9696734 
-0.4742658 -0.42374936 -0.7716921 
-0.8725793 -0.1628056 -0.46054313 
-0.43538672 -0.5962477 -0.67448294 
-0.4112164 -0.8060625 -0.42563385 
0.014356761 -0.6244883 -0.7809022 
-0.54685825 -0.83229655 -0.090711325 
-0.23309453 -0.8566419 -0.46025196 
0.2067789 -0.53787786 -0.8172699 
-0.17374504 -0.9843106 0.030745458 
-0.5319128 -0.7517937 0.3897115 
-0.91192156 -0.38073623 0.15309803 
-0.6618587 0.37427273 -0.6495099 
-0.4870563 -0.24260798 -0.8389981 
0.5007525 0.039198454 -0.8647026 
0.6691848 0.4115339 -0.61873394 
0.76301396 -0.6357993 0.11648626 
-0.45361114 -0.85456187 0.25290495 
-0.16621986 -0.3299342 -0.92925483 
0.22628032 -0.37619874 -0.89848304 
0.22064438 -0.947645 -0.23083569 
-0.2101375 -0.6894573 -0.6931746 
-0.656315 -0.5825135 -0.47950885 
-0.37045732 -0.29081777 -0.88214874 
-0.089467525 0.013837752 -0.9958936 
-0.17865635 -0.64060044 -0.7468019 
0.4689873 -0.691605 -0.5493028 
0.4981725 -0.86624545 -0.03798693 
0.8140361 -0.33498606 -0.4744785 
0.30335203 -0.5401047 -0.78502524 
-0.27082384 -0.5624022 -0.78125423 
0.059885386 -0.13717383 -0.98873514 
-0.3143938 -0.5708568 -0.75847155 
-0.2373187 -0.7894317 -0.56610733 
0.16780058 -0.7235126 -0.6696063 
-0.31957462 -0.18365863 -0.92959213 
0.3862912 -0.012277328 -0.9222952 
0.09243151 -0.46366593 -0.8811755 
-0.2586598 -0.13226067 -0.95687103 
-0.42682096 -0.6811164 -0.5948987 
-0.26958758 -0.6164677 -0.7397907 
0.113974005 -0.62038875 -0.77596897 
-0.026397156 -0.90978557 -0.41423833 
-0.40864933 -0.033624254 -0.91207194 
0.101567805 -0.8530687 -0.51181823 
-0.3680119 0.10478111 -0.92389834 
0.38696763 -0.0037277865 -0.9220859 
0.32874662 -0.4579233 -0.82597333 
0.26538503 -0.47574273 -0.83859396 
0.71075267 -0.7034289 0.0042907973 
0.41015604 -0.91184855 0.01744454 
0.3026322 -0.8718081 -0.38518104 
0.010996377 -0.90658826 -0.4218729 
0.2514814 -0.108043484 -0.96181273 
0.2053495 -0.00291995 -0.97868437 
-0.019868474 0.1111011 -0.99361056 
0.58593243 0.08667683 -0.80571103 
0.28560337 -0.17239745 -0.94271415 
-0.42110425 -0.48494408 -0.7664858 
0.2115542 -0.4317362 -0.87684023 
0.4534578 -0.5907324 -0.6673914 
0.049467962 -0.8429926 -0.5356457 
0.10646123 -0.6559826 -0.7472302 
0.08298452 -0.9939497 0.07195509 
-0.35848907 -0.9235873 0.13591255 
-0.7964969 -0.5643708 0.21697526 
-0.84708893 -0.5239876 -0.088754535 
-0.4029697 -0.06799478 -0.9126841 
-0.56507784 -0.6108817 -0.55453634 
-0.23083214 -0.5789552 -0.7820023 
-0.5361986 0.00096478127 -0.8440913 
-0.3112488 -0.5980145 -0.73858166 
-0.13276388 0.20127302 -0.9704963 
-0.34110498 -0.27364758 -0.89931333 
-0.13609485 0.1144922 -0.98405784 
-0.1782112 0.08102327 -0.9806509 
0.11612772 -0.35615498 -0.92718285 
0.7388558 -0.25685304 -0.6229918 
0.32367846 -0.15708292 -0.93303657 
0.7948949 0.17752773 -0.5801949 
0.42976624 -0.2895666 -0.8552498 
-0.41283998 -0.1514171 -0.8981292 
-0.37514865 -0.5682814 -0.7323386 
-0.25327045 -0.5745239 -0.7783165 
-0.7584214 -0.5104464 -0.40526724 
-0.36837468 -0.16874397 -0.914235 
0.48075455 0.59073025 -0.64800686 
-0.6204019 0.44547442 -0.6454874 
0.29754025 0.5547267 -0.7770124 
-0.15496251 -0.10680159 -0.9821304 
-0.5642351 -0.010281344 -0.82555026 
-0.074618354 -0.57307935 -0.81609577 
-0.14747068 -0.116567284 -0.9821734 
0.70690656 -0.21264906 -0.674584 
-0.32248148 -0.5525202 -0.7685878 
0.36036873 -0.35873336 -0.8610719 
0.8436513 -0.39967296 -0.35848865 
0.49603716 -0.5824067 -0.64401066 
0.6056963 -0.60902506 -0.5120747 
0.027317025 -0.71133685 -0.7023202 
0.29640853 -0.0152958315 -0.9549388 
0.833732 -0.42758316 -0.34937602 
0.4302172 -0.1061796 -0.8964592 
0.22026189 -0.48598963 -0.84575343 
0.013573762 -0.021443542 -0.99967796 
0.6476082 -0.14669594 -0.7477191 
0.24085717 0.2578377 -0.93568563 
0.11002074 -0.25220492 -0.96139914 
0.0047919005 0.11761643 -0.9930476 
0.51948166 0.33023918 -0.78808683 
-0.5849176 -0.11908893 -0.8023024 
-0.4988176 -0.6659877 -0.5546544 
-0.30166447 -0.6646436 -0.683555 
-0.41126752 -0.81872904 -0.40067673 
-0.52515155 -0.2706717 -0.8068164 
0.12159883 -0.9226282 -0.36602053 
-0.2651767 -0.40074334 -0.87697554 
-0.6731878 0.18571328 -0.71577144 
-0.25498983 0.23365697 -0.9382882 
0.019677175 -0.57250863 -0.81966263 
0.1714613 -0.29066104 -0.94133806 
0.53237706 -0.70817626 -0.46374685 
0.27607143 -0.038105514 -0.9603815 
-0.2240907 -0.6778994 -0.7001685 
-0.2928745 -0.6246157 -0.7239336 
-0.22342621 -0.8367903 -0.49986273 
-0.17719273 -0.8330063 -0.52412134 
-0.5308194 -0.4102152 -0.741589 
0.34819388 -0.73278546 -0.5846252 
-0.3182199 -0.49121088 -0.8108317 
0.23514903 0.061633334 -0.97000325 
0.66340506 -0.34326547 -0.6648779 
0.49650493 -0.5303436 -0.6871816 
0.8042772 -0.512854 -0.30019847 
0.8068067 -0.40057424 -0.4342848 
0.028977953 -0.49455065 -0.86866564 
0.12180091 -0.7910958 -0.5994431 
-0.24114494 -0.33992088 -0.9090121 
0.04441528 0.053049784 -0.9976037 
-0.7228909 -0.20690754 -0.65925574 
-0.22476515 -0.18426608 -0.9568316 
-0.41191572 -0.33766454 -0.84634995 
0.16838028 -0.72683436 -0.6658528 
0.20396075 -0.90013677 -0.38490778 
-0.035143547 -0.7563841 -0.6531831 
-0.3960414 -0.7459116 -0.5355064 
-0.072021104 -0.7622105 -0.6433105 
-0.08094427 -0.865391 -0.49451634 
-0.46647727 -0.80900663 -0.35764143 
-0.25823197 -0.78114754 -0.5684408 
0.017719375 -0.15134592 -0.9883221 
0.19067548 0.33727124 -0.9218954 
-0.4262548 0.39906484 -0.81182146 
-0.022574944 -0.25416607 -0.96689713 
0.3629046 -0.1340123 -0.92213935 
0.38202897 0.2828302 -0.8798074 
0.432508 0.24976796 -0.86634463 
0.6950194 -0.3043748 -0.65138626 
0.66640294 -0.05267522 -0.7437288 
-0.10927172 -0.5966214 -0.79504883 
0.31563255 -0.89007366 -0.32885405 
0.4714095 -0.6445077 -0.6019825 
-0.05997061 -0.7832551 -0.61880124 
0.07442748 -0.633358 -0.77027154 
-0.6735215 -0.19448993 -0.71312165 
-0.22035164 -0.9120495 -0.34584826 
-0.047641102 -0.82335067 -0.5655299 
-0.6192635 -0.19423178 -0.7607803 
-0.20893368 -0.7854949 -0.5825329 
0.22979565 -0.84067726 -0.49036273 
0.4642224 -0.8853997 -0.023769772 
0.34940445 -0.5852495 -0.73171 
0.2930163 -0.8609691 -0.41578066 
0.3017418 -0.22606857 -0.9261992 
0.013567464 -0.4658685 -0.88474995 
-0.3517962 -0.40575188 -0.8435667 
-0.38189256 -0.21440831 -0.89899236 
-0.2692693 0.080387354 -0.95970416 
-0.51589894 -0.0083746575 -0.8566086 
-0.37960872 -0.33982745 -0.8604734 
-0.32182682 -0.4152131 -0.850897 
0.34806445 0.19997412 -0.9158938 
0.16707075 0.25310385 -0.9529039 
-0.07837175 -0.27174658 -0.9591724 
0.33370584 0.117180176 -0.93536586 
0.028814532 -0.6392435 -0.7684645 
0.5642205 -0.584814 -0.5827932 
-0.3646211 -0.22758429 -0.90291584 
0.49864587 -0.14489947 -0.85460895 
-0.31166857 -0.40527865 -0.8594253 
0.38238943 -0.5575465 -0.7368313 
0.14739348 -0.17578132 -0.97333246 
-0.09174835 0.1074728 -0.9899657 
-0.047762852 0.48816133 -0.87144554 
0.30044827 -0.29006624 -0.9086212 
-0.54232144 0.042359285 -0.8391026 
-0.5598157 -0.15320887 -0.8143301 
0.22187588 -0.49214336 -0.8417636 
0.615574 -0.08190744 -0.78381115 
0.8065728 0.45449764 -0.37798455 
0.37831703 0.41228625 -0.82879215 
0.34369308 -0.26198858 -0.9017966 
0.5425307 -0.008554132 -0.8399924 
-0.34114382 -0.26916537 -0.90065026 
-0.19937283 -0.46641228 -0.8618063 
0.4264257 -0.07537783 -0.90137637 
0.017927062 -0.13729203 -0.9903684 
-0.5085253 -0.55935264 -0.6546196 
0.26963392 0.23895042 -0.9328453 
-0.44321144 0.7314677 -0.51818776 
-0.19860648 0.5396824 -0.8181066 
0.27412224 0.057244442 -0.95998967 
0.7498318 -0.038857322 -0.6604866 
0.34261027 0.32966426 -0.87973845 
-0.18129992 -0.17471671 -0.9677833 
-0.0958781 0.36930057 -0.9243509 
0.14269821 0.013482163 -0.9896745 
-0.17456174 -0.19999528 -0.9641215 
-0.60658234 0.18560499 -0.77305156 
-0.14544804 -0.48614493 -0.86168903 
0.7187145 -0.5325744 -0.4470057 
0.12808505 -0.45569295 -0.8808735 
0.31600118 -0.24686648 -0.91607875 
0.73599577 0.113436446 -0.6674147 
0.6240849 -0.043336954 -0.7801538 
0.14527398 -0.17535338 -0.97372824 
0.36130506 -0.26698878 -0.8934068 
0.5591829 0.23078741 -0.79627377 
0.2078772 -0.82592654 -0.52405405 
-0.08718213 -0.5407401 -0.8366597 
0.18041414 -0.87302226 -0.45308167 
0.2733152 -0.90389764 -0.3290411 
-0.042599786 -0.8250106 -0.5635095 
-0.47098166 -0.61694276 -0.630522 
-0.28225106 -0.7687437 -0.57390547 
-0.1750116 -0.6969469 -0.6954394 
0.4993726 0.1174327 -0.8583919 
0.60378087 0.12296571 -0.78760916 
0.49925867 -0.5577694 -0.6630491 
0.20361945 -0.6046286 -0.7700412 
0.760736 -0.3214795 -0.5638543 
0.4663687 -0.052069828 -0.88305664 
-0.3032533 -0.33346155 -0.8926594 
0.16852449 -0.6885016 -0.7053829 
0.22142152 -0.45155138 -0.86433434 
0.6319383 -0.39905325 -0.66438735 
0.662867 -0.21407665 -0.7174808 
0.58421916 -0.0037916815 -0.81158715 
0.56083536 -0.015819333 -0.8277763 
0.64087915 -0.74256384 -0.19460961 
0.37183735 -0.8000816 -0.47075093 
0.44132268 -0.41513377 -0.79554915 
-0.23236765 -0.92777604 -0.29195377 
0.46009958 0.04472772 -0.88674 
-0.19645824 -0.18933369 -0.9620588 
0.050744127 0.067760065 -0.99641037 
-0.5667575 0.31944034 -0.7594366 
-0.4053452 0.22456856 -0.8861515 
-0.92208123 -0.04667894 -0.38417104 
-0.15337966 -0.28744936 -0.94543517 
-0.6006506 -0.26583982 -0.75402135 
-0.478817 -0.6075113 -0.63377 
-0.20132497 -0.051838465 -0.9781519 
-0.33402693 -0.7128991 -0.6166043 
-0.13787957 0.3049372 -0.94233894 
0.056411408 -0.9823759 -0.17820011 
-0.91659206 -0.3487156 -0.19559288 
-0.7124906 0.3409856 -0.6132585 
-0.64676845 0.23813263 -0.72455746 
-0.18276303 -0.45047686 -0.8738812 
0.2666054 -0.6177007 -0.7398429 
0.5434644 0.14307657 -0.82714903 
-0.19041504 -0.8464463 -0.49726337 
-0.5677672 -0.7668158 -0.29938945 
-0.048769504 -0.6990927 -0.71336603 
0.47290573 0.11350452 -0.8737716 
0.09964122 -0.51839197 -0.84931827 
0.26074445 -0.5736669 -0.77647835 
-0.6734318 -0.34558588 -0.6534983 
-0.08475508 -0.6977729 -0.71128726 
-0.09240734 -0.8334003 -0.5448897 
0.26094016 0.124645874 -0.95727414 
0.15301344 -0.7188473 -0.67811906 
0.37546325 -0.6576048 -0.65313345 
0.02966278 -0.46406952 -0.88530195 
0.3586623 -0.0827855 -0.9297892 
0.033009276 0.20704234 -0.977775 
0.30881697 0.093337886 -0.94653064 
-0.06442385 -0.49018687 -0.86923325 
0.014962098 -0.50945437 -0.8603677 
-0.48639265 -0.38265264 -0.7854931 
0.009922287 -0.6986006 -0.71544313 
-0.30340186 0.37774295 -0.8747901 
-0.23061405 0.015319047 -0.97292477 
-0.23975433 -0.3913028 -0.8884819 
0.25548416 -0.04608746 -0.96571416 
-0.5886112 0.09112477 -0.80326414 
0.17928274 -0.4338079 -0.88298845 
0.034770135 -0.7825146 -0.62166077 
0.21492136 -0.32896265 -0.91956097 
-0.21215217 -0.74094063 -0.6371802 
-0.35007855 -0.5157369 -0.78195935 
0.16603212 -0.18160841 -0.96925324 
0.00059604086 0.08610721 -0.9962858 
0.5264517 -0.40867153 -0.7455443 
0.3609081 -0.9214893 -0.14353703 
0.40270886 -0.9126682 -0.06972961 
0.50063246 -0.6070777 -0.61710924 
0.22618552 -0.1364703 -0.96447706 
0.46281675 0.09465961 -0.8813854 
0.6024454 -0.34038642 -0.72193956 
0.24919343 -0.5688352 -0.7837916 
0.59423727 -0.21141008 -0.77600765 
0.42489845 -0.08572982 -0.90117246 
0.32384396 -0.38719293 -0.8632536 
0.7056205 -0.32192343 -0.6312409 
0.48893934 -0.04810859 -0.8709903 
0.63711625 -0.6951049 -0.33303478 
-0.14687593 -0.46577978 -0.87262636 
-0.39857632 -0.7608753 -0.51206034 
0.10871396 -0.68879986 -0.71675384 
-0.76385945 -0.58242965 -0.27801898 
-0.68695974 -0.69731 0.20456108 
-0.42721054 -0.854456 -0.2956282 
-0.2230206 -0.97177005 -0.07697304 
-0.32924893 0.1442961 -0.9331526 
-0.29116938 -0.57302487 -0.7660697 
-0.009050718 -0.28535888 -0.958378 
0.13185321 0.4459851 -0.88527507 
0.45820013 0.50416183 -0.73203385 
0.4441511 0.51809955 -0.73096013 
0.09773731 -0.5181153 -0.8497083 
0.029807653 -0.48885924 -0.8718533 
0.39820957 -0.798701 -0.4511163 
0.8014631 0.08152469 -0.59246165 
0.26382247 -0.71773064 -0.6444071 
0.33359036 -0.25905627 -0.9064256 
0.07792574 -0.21936293 -0.9725264 
0.23640266 -0.964483 0.1178405 
0.22307405 -0.70854455 -0.66947937 
0.042711165 -0.8357277 -0.5474805 
-0.3917496 -0.2967954 -0.87088746 
0.4400907 -0.104950026 -0.8917992 
0.22166947 0.48608586 -0.8453302 
0.55142885 0.5069279 -0.6625333 
0.22560638 0.12685911 -0.9659237 
-0.17383087 -0.25796634 -0.9503875 
-0.41429973 -0.1766819 -0.8928266 
0.13104354 -0.57275933 -0.8091812 
0.14594957 -0.18088107 -0.9726155 
0.62049586 -0.17314345 -0.7648571 
0.08596399 0.018579151 -0.996125 
0.11131182 -0.16069824 -0.9807069 
0.4653234 -0.3025731 -0.83181953 
-0.06617889 0.05240396 -0.99643075 
-0.19938183 -0.580141 -0.7897362 
0.73637784 -0.18559435 -0.65061706 
0.84790844 -0.4689367 -0.24728455 
0.28623694 -0.16218321 -0.94433314 
0.4591167 -0.20883065 -0.86348236 
0.68394786 0.32163963 -0.6548002 
0.6982106 0.531003 -0.48014352 
0.43811855 0.63286245 -0.6383865 
0.037147 -0.44619715 -0.89416337 
0.25375798 -0.23677391 -0.9378407 
0.6821363 -0.10623273 -0.7234672 
0.39736247 0.1580447 -0.9039496 
0.51815706 -0.014789798 -0.85515755 
0.019793943 -0.14759359 -0.98885006 
-0.07395611 -0.17713486 -0.981404 
-0.11020867 -0.24299999 -0.9637454 
-0.6095954 -0.49829668 -0.6165175 
0.01629026 -0.10483942 -0.99435574 
-0.02370521 0.3954632 -0.91817594 
-0.03398488 0.13173273 -0.9907025 
-0.39268908 0.5897189 -0.70571035 
0.3824385 0.51284647 -0.7685892 
0.6409372 0.31505138 -0.6999587 
0.42627493 0.54873276 -0.7191537 
0.109036595 -0.67809975 -0.72683686 
0.2684469 -0.70480996 -0.6566424 
-0.49230868 -0.6585206 -0.569195 
-0.106112555 -0.4680366 -0.8773152 
0.07178677 0.2045816 -0.97621363 
0.6702411 -0.15485927 -0.72580683 
0.4272393 -0.055452142 -0.9024365 
0.6461048 -0.49644274 -0.5797355 
0.3429828 -0.44106284 -0.82935303 
0.36212596 -0.8867631 -0.28725627 
0.12266423 -0.7982981 -0.58963853 
0.49283662 -0.54908895 -0.6749915 
0.36924875 -0.24870674 -0.89543307 
-0.02260207 -0.62455577 -0.7806532 
-0.2017875 -0.85355514 -0.480339 
0.12552093 0.2021457 -0.97127837 
0.45946994 -0.23778972 -0.85577077 
-0.3345122 -0.554657 -0.76187754 
-0.49326771 -0.41353786 -0.7652931 
0.17006327 -0.8735758 -0.4560086 
-0.2525387 -0.8685273 -0.42647928 
-0.17307247 -0.5947819 -0.7850354 
-0.33324638 -0.6692864 -0.6640804 
-0.3832592 -0.5978589 -0.70404345 
-0.3382379 -0.8451369 -0.41393107 
-0.21339804 -0.9502772 -0.22679211 
-0.715371 -0.66532236 -0.21351938 
-0.048866726 -0.40873295 -0.91134495 
-0.40841568 -0.6116242 -0.67757845 
0.018903224 0.37334797 -0.9274988 
0.16384286 -0.2415385 -0.95645946 
-0.0063698613 -0.35130894 -0.93623793 
0.36946672 0.39921385 -0.8391202 
0.73485667 0.0013852327 -0.67822105 
0.64881134 0.35441554 -0.6733748 
-0.379336 0.44260392 -0.8125307 
-0.41797045 -0.08204856 -0.9047479 
0.0029831124 -0.526117 -0.850407 
-0.10836872 -0.9120807 -0.39543012 
-0.017488137 -0.6439854 -0.7648379 
-0.3595308 -0.28857687 -0.88739 
-0.70031095 -0.25471416 -0.6668473 
-0.8484363 -0.49014902 -0.19977444 
0.33489513 -0.6951076 -0.6361374 
0.31682235 -0.49805713 -0.8071944 
0.34157446 -0.2516393 -0.9055411 
0.46309558 -0.7825253 -0.4161693 
0.41535398 -0.44335744 -0.7943018 
-0.21461846 -0.16801898 -0.9621376 
-0.5168544 -0.01304902 -0.85597396 
-0.23909724 0.23903671 -0.9411131 
-0.355724 0.014074226 -0.9344851 
0.38425407 0.19938776 -0.90143955 
-0.07749948 0.8431962 -0.53199077 
-0.38162038 0.4708799 -0.7953856 
-0.34707758 0.35911483 -0.8663566 
-0.602859 -0.014552107 -0.7977151 
-0.4739189 0.21704634 -0.8534001 
0.29107434 -0.12684393 -0.94825447 
-0.22907262 -0.29489505 -0.92766523 
-0.3957537 0.36781052 -0.8414835 