# OOMMF: rectangular mesh v1.0
# Segment count: 1
# Begin: Segment
# Begin: Header
# Desc: Time (s) :  7.780000000000019e-07
# Title: m
# meshtype: rectangular
# meshunit: m
# xbase: 2e-09
# ybase: 2e-09
# zbase: 5e-10
# xstepsize: 4e-09
# ystepsize: 4e-09
# zstepsize: 1e-09
# xmin: 0
# ymin: 0
# zmin: 0
# xmax: 1.024e-06
# ymax: 1.024e-06
# zmax: 1e-09
# xnodes: 256
# ynodes: 256
# znodes: 1
# ValueRangeMinMag: 1e-08
# ValueRangeMaxMag: 1
# valueunit: 
# valuemultiplier: 1
# End: Header
# Begin: Data Text
-0.13334724 -0.9334459 0.33301243 
-0.8111227 -0.5327201 -0.24143147 
-0.35754693 -0.4655022 -0.8096098 
-0.07436726 -0.79000217 -0.60857713 
0.027911134 -0.28066573 -0.9593997 
0.23254728 -0.71312 -0.66134846 
0.18545923 0.019541197 -0.9824577 
-0.3779399 0.43698496 -0.8162142 
0.67366856 -0.5567715 -0.48597974 
0.59079814 -0.48528942 -0.64455557 
0.71484965 -0.5170618 -0.47078344 
-0.59694284 -0.6267239 -0.50087565 
-0.35229194 -0.7930957 -0.4968801 
0.10228618 -0.83508056 -0.5405349 
0.0014482745 -0.8728672 -0.48795572 
0.34916547 -0.9315219 -0.10173699 
-0.15794747 -0.984863 0.071397096 
-0.3721224 -0.9193715 -0.12759775 
-0.4202467 -0.36085188 -0.8325736 
-0.030191295 -0.7026767 -0.7108685 
-0.25901046 -0.19186495 -0.9466264 
-0.2170229 -0.0075422907 -0.97613746 
-0.2767652 -0.0721687 -0.95822376 
0.16194874 -0.4008196 -0.90172964 
-0.2393929 -0.85956633 -0.45148304 
-0.043342046 -0.6521185 -0.7568772 
-0.2773797 -0.18930294 -0.9419262 
-0.521282 -0.037471633 -0.8525614 
-0.14298311 -0.031355925 -0.98922837 
0.21316361 -0.2158012 -0.95288575 
0.03517693 -0.7807749 -0.6238215 
-0.15734519 -0.23512883 -0.9591439 
0.106614664 0.13091363 -0.98564446 
-0.2668837 -0.2943135 -0.9176887 
-0.024884509 -0.87701875 -0.4798113 
-0.046692066 -0.88168013 -0.46953166 
0.24312037 -0.9699173 0.01236477 
-0.6828458 -0.542036 0.4898149 
-0.009372136 -0.009051299 -0.9999151 
0.6016298 0.68366694 -0.41308728 
0.38245308 0.25077546 -0.8892926 
0.9162857 0.10083879 -0.38762373 
0.9164201 -0.024937028 -0.39944035 
0.45653343 -0.1594462 -0.8753024 
0.29308844 -0.60331714 -0.7416924 
0.035694417 -0.4403532 -0.8971148 
0.52537054 0.048435282 -0.849494 
0.15649517 -0.7682972 -0.6206681 
0.55853176 -0.014962408 -0.82934827 
-0.21562746 -0.26532498 -0.93973804 
-0.2844443 -0.13390298 -0.94929534 
0.3603043 -0.010417306 -0.93277663 
-0.21310227 -0.15708664 -0.9643191 
-0.08248934 0.08998935 -0.99252075 
-0.16696037 0.13062255 -0.97727275 
0.080459416 -0.8187482 -0.5684873 
-0.45330098 -0.26301616 -0.8516693 
-0.8398204 -0.4814786 -0.2507588 
-0.7642727 0.4633418 -0.4485551 
0.43137088 -0.43194655 -0.79204893 
0.22461729 -0.95278996 0.20430021 
0.67780936 -0.39818826 -0.61807823 
0.64914143 -0.71025676 -0.27230638 
0.7620118 -0.022869132 0.6471592 
0.88684344 -0.4618023 0.015729025 
0.29270345 -0.76362675 -0.5754988 
-0.2543071 -0.37823716 -0.89009243 
0.6665739 -0.273008 -0.69364685 
0.13566373 0.0012483647 -0.9907542 
0.44119194 -0.55494386 -0.7052567 
0.6316371 -0.58093935 -0.5133654 
0.5710514 -0.81942755 0.049384043 
0.085666895 -0.9342729 0.34611478 
-0.6155692 -0.69455165 0.37238783 
-0.7667009 -0.4997437 0.40302113 
-0.4939878 -0.7551657 -0.4309302 
-0.8826774 -0.33081254 0.33383188 
-0.64158946 -0.40144223 0.65361094 
-0.9566886 0.2249635 0.18476588 
-0.26408276 0.6618009 -0.7016266 
-0.7771813 -0.24398524 -0.5800521 
-0.379019 -0.4045248 -0.83228856 
0.3217568 -0.49846897 -0.8049854 
0.3928239 -0.8633069 -0.316845 
-0.36036825 -0.87721676 -0.31721547 
0.19227356 -0.96868604 -0.15709324 
0.63842255 -0.48659688 -0.5963557 
0.017166404 -0.99187404 -0.12606086 
0.21094987 -0.9530453 -0.21726649 
-0.22917248 -0.73279583 0.6406951 
-0.3104304 -0.9420554 -0.12713978 
-0.6046167 -0.62308335 -0.49619132 
-0.4457853 -0.7208117 -0.53075975 
-0.40438315 -0.700888 -0.5875631 
-0.42904413 -0.65645957 -0.62046915 
-0.92861 -0.20801693 -0.30726627 
-0.82506317 0.3400714 -0.45124528 
-0.8426772 0.030805338 -0.5375372 
-0.13096032 -0.63236225 -0.76352304 
-0.22566465 -0.6636195 -0.7132214 
-0.2563643 -0.3076251 -0.9163211 
-0.26299655 -0.9521867 -0.15547799 
-0.2731297 -0.61055607 -0.74338514 
-0.20428713 -0.022002252 -0.9786638 
-0.10258272 -0.35056126 -0.9309048 
0.02111211 -0.25913155 -0.96561134 
-0.71178293 -0.09707465 -0.69565916 
-0.034710895 -0.8866115 -0.46121058 
-0.037057977 -0.2684288 -0.96258646 
0.72169316 -0.39140928 -0.57092714 
-0.098308444 -0.0062277005 -0.9951365 
0.17383681 -0.20912065 -0.9623146 
-0.030876892 0.052517273 -0.9981426 
-0.9014577 -0.42270407 -0.09324905 
-0.93530095 0.16380931 0.313654 
-0.8315452 -0.3469384 0.43378177 
-0.24231128 -0.4886111 -0.8381793 
-0.5223568 -0.5004763 -0.6904106 
-0.731074 -0.28946602 -0.6178514 
0.34499398 0.39976633 -0.849215 
-0.39377642 0.65497345 -0.6449418 
-0.08210806 -0.5454669 -0.83410084 
-0.27352563 -0.14313732 -0.9511549 
0.06309784 -0.945551 -0.31929922 
-0.2434579 -0.87243265 -0.4237801 
-0.22596653 -0.8525848 -0.47120965 
0.17021938 -0.78874713 -0.59068036 
0.2852746 -0.5486186 -0.78589827 
-0.20683834 -0.5194926 -0.8290629 
-0.11238952 -0.30085337 -0.9470247 
0.1303387 -0.78024715 -0.61174035 
-0.04027149 -0.9233069 -0.38194597 
0.3364429 -0.90419316 0.26313666 
0.5914131 -0.5713853 -0.5689899 
-0.100602955 -0.72891325 -0.67717403 
0.075853154 -0.35199422 -0.93292356 
0.5606119 -0.022129321 -0.8277829 
-0.6941207 -0.15056567 -0.70393646 
0.034886423 -0.31107247 -0.94974566 
-0.107761726 -0.33867052 -0.9347138 
-0.15829976 0.019914353 -0.98719025 
-0.03980774 -0.81515545 -0.57787275 
0.6772025 -0.6798747 -0.28136668 
0.52276105 -0.7337443 -0.43398187 
-0.05245467 -0.7529481 -0.65598613 
-0.58616465 -0.13951214 -0.79808986 
-0.8257107 -0.5626789 -0.03992775 
-0.2454554 -0.522876 -0.81630415 
0.4006343 -0.82737285 -0.39363253 
-0.0017382955 -0.9363731 -0.35100213 
0.17335832 -0.93290854 -0.31564018 
0.19713269 0.2859674 -0.93774277 
-0.5568729 0.6479259 -0.51969665 
-0.7591468 -0.22929586 -0.609196 
0.50881284 -0.43664816 -0.74192184 
-0.45171502 -0.5455044 -0.7059593 
-0.34085125 -0.6891104 -0.6394899 
-0.6609122 -0.60613865 -0.44248277 
0.1430547 -0.25851887 -0.95535517 
0.66578364 -0.21485728 -0.71454084 
0.43271294 -0.8907783 -0.13882959 
-0.14008029 -0.7616826 -0.63262707 
-0.39040753 0.21210364 -0.8958761 
-0.5683048 0.083282895 -0.81859255 
-0.13248698 0.102546245 -0.98586595 
0.28169605 0.1757542 -0.9432698 
0.63685405 -0.43870345 -0.63400024 
0.4252616 -0.69941515 0.5744311 
0.7906973 -0.5964706 -0.13791543 
0.9588465 -0.26140076 -0.11082946 
0.48466426 -0.84975237 -0.20741594 
0.38723373 -0.8872945 0.2505169 
0.24785027 -0.9687976 -0.0012260058 
-0.6010959 -0.79802644 -0.042865437 
-0.7004004 -0.71083635 -0.06442824 
-0.36295864 -0.3231206 -0.8739875 
0.10844743 -0.13756886 -0.9845375 
-0.42759195 -0.2997555 -0.8528257 
-0.31145802 -0.28753796 -0.9057129 
-0.26862064 -0.37840635 -0.8858056 
0.6254939 -0.54927 -0.55412984 
0.4399323 -0.89663017 -0.050139576 
-0.04144345 -0.91836137 -0.39356712 
0.6542969 -0.74751693 -0.114516966 
-0.42417747 -0.50238675 0.7534462 
0.004848226 -0.93109083 -0.36475536 
0.023546161 -0.890403 -0.4545638 
0.11976166 -0.91939074 -0.37467057 
0.05152807 -0.78005314 -0.62358797 
0.1097124 -0.7512134 -0.6508777 
-0.038350895 -0.8802863 -0.47289047 
-0.17462343 -0.36958167 -0.91264236 
0.17080228 0.4579627 -0.8724086 
0.35219797 -0.6710235 -0.6524447 
0.30891508 -0.78658944 -0.534648 
0.4641668 -0.6940736 -0.55028266 
-0.11758055 -0.7845078 -0.6088697 
-0.32762492 -0.8645155 -0.38114944 
-0.41420096 -0.16878997 -0.894398 
-0.024843998 -0.23782639 -0.97099 
0.44845513 0.42655176 -0.78545624 
0.006770423 -0.9052116 -0.4249073 
0.5863511 -0.7293112 -0.35255864 
0.14180157 -0.54733324 -0.82481426 
-0.6054218 -0.43173796 -0.66863054 
-0.23637208 -0.5208 -0.82030225 
0.24371208 -0.24659586 -0.93797386 
0.6421783 -0.3953057 -0.6567652 
0.49816567 -0.6111376 -0.61509496 
0.5230484 -0.7059907 -0.47749105 
0.056183945 -0.3246674 -0.9441581 
0.094601855 -0.53950757 -0.8366494 
0.17526495 -0.30898523 -0.9347782 
-0.5458482 -0.65188414 -0.5263999 
-0.027102463 -0.530312 -0.8473692 
-0.16256793 -0.1526509 -0.9748177 
0.15213032 -0.2656178 -0.95199984 
0.37024385 -0.90797114 -0.19623424 
0.9762704 0.025958853 -0.21499398 
-0.18997048 -0.98172486 -0.011299418 
-0.4722737 -0.84345007 0.25602657 
0.05245443 -0.8419994 0.53692234 
-0.58574283 -0.5935491 0.55191016 
-0.019007815 -0.9061364 0.4225583 
-0.10186752 -0.67430943 -0.731389 
-0.3623203 -0.91293836 0.18779686 
-0.19685845 -0.7734834 -0.6024701 
0.32436967 -0.8794657 -0.34831664 
0.43256667 -0.5527768 -0.7122668 
0.26806986 -0.8972127 -0.35092455 
0.24161443 0.26225594 -0.93426144 
0.362581 0.020026704 -0.93173707 
0.54398674 0.08377945 -0.8349009 
-0.0500383 0.008844278 -0.9987081 
0.1777666 -0.36968002 -0.9119955 
0.35976586 -0.9327774 -0.022247424 
0.3285298 -0.72220266 -0.6086802 
0.19708464 -0.93642896 -0.29027328 
0.27475178 -0.17795694 -0.94490355 
-0.28892684 -0.57136494 -0.7681558 
0.34423646 -0.9343363 -0.09228759 
0.61278623 -0.7789112 -0.13338085 
0.37499332 -0.71970564 -0.58429784 
0.18927956 -0.89336914 -0.40751055 
0.35656378 -0.89504874 -0.2678619 
0.5376055 -0.6150099 -0.57683897 
0.57653534 0.11890398 -0.8083742 
0.38772583 -0.057479415 -0.9199808 
-0.6073446 -0.4685018 -0.64159065 
-0.9184643 0.38641608 0.08429753 
-0.4692108 0.026273083 -0.8826953 
-0.30614927 -0.25033453 -0.91847986 
-0.16658244 0.71135485 -0.68280643 
0.15716483 0.13642439 -0.9781041 
0.29210758 -0.61508465 -0.7323552 
0.45524374 -0.8022188 -0.38626185 
-0.032950677 -0.88242245 -0.46930256 
-0.17043427 -0.5711034 -0.8029902 
-0.63356334 -0.2662068 -0.72645134 
-0.21967115 -0.2975317 -0.92909604 
0.062249277 -0.2708253 -0.9606137 
0.11345613 -0.40262282 -0.90830755 
-0.14569262 -0.2069336 -0.9674462 
0.09177231 0.3045564 -0.94806296 
0.2670451 -0.021043142 -0.9634543 
0.82348007 0.012351784 -0.5672107 
0.20522435 -0.19935368 -0.9581968 
0.24721834 -0.6954618 -0.674697 
-0.12625493 0.08521572 -0.98833096 
-0.1072106 -0.4665519 -0.87797225 
0.24437453 -0.39354584 -0.8862296 
0.3841315 -0.7542128 -0.5325469 
-0.19759856 -0.93677396 -0.2888068 
0.08896212 -0.7818152 -0.61713123 
0.27706063 -0.7691804 -0.5758463 
0.3172427 -0.52623826 -0.78894264 
-0.3447854 -0.56092143 -0.7526555 
0.45604464 0.14442927 -0.8781591 
0.62427604 -0.05523937 -0.7792485 
0.7136649 -0.42700282 -0.55529374 
0.289954 -0.81930894 -0.49463087 
0.02199398 0.16935404 -0.98530984 
-0.21932381 0.4277299 -0.8768947 
-0.045537826 0.21277377 -0.97603977 
0.08907231 -0.15048096 -0.98459214 
-0.46522477 0.32582307 -0.8230463 
-0.20459715 0.15799019 -0.96601206 
0.23721519 0.21429126 -0.9475274 
0.30441928 -0.2507909 -0.91893035 
-0.1591627 -0.04271648 -0.9863278 
0.13336371 -0.96671516 -0.21834877 
-0.8235539 -0.5433843 -0.1627657 
-0.5822052 -0.49051812 -0.6484051 
-0.90709764 -0.28989834 -0.305177 
-0.643835 -0.45156392 -0.6177107 
0.64803034 0.20960242 -0.7322046 
0.18380469 0.535449 -0.824324 
0.2410439 0.270734 -0.93198764 
0.04734321 0.20373458 -0.9778809 
0.0013192936 0.3694065 -0.929267 
0.36666286 -0.11454436 -0.9232757 
-0.24659951 0.05234702 -0.9677027 
-0.09107231 -0.07044246 -0.9933498 
-0.19985294 -0.40794498 -0.89086455 
-0.30820495 -0.599179 -0.73891425 
-0.54805833 -0.25336078 -0.79714525 
-0.23829272 0.52499694 -0.81706476 
0.04697108 0.8877113 -0.45799825 
-0.14177288 -0.49393633 -0.85786206 
0.42047614 -0.38041 -0.82370394 
0.51202935 -0.074540466 -0.85572755 
0.25259078 0.044309724 -0.9665581 
-0.18171243 -0.632274 -0.7531336 
-0.030635595 0.1633479 -0.98609275 
0.47329682 -0.07343199 -0.8778371 
0.4414739 -0.30771333 -0.8428602 
0.09094288 0.4444033 -0.89119875 
0.95883405 0.27667353 -0.0639456 
0.69836646 -0.3614327 -0.6177789 
0.61027205 -0.7721641 -0.17700493 
0.6716929 -0.7252228 0.15126322 
0.5164382 -0.8282609 -0.21742962 
-0.16739513 -0.58155805 -0.7960962 
-0.15462326 -0.74109036 -0.65335816 
-0.18525171 -0.6858123 -0.7038064 
0.38291106 0.11050349 -0.9171523 
0.301856 -0.2629337 -0.91637814 
0.34213358 -0.83622766 -0.42856514 
-0.68395376 -0.7293652 0.0152853 
-0.36839107 -0.6027472 -0.70780224 
-0.36084098 -0.5091145 -0.7814067 
-0.52918386 -0.78980887 -0.31010705 
-0.8115215 0.064516254 -0.5807501 
-0.86056167 -0.47767606 -0.1768029 
-0.90718806 0.40336734 -0.11960172 
-0.07453492 0.59705204 -0.79873246 
0.2563648 0.19083287 -0.9475547 
0.58211005 -0.7990311 -0.15065622 
0.71260595 -0.41802028 -0.5634287 
0.93753004 -0.30333874 -0.17036192 
-0.29696035 -0.4061648 -0.8642018 
0.36093023 -0.6537635 -0.6650735 
0.35736075 -0.3371263 -0.8709989 
0.28468964 -0.74820805 -0.59928006 
0.73562247 -0.4930203 -0.4645326 
0.35872883 -0.6657925 -0.65424305 
-0.6231636 -0.51052815 -0.5924764 
-0.5338771 -0.15220754 -0.83175004 
-0.5425095 -0.5833715 -0.60445124 
-0.58425856 -0.22224285 -0.78054476 
-0.26555318 -0.5029582 -0.82250506 
-0.47581285 -0.12514731 -0.87059766 
-0.21364935 -0.44092566 -0.87174463 
-0.97704285 -0.21063504 -0.031939443 
-0.16615339 0.11820873 -0.97898924 
0.04331144 -0.41376552 -0.9093527 
0.48871806 -0.34094617 -0.8030631 
0.12763116 0.10396111 -0.9863582 
0.39842942 -0.7190636 -0.5693871 
-0.056851782 -0.21753135 -0.9743962 
0.13283165 0.26089883 -0.9561839 
0.1320983 0.30912364 -0.9418029 
0.12847576 -0.13408788 -0.98260593 
-0.18788841 -0.022417279 -0.9819346 
0.17499761 -0.2981357 -0.9383448 
-0.002177853 -0.11025307 -0.9939012 
0.6591627 0.19259378 -0.72691965 
0.67949796 -0.1934607 -0.7077115 
-0.39198115 0.026622012 -0.9195881 
-0.3004444 0.016345749 -0.9536593 
0.27498254 -0.23399538 -0.93254 
0.015541514 -0.8451028 -0.534378 
0.08253354 -0.6818928 -0.7267809 
-0.32989952 -0.48096785 -0.8123031 
-0.07056447 -0.23912527 -0.96842134 
-0.044860397 0.3337601 -0.9415901 
-0.35223415 0.3634237 -0.86246985 
-0.5662575 0.29947954 -0.76789623 
-0.46425298 -0.10005996 -0.8800326 
-0.18247305 0.037489045 -0.98249596 
-0.024593242 -0.48725584 -0.8729129 
-0.20644997 -0.20295593 -0.9571768 
0.7685961 0.18264416 -0.6131078 
-0.045812834 -0.058559578 -0.99723214 
0.33594736 -0.22418165 -0.9148126 
0.4214988 -0.11094592 -0.90001655 
0.05086393 -0.30133173 -0.95216185 
0.5754023 -0.5595086 -0.59654206 
-0.03077345 -0.9220406 -0.38586813 
-0.10468528 -0.38025972 -0.9189361 
0.007854799 -0.6921544 -0.7217068 
0.7362878 -0.07764143 -0.6721995 
0.08295042 -0.0893513 -0.99253994 
0.09208349 -0.08409206 -0.9921941 
-0.513864 0.30102816 -0.80332184 
-0.11902123 0.8405112 -0.5285593 
-0.5772447 -0.010125238 -0.8165085 
-0.14526965 0.255068 -0.9559483 
-0.6003464 0.1719533 -0.7810354 
0.39634967 -0.11454604 -0.910926 
0.07710743 -0.7648487 -0.6395787 
0.21917343 -0.72641736 -0.65136856 
0.5575904 -0.5413502 -0.62931156 
-0.29656333 -0.82945764 -0.47333962 
0.114412904 -0.5241841 -0.8438844 
-0.13233052 -0.6679002 -0.732392 
0.41927186 -0.61104196 -0.67144537 
0.12404763 -0.23881947 -0.96310824 
-0.23582062 0.33116233 -0.91363025 
-0.0913279 0.67357045 -0.73345906 
-0.07197387 0.026821783 -0.9970459 
-0.13030146 0.17795944 -0.97537273 
0.21658376 -0.37187353 -0.9026637 
-0.07509275 -0.51794374 -0.8521123 
0.17548765 -0.35518944 -0.91817456 
0.835465 -0.47564763 -0.2752411 
0.3098494 -0.7093209 -0.6331329 
0.4570177 -0.7056895 -0.5414215 
0.4897254 -0.11114944 -0.86476296 
0.22870103 -0.6822979 -0.6943814 
0.30913478 0.17343213 -0.93507063 
0.7909548 0.24547413 -0.5604755 
-0.106742874 -0.50222725 -0.85812235 
0.27629045 -0.7712211 -0.57348204 
0.53951687 -0.53921306 -0.6466613 
0.59375566 0.0803217 -0.80062646 
0.105902866 0.2541273 -0.96135527 
-0.25626472 -0.91024 -0.3252562 
-0.16385654 -0.94114906 -0.29561722 
0.08120668 -0.7164326 -0.692914 
-0.2450165 -0.2297626 -0.9419003 
0.08294217 0.02433769 -0.9962571 
0.25301167 -0.27154002 -0.92857474 
-0.26255792 -0.60448647 -0.7521033 
-0.34363884 0.030870246 -0.9385944 
-0.25705302 0.45685807 -0.8515894 
-0.45187092 -0.086880274 -0.8878427 
0.27814656 -0.5456097 -0.79053444 
0.009193724 -0.7320796 -0.6811571 
0.024851322 -0.9623368 0.27072227 
-0.7637574 -0.6184088 0.18505469 
-0.4753498 -0.5919119 -0.65090936 
-0.42446786 -0.55413234 -0.7160758 
-0.26198122 -0.27370292 -0.9254472 
0.012858467 -0.49461618 -0.86901647 
0.040222112 -0.41792977 -0.9075886 
0.22546482 -0.8256454 -0.5171801 
-0.56720585 -0.5415283 -0.6205036 
-0.29321918 0.07600514 -0.9530193 
-0.3447874 0.14501695 -0.9274113 
0.22353856 -0.52782124 -0.8194115 
0.8441303 -0.403091 -0.3534993 
0.48027754 -0.3880229 -0.78662056 
0.19995259 -0.6319753 -0.74874985 
-0.4187585 -0.32528684 -0.8478384 
0.22957072 -0.21704476 -0.9487828 
0.5420782 0.46934423 -0.69704175 
0.36189705 -0.15134181 -0.9198512 
0.11036888 -0.53900886 -0.8350379 
0.47010463 -0.09217564 -0.8777843 
0.33926952 0.09238298 -0.93614185 
0.91025037 0.026547974 -0.41320622 
0.29850578 -0.63006693 -0.7168752 
0.7528209 -0.07286676 -0.65417975 
0.632075 -0.27692717 -0.7237352 
0.22976984 -0.012423286 -0.97316575 
-0.034937274 -0.7763382 -0.6293476 
0.23024501 -0.41123295 -0.8819721 
-0.03820101 -0.3458124 -0.9375257 
-0.25698566 -0.6841108 -0.6826059 
0.029389882 -0.33316165 -0.9424116 
-0.56923014 -0.6594691 -0.49099648 
-0.34061453 -0.6322775 -0.69584984 
0.0003474006 -0.7486952 -0.6629144 
-0.101743154 0.12311923 -0.98716265 
0.04054924 -0.9385794 0.3426726 
-0.56487244 -0.8250467 0.014736629 
-0.011235534 -0.9997917 -0.017038157 
0.09955502 -0.9883115 -0.11545185 
0.38114187 -0.6474229 -0.65998065 
-0.07825465 -0.6736289 -0.73491514 
-0.5924361 -0.7319876 -0.33647236 
-0.114852004 -0.5358191 -0.8364848 
0.5960727 -0.22749987 -0.7700267 
0.6392487 -0.5000396 -0.5842273 
0.3783192 -0.4136944 -0.8280892 
-0.22333257 0.17055921 -0.9597043 
0.59984004 0.09697072 -0.794222 
0.63962746 -0.12122221 -0.7590665 
0.35750827 -0.0070041902 -0.9338837 
0.714411 -0.5781202 -0.3942006 
0.5202342 -0.42732468 -0.7394255 
0.08752367 -0.8814669 -0.4640643 
-0.27652758 -0.15644409 -0.94818664 
0.115188025 0.083397865 -0.98983663 
0.15318571 -0.70408785 -0.6933935 
-0.27719253 -0.7579668 -0.5904666 
-0.61612564 -0.776936 -0.12945934 
0.16579479 -0.6647832 -0.7284062 
-0.5425781 -0.3009856 -0.78423005 
0.25566387 -0.7563713 -0.60211164 
-0.20705643 -0.94365764 -0.25814354 
0.11984968 0.1569155 -0.98031306 
-0.48399848 -0.3384013 -0.80698824 
-0.7906143 -0.2546871 -0.5568334 
-0.69594795 0.21321048 -0.68570966 
0.11451125 0.20771992 -0.97146267 
-0.31268921 -0.5650261 -0.7635254 
-0.43776628 -0.35108542 -0.8277075 
0.051774975 -0.4046037 -0.9130253 
-0.30515796 -0.24100815 -0.9213 
0.40022638 -0.91640174 -0.005178915 
-0.27498275 -0.7389667 -0.61507136 
-0.17640235 -0.43276197 -0.8840811 
-0.1423325 -0.3513026 -0.92538 
-0.6481956 0.0364089 -0.76060295 
-0.13792622 0.3877862 -0.91137165 
-0.06269537 -0.33663234 -0.93954664 
-0.87942487 -0.32938614 -0.34368104 
-0.9447113 0.19605464 -0.26283672 
-0.11337251 0.09622283 -0.9888821 
0.4336589 -0.36162663 -0.825328 
-0.19609283 -0.2762447 -0.94087005 
0.37092185 -0.3463017 -0.86167985 
0.493157 -0.6944958 -0.5239007 
0.34038636 -0.3624307 -0.8676296 
0.21340689 0.3027201 -0.92888004 
0.43511632 -0.15163755 -0.8875134 
0.8271185 0.1256466 -0.54780287 
0.57988167 -0.8040064 0.13157128 
0.73883826 -0.3357663 -0.58427656 
-0.15764782 -0.48864558 -0.8581217 
-0.540333 -0.3142613 -0.78056407 
0.12934773 -0.54006046 -0.83162737 
0.22756937 0.18564771 -0.9559012 
0.25278258 0.33452582 -0.90785104 
0.08640995 -0.15961982 -0.98338956 
0.15789706 0.08851941 -0.98348004 
0.066883 -0.42739773 -0.9015864 
0.47538862 -0.30298838 -0.8259563 
0.60138273 0.10172801 -0.7924585 
0.12580459 -0.43159923 -0.8932499 
0.30821303 -0.667253 -0.6780695 
0.3377739 -0.052766114 -0.93974715 
0.23688701 0.15340629 -0.9593493 
0.05871833 0.18473426 -0.98103285 
-0.19395603 0.05386694 -0.9795302 
-0.53182465 -0.38378304 -0.75489944 
-0.6921904 -0.14451978 -0.7070973 
-0.74344677 0.5104523 -0.4321174 
-0.0593327 0.072703436 -0.99558717 
-0.72046614 0.3942607 -0.57051474 
-0.4255553 0.82538277 -0.3710068 
-0.14466624 0.45001137 -0.8812272 
0.29757363 0.36595154 -0.8817763 
-0.20632078 -0.0142107885 -0.9783812 
-0.18521199 -0.13352942 -0.9735843 
0.6981613 -0.18945348 -0.6904189 
0.110549435 -0.527767 -0.84216446 
0.34374282 -0.58357716 -0.73571646 
-0.0835313 -0.6634366 -0.7435553 
-0.47683564 -0.6522534 -0.58923125 
-0.39492366 0.22908494 -0.889694 
-0.1401511 -0.760916 -0.6335334 
0.21515054 -0.0014475847 -0.9765799 
0.44721776 0.05620782 -0.8926573 
0.2789539 0.42993152 -0.8586872 
0.78988475 0.12050882 -0.6012985 
-0.11814312 -0.16502552 -0.97918785 
-0.2439929 0.53031445 -0.81193244 
0.41441792 -0.19432774 -0.8890977 
0.104483284 -0.2756596 -0.95556 
0.45228443 -0.2679782 -0.8506624 
0.5304954 0.7810851 -0.32936448 
0.45907956 -0.18355474 -0.8692259 
0.359291 -0.44747576 -0.81894785 
0.35219556 -0.8765359 -0.32809007 
-0.12440815 -0.99180424 0.029101036 
0.047945246 -0.99837554 0.030782754 
-0.5480518 -0.57770795 -0.6048908 
-0.31505445 -0.6545046 -0.68728775 
0.5020349 -0.24408083 -0.8296901 
0.096843235 -0.5079856 -0.8559043 
-0.23081182 -0.7815786 -0.5795351 
-0.16554072 -0.6629476 -0.7301348 
-0.33357412 -0.34531337 -0.87720406 
-0.3983753 -0.6048266 -0.68955195 
-0.15177864 0.6421649 -0.7513904 
-0.8099644 0.22926846 -0.53980905 
-0.70902073 0.5209198 -0.47532326 
-0.6042547 0.18199287 -0.77572864 
-0.6137376 0.54021466 -0.5757555 
-0.6135807 -0.005802612 -0.7896107 
0.30805784 -0.35873774 -0.88114005 
0.5688747 -0.3180735 -0.7584266 
0.04188262 -0.58326685 -0.8112002 
-0.06362507 -0.71747017 -0.6936775 
0.53899795 -0.35217896 -0.76514786 
0.5497485 -0.6758286 -0.4909505 
0.1557144 -0.9843256 -0.08280266 
-0.07794692 -0.63892734 -0.76530796 
-0.31954643 -0.39470142 -0.8614528 
-0.8945748 -0.3274481 -0.30416048 
-0.7649439 -0.45072538 -0.46011692 
-0.4835849 -0.19648698 -0.85295874 
-0.5807791 -0.4004927 -0.7087322 
0.15140952 -0.3714579 -0.9160209 
0.17663273 -0.3623262 -0.91516155 
0.02869851 -0.8530318 -0.52106935 
-0.23560528 -0.71237737 -0.66106635 
0.46551043 -0.5356995 -0.70450425 
0.51507854 0.06803824 -0.8544385 
-0.015066893 0.08688007 -0.99610484 
-0.07615553 -0.13298903 -0.9881874 
-0.0026717705 -0.60161185 -0.79878414 
0.0608656 -0.18813954 -0.98025453 
0.58347005 -0.41231483 -0.6996851 
0.43806958 -0.00064357294 -0.89894086 
0.05616363 0.37746677 -0.9243185 
-0.04499861 -0.21503772 -0.9755685 
-0.73490787 -0.013575254 -0.6780311 
-0.07483738 0.07685152 -0.99423 
-0.23702642 -0.1308691 -0.9626484 
0.00674139 -0.20134045 -0.97949815 
-0.24571002 -0.300553 -0.9215718 
-0.25813237 -0.29221144 -0.92085844 
-0.8369902 -0.17871821 -0.5172112 
-0.4754895 -0.12143842 -0.8712993 
0.15862177 0.050999347 -0.9860214 
-0.39646056 0.25654748 -0.8814775 
-0.40646756 -0.14821605 -0.9015632 
-0.0824161 0.11381335 -0.99007785 
-0.080093555 0.4722136 -0.8778379 
-0.54083055 0.0058287764 -0.8411114 
0.06877386 0.17334573 -0.9824569 
0.55386597 0.023269212 -0.83228076 
0.23370461 -0.02531924 -0.971978 
0.63832325 0.06929634 -0.7666431 
0.7657971 -0.5703807 -0.29702002 
0.117847405 0.0057990807 -0.99301475 
0.2622168 -0.41049182 -0.8733492 
0.40577412 -0.6419869 -0.6505384 
0.077787936 -0.3076491 -0.9483149 
-0.19859232 -0.8992136 -0.38984096 
-0.7181671 -0.5465837 -0.43067658 
-0.050333954 -0.17455192 -0.98336065 
0.48914048 -0.49040785 -0.72127783 
0.3061174 -0.41853127 -0.8550578 
0.12730375 -0.2969793 -0.94635993 
0.3097454 -0.8373973 -0.4503595 
-0.5845071 -0.56121963 -0.5859898 
-0.7097339 0.07960545 -0.6999577 
-0.5276373 0.28931078 -0.79868525 
-0.107366264 0.4643742 -0.87910706 
0.4069127 0.15522657 -0.9001816 
0.13690409 0.06905545 -0.98817444 
0.7062396 -0.0544218 -0.7058782 
0.77668774 -0.28448582 -0.5619823 
0.42577484 -0.63474643 -0.64483553 
0.31573033 -0.49899957 -0.80704015 
0.41339323 -0.68127036 -0.60413307 
0.14817615 -0.72824734 -0.6691036 
0.36940363 -0.24371098 -0.8967419 
0.81450814 0.102984786 -0.5709385 
-0.21595109 0.6931535 -0.68767977 
0.29496244 0.6145225 -0.7316825 
-0.050768267 -0.5521247 -0.8322145 
-0.17078812 -0.1018606 -0.98002857 
-0.22310522 0.18127348 -0.9577912 
0.39447722 -0.20491369 -0.89576685 
0.08673212 -0.56458265 -0.820807 
0.11201193 -0.33432344 -0.9357784 
0.08159702 -0.40674973 -0.9098882 
0.6895598 -0.37202662 -0.6213722 
0.013006716 0.15555316 -0.98774195 
0.5314567 -0.5341436 -0.65745306 
0.4407238 -0.38873872 -0.80910134 
0.43424666 -0.3022176 -0.84858376 
-0.23033379 -0.78039926 -0.58131194 
0.026762772 -0.6274549 -0.7781928 
-0.3826196 -0.72074145 -0.57804334 
-0.5870267 -0.5411444 -0.6021316 
-0.518816 -0.6481565 -0.5574255 
-0.66668373 -0.6403989 -0.38134238 
-0.28826618 -0.8774271 -0.38343766 
0.44160697 -0.32662004 -0.8356451 
0.15118462 -0.14603136 -0.9776595 
0.46067175 -0.00548549 -0.88755375 
0.07987211 0.113455586 -0.99032736 
-0.6562072 0.048839916 -0.7529986 
-0.16323769 0.29666805 -0.94092596 
-0.45996398 0.2069682 -0.86347985 
-0.014175599 -0.09751036 -0.99513364 
0.46162355 -0.6723517 -0.57865965 
-0.30757603 -0.43080026 -0.8484152 
-0.17206033 -0.8200887 -0.5457562 
-0.64375985 -0.28046817 -0.71197677 
-0.5675495 -0.44888702 -0.6902087 
-0.78697973 0.07449178 -0.6124654 
-0.32067966 0.14787701 -0.93557304 
-0.32659358 0.02651968 -0.94479275 
0.36161676 -0.22545579 -0.9046563 
-0.32461607 -0.70349175 -0.63223714 
-0.10553083 0.12538935 -0.98647904 
0.12431139 -0.4441371 -0.8872931 
-0.2007452 -0.2517953 -0.94673157 
0.33687356 -0.39944848 -0.85261786 
0.033456933 0.17605785 -0.9838111 
0.025668437 -0.09641026 -0.9950107 
0.31725353 -0.54935086 -0.7730225 
0.42704007 0.023775373 -0.90392005 
0.3890084 0.24270587 -0.888688 
-0.24145778 0.16662572 -0.955999 
0.5072298 -0.065267704 -0.8593359 
0.5189671 -0.7117942 -0.4733099 
-0.16036315 -0.0017975996 -0.9870565 
0.4636436 -0.2808564 -0.84033 
0.16289599 -0.41373146 -0.89570713 
0.27072695 -0.23489164 -0.93355924 
0.019529734 -0.2814326 -0.95938224 
0.55700046 -0.27982092 -0.7819532 
0.63684213 -0.45766452 -0.62046385 
-0.507714 -0.61228746 -0.60607815 
0.21588324 -0.09538614 -0.97174895 
0.7164728 -0.6828918 -0.1425681 
-0.47984812 -0.8444794 -0.23790835 
-0.06519829 -0.557053 -0.82791376 
-0.27183992 -0.72200036 -0.63625354 
-0.31837133 -0.683037 -0.6573433 
0.37436607 0.10447008 -0.92137736 
-0.15243019 -0.030307218 -0.98784953 
0.7105571 -0.580568 -0.39755434 
0.054258693 -0.9907605 0.12429677 
0.057365548 -0.9867419 -0.15182087 
-0.16442169 -0.97957855 -0.115721464 
0.10611934 -0.8270723 -0.5519874 
0.087515235 -0.7597199 -0.6443345 
-0.35476544 -0.33528182 -0.8727702 
-0.15573639 -0.031308796 -0.9873024 
-0.5253218 -0.27945447 -0.8037054 
-0.7584797 -0.058586486 -0.64905804 
-0.6656749 0.34806398 -0.66009724 
-0.49490878 0.3059256 -0.81331116 
-0.30293593 0.011715412 -0.952939 
0.8486328 -0.03745041 -0.5276551 
-0.06874008 -0.43876818 -0.89596725 
0.40055892 -0.2162225 -0.8903934 
-0.04187771 -0.3203258 -0.94638145 
-0.6982977 -0.5014104 -0.51085025 
-0.37134674 -0.14793962 -0.9166327 
-0.26592538 0.014376575 -0.96388644 
-0.49262977 -0.06635543 -0.8677055 
0.035602853 -0.6528222 -0.75667405 
0.16517237 -0.23926832 -0.9568013 
0.27364475 -0.3474394 -0.896886 
-0.35365632 -0.063980155 -0.93318474 
-0.7077071 -0.07735466 -0.7022585 
-0.104372054 -0.39600503 -0.9122974 
0.19410323 0.24411578 -0.9501218 
-0.120345175 -0.7832711 -0.60992086 
-0.053099673 -0.8831775 -0.46602374 
-0.63520837 -0.18079668 -0.7508815 
-0.3917564 0.22082677 -0.8931755 
-0.16004074 -0.039899148 -0.9863038 
-0.26485333 0.37466016 -0.8885283 
-0.114903204 0.17330822 -0.97814196 
-0.08276747 -0.7566953 -0.6485074 
0.8402584 -0.39746997 -0.36875933 
-0.7472731 -0.2200406 -0.6270288 
-0.6157505 -0.58532363 -0.5274919 
-0.38487548 -0.47618473 -0.7906448 
-0.23798147 0.017887538 -0.971105 
0.15607902 0.09408138 -0.98325384 
-0.050955664 -0.58892983 -0.80657625 
-0.2595655 0.1898668 -0.9468772 
-0.72516334 -0.15684442 -0.67047596 
-0.54958856 0.43165922 -0.71527815 
-0.22762018 0.2842664 -0.93133324 
-0.35393295 0.45288768 -0.8183058 
0.15240003 0.050253868 -0.9870404 
0.11316794 -0.28551918 -0.95166796 
-0.07820463 -0.4667996 -0.8808986 
-0.03485969 0.335829 -0.94127774 
0.11915297 0.3719191 -0.92058617 
0.4923014 0.07003077 -0.8676031 
0.5185113 0.02810109 -0.85460895 
0.41394863 -0.57353455 -0.706898 
-0.23169436 0.3156552 -0.920152 
-0.030969448 0.45278913 -0.8910796 
0.15316458 -0.24973656 -0.95612365 
0.5178981 0.19552982 -0.8327963 
0.8113646 -0.41423953 -0.41242358 
0.18382698 -0.34683007 -0.9197373 
0.6394879 -0.3428622 -0.6881139 
0.32713607 -0.5366809 -0.777789 
0.52445 -0.06529197 -0.84893423 
0.63883555 -0.39894262 -0.6578251 
0.35262552 -0.51996696 -0.77800363 
-0.37664902 -0.3808092 -0.8444642 
0.06827691 -0.4793361 -0.8749716 
0.19166665 0.17822683 -0.965142 
-0.21640496 0.28525805 -0.93370056 
-0.10958209 -0.80637175 -0.5811682 
-0.25468683 -0.3569909 -0.898717 
0.37176633 -0.28034818 -0.884983 
-0.6317946 -0.21418612 -0.74495643 
-0.4298325 -0.058418266 -0.9010169 
0.02309227 0.6265868 -0.77900946 
-0.32060272 0.49074748 -0.8101733 
-0.18307391 0.15982361 -0.97002083 
0.2102473 0.4728126 -0.8557128 
0.1345832 0.1429159 -0.98054194 
-0.23769066 0.6212838 -0.7466656 
0.7143751 -0.23042212 -0.6607374 
0.6348766 -0.25972733 -0.72764933 
0.4481176 -0.42028612 -0.78901845 
0.19180773 -0.17866008 -0.9650339 
0.54397404 -0.43253076 -0.71903366 
0.35449588 0.36903 -0.8591563 
0.12835215 -0.0426246 -0.99081224 
0.5382386 -0.26116168 -0.80130756 
-0.109688714 -0.16274613 -0.98055196 
-0.033217143 -0.44835228 -0.8932395 
0.73274904 -0.40188444 -0.54915184 
0.032220326 -0.12246408 -0.99194986 
0.33153486 -0.050223 -0.9421053 
0.07341081 -0.41373718 -0.9074318 
0.049985435 0.38448754 -0.9217759 
0.12904519 -0.17181122 -0.9766413 
0.46582228 -0.43273515 -0.7718484 
0.46536186 -0.24507086 -0.8505166 
0.46478453 -0.56780994 -0.6793875 
0.5046616 -0.6272469 -0.593193 
0.09634417 -0.9063314 -0.4114381 
-0.34571728 -0.8930481 0.28800148 
0.35334983 -0.36435243 -0.86162126 
0.047384113 -0.66675377 -0.7437703 
0.097234026 -0.72235477 -0.68465257 
0.4989638 -0.44244766 -0.745168 