# OOMMF: rectangular mesh v1.0
# Segment count: 1
# Begin: Segment
# Begin: Header
# Desc: Time (s) :  7.87000000000002e-07
# Title: m
# meshtype: rectangular
# meshunit: m
# xbase: 2e-09
# ybase: 2e-09
# zbase: 5e-10
# xstepsize: 4e-09
# ystepsize: 4e-09
# zstepsize: 1e-09
# xmin: 0
# ymin: 0
# zmin: 0
# xmax: 1.024e-06
# ymax: 1.024e-06
# zmax: 1e-09
# xnodes: 256
# ynodes: 256
# znodes: 1
# ValueRangeMinMag: 1e-08
# ValueRangeMaxMag: 1
# valueunit: 
# valuemultiplier: 1
# End: Header
# Begin: Data Text
0.06348348 -0.5711071 0.81841713 
-0.44461522 -0.88702947 0.12448287 
0.5068027 -0.86079973 -0.046637297 
-0.24822907 -0.9073979 -0.33913344 
0.17342134 -0.93055654 -0.32247427 
-0.46728638 -0.31755424 -0.8251077 
-0.56085587 -0.32065225 -0.7632974 
0.32620457 -0.43916368 -0.8370937 
0.5347415 0.13911964 -0.8334851 
0.29638794 -0.9499601 0.098641016 
0.238707 -0.82273567 0.51587313 
-0.37557942 -0.8620938 -0.34019756 
-0.48571172 -0.06868778 -0.87141615 
0.65369344 -0.30551535 -0.69234765 
0.725372 -0.490613 -0.48283997 
0.5686529 -0.32433307 -0.75593776 
0.69570065 -0.46454066 -0.5479075 
0.37321627 -0.52332014 -0.76605856 
0.31844243 -0.3491912 -0.88128316 
0.41996023 -0.5131147 -0.7485631 
0.23609297 -0.69401485 -0.6801496 
0.7389304 -0.58971894 -0.32590404 
0.460109 -0.53139544 -0.7112796 
-0.5008396 -0.77197564 -0.39142495 
-0.14428042 -0.44614685 -0.8832532 
0.12138032 -0.93620855 -0.32981864 
-0.39323324 -0.8318878 -0.39157423 
-0.2851542 -0.44614714 -0.84831583 
0.010391584 -0.7421502 -0.6701531 
-0.37147653 -0.6634695 -0.6494717 
-0.34965584 0.22955568 -0.9083199 
-0.34923905 -0.5395096 -0.76613426 
0.61644226 -0.7090662 -0.3423801 
0.6547349 -0.25017256 -0.7132573 
-0.22191317 -0.13810162 -0.965237 
0.2922537 -0.60853267 -0.7377505 
0.24972497 -0.95933014 -0.1316176 
-0.00914431 -0.60550123 -0.7957919 
0.16958858 -0.9775202 -0.12527531 
-0.36771637 -0.6653177 -0.6497207 
-0.2777159 -0.6607661 -0.697325 
-0.1418827 -0.7222844 -0.676886 
-0.36150858 -0.72125065 -0.5908545 
-0.5580164 -0.8021436 -0.21256398 
0.97852033 -0.20541114 0.01744232 
0.1493349 -0.9860574 -0.073416136 
0.27499646 -0.9562112 0.10018514 
-0.25859877 -0.3963232 -0.8809397 
-0.074551694 -0.9617156 -0.2637146 
-0.7656574 -0.6405846 -0.058481716 
-0.24287182 -0.71448 -0.6561492 
-0.3792602 -0.6875953 -0.61917233 
-0.43859142 -0.47116613 -0.7652713 
-0.24958284 -0.4271465 -0.86905366 
0.55991375 -0.3782119 -0.7371922 
0.23087803 -0.2998724 -0.9256197 
-0.067203626 -0.338128 -0.9386976 
0.08034651 -0.70878047 -0.70083857 
-0.096561305 0.22529668 -0.9694934 
-0.12273676 0.099369474 -0.98745203 
-0.47961557 0.3476127 -0.8056888 
0.0074262647 0.64045376 -0.76796085 
0.26658627 -0.439668 -0.85768515 
0.23348363 -0.60642266 -0.7600901 
0.55211854 -0.26713383 -0.7898131 
0.40286103 0.20471907 -0.8920724 
0.44533065 -0.8574949 -0.25764933 
0.04496305 -0.3948013 -0.91766566 
0.35903713 -0.40039715 -0.8430744 
0.13038024 -0.4685819 -0.873746 
0.47586486 -0.5259259 -0.70495015 
0.19949073 -0.06657485 -0.9776355 
-0.20367463 -0.52127624 -0.8287267 
-0.62247777 -0.38568267 -0.6810069 
0.027632307 -0.77165973 -0.6354351 
-0.41969228 0.42760533 -0.8006323 
0.29653668 0.25988677 -0.9189803 
0.6597505 -0.38462508 -0.64559495 
0.14768136 -0.22569634 -0.962939 
0.28598973 -0.8420314 -0.4573763 
-0.51463115 0.030416625 -0.8568721 
-0.34843436 -0.30404302 -0.8866518 
-0.21947049 -0.50137496 -0.8369324 
-0.40163198 -0.05477625 -0.9141616 
-0.9287964 -0.36367756 -0.07124608 
-0.7427687 -0.37447533 -0.5550341 
-0.23667842 -0.31551352 -0.9189312 
0.45726928 -0.8882669 0.043436263 
-0.11326151 -0.99255407 0.04481412 
-0.22460897 -0.7467992 -0.6259728 
-0.49187958 -0.63743365 -0.5930707 
0.42170557 -0.25274202 -0.8707961 
0.7067803 -0.27391234 -0.65225273 
0.35315463 -0.8725177 -0.33763117 
-0.23654185 -0.5858207 -0.775153 
0.2645428 -0.92511284 -0.27236634 
0.049320463 -0.86254984 -0.50356257 
-0.7906831 -0.52492553 -0.31507677 
0.24682112 -0.7645052 -0.5954924 
0.32957137 -0.11903422 -0.9365968 
-0.22881801 0.46670532 -0.8543 
-0.085107 -0.18815733 -0.97844446 
0.28657845 -0.061304953 -0.9560934 
0.90342814 -0.31587735 -0.28989524 
0.3391782 0.2887136 -0.8953226 
0.5754471 -0.015086267 -0.81769985 
-0.40733266 0.4552954 -0.79169846 
-0.06520764 0.56582224 -0.82194483 
-0.7549206 0.35262495 -0.5529473 
-0.87607825 0.23375092 -0.42171967 
0.05733597 0.081119694 -0.99505395 
-0.3662005 -0.645131 -0.67059916 
-0.4675478 -0.7010304 -0.5384752 
-0.23559856 -0.54957914 -0.8015336 
-0.29564768 -0.09017558 -0.95103145 
0.067429505 0.4827422 -0.87316275 
0.008839519 -0.3417393 -0.93975323 
-0.37615 -0.65463054 -0.6557211 
0.43611646 -0.46539572 -0.77020085 
-0.40887555 0.025338616 -0.9122384 
-0.41235885 -0.85195106 -0.3227068 
0.59399647 -0.475685 -0.64876187 
0.22677213 -0.82357335 0.5199052 
0.11772762 -0.61817664 -0.777173 
0.009412608 -0.23988204 -0.9707565 
-0.24808237 -0.27141646 -0.92994 
0.32629788 -0.6198834 -0.7136346 
0.19928934 -0.7780926 -0.59569764 
0.3756249 -0.7251315 -0.5771398 
0.34484172 -0.7932191 -0.5018843 
0.8602923 -0.35631245 -0.36460748 
-0.04588949 -0.36302125 -0.93065023 
-0.2584361 -0.8565232 -0.4467426 
-0.48725048 -0.656915 -0.5753692 
-0.42414215 -0.3209671 -0.8468079 
0.15928192 0.41876757 -0.8940151 
0.09400484 0.18697593 -0.97785646 
0.56397825 0.4492677 -0.6928832 
0.042568874 0.6177045 -0.78525746 
-0.088588744 -0.012964408 -0.99598396 
-0.049361546 -0.13266623 -0.9899309 
-0.052095734 -0.82085806 -0.56875145 
0.940507 -0.0034326904 -0.33975717 
0.7800659 -0.61591935 -0.11018404 
-0.08751023 -0.7185674 -0.6899297 
-0.67549646 -0.4286185 -0.5999923 
-0.96064216 0.26143506 0.09390684 
-0.94452757 -0.15397447 -0.29010272 
-0.9699527 0.18124102 -0.1623071 
-0.9569524 -0.04240811 -0.28713033 
-0.9011756 -0.2839093 -0.3275333 
-0.4296724 0.2742494 -0.86033076 
-0.1690387 0.35576093 -0.91916275 
-0.025642 0.11207777 -0.99336857 
-0.089879476 -0.9172529 -0.38803187 
-0.0040065544 -0.3217527 -0.94681525 
-0.7418029 0.065723814 -0.66738963 
-0.30163106 -0.7020014 -0.64514565 
0.020679621 -0.3141706 -0.9491414 
0.2706672 -0.70137364 -0.6594046 
-0.52166367 -0.7215591 -0.45521384 
0.31195232 -0.56373596 -0.76477945 
-0.49483195 -0.3374332 -0.8007998 
0.10040917 -0.08882517 -0.9909733 
0.022535238 -0.36429477 -0.931011 
0.031479917 0.82400656 -0.5657051 
-0.022280954 -0.031072155 -0.99926883 
0.119656384 -0.66330814 -0.7387183 
0.05459325 -0.9691984 -0.24015447 
0.8306361 -0.24654453 -0.4992589 
-0.29705894 -0.91490036 -0.27333745 
0.038287215 -0.10346806 -0.99389565 
0.7163471 -0.6557923 -0.23829255 
0.44037813 -0.8392502 -0.31894544 
0.1448701 -0.6581528 -0.738815 
0.4020828 -0.656528 -0.63820106 
0.30930176 -0.27118814 -0.9114765 
-0.4039283 -0.9147506 -0.008567824 
-0.4307958 -0.77822435 -0.45692664 
0.25266033 0.36186454 -0.89733875 
-0.12890399 -0.48064318 -0.8673903 
0.23845 0.14827445 -0.95976895 
0.28634557 -0.6971504 -0.6572577 
0.34427112 -0.7577297 -0.5543673 
0.17182522 -0.6400256 -0.7488948 
-0.2723664 -0.95244753 -0.13660274 
-0.027528558 -0.69833654 -0.71524 
0.04515586 -0.9545405 -0.2946412 
0.21501647 -0.30773896 -0.9268575 
0.37792757 -0.7203817 -0.5815678 
0.33319983 -0.43227658 -0.837923 
0.50696635 -0.81483644 -0.28111726 
-0.55697435 -0.33406052 -0.76038367 
0.6263095 -0.011343995 -0.779492 
0.4083346 -0.31646535 -0.8562199 
-0.3687804 -0.05300067 -0.92800426 
-0.6361374 -0.7594286 0.1363726 
-0.9061349 -0.35614806 -0.22820622 
-0.6333241 -0.18327458 -0.75187176 
-0.991117 -0.13238873 -0.012665188 
-0.7910288 -0.2813213 -0.5432605 
-0.6344816 -0.58138084 -0.50934213 
0.46115857 -0.8342991 -0.3021222 
0.27455494 -0.91397035 -0.29879403 
-0.3410388 -0.27384064 -0.8992797 
0.76314354 -0.64620847 0.0051667956 
0.68052244 -0.6709829 -0.29439995 
0.17872745 0.18799983 -0.96577054 
0.08603915 0.2940424 -0.951912 
0.3102832 0.26569936 -0.91275865 
-0.42092985 0.04231831 -0.9061055 
-0.27767152 0.40478355 -0.87123406 
-0.32206136 0.09365689 -0.94207484 
-0.20579782 -0.82849365 -0.5208126 
-0.04660454 -0.9826256 0.17965259 
0.10070766 -0.8143035 0.57163614 
0.08461093 -0.85350394 -0.5141713 
-0.5421324 -0.10803354 0.83331937 
-0.5882204 -0.4032909 -0.700966 
-0.23253424 0.5906045 -0.7727316 
-0.19486685 -0.09710652 -0.9760109 
-0.2854402 -0.2655988 -0.9208589 
-0.7688907 -0.16757485 -0.61702985 
0.18306172 -0.29502982 -0.9377878 
0.33104423 -0.3056178 -0.8927528 
-0.37812078 -0.58417696 -0.71816576 
-0.8537143 -0.20241867 -0.47979012 
-0.37502256 -0.8155031 -0.44080943 
-0.9902396 0.0998961 -0.097192325 
-0.93115574 -0.05935558 -0.35975826 
-0.8606725 -0.2766707 -0.4274299 
-0.30652913 -0.4909274 -0.81549376 
-0.9279058 -0.3350799 -0.16343947 
-0.5280887 0.06759894 -0.84649444 
0.38737702 -0.7897054 -0.47571474 
0.3131908 -0.86446035 -0.39321736 
-0.043221775 -0.24245587 -0.9691992 
0.7531442 -0.32403105 -0.5725188 
-0.10516443 -0.51534534 -0.8505056 
0.10893934 -0.70200753 -0.7037881 
0.57058793 -0.3065177 -0.76189005 
0.5513716 0.100392886 -0.82819724 
0.59213954 -0.57906526 -0.5604055 
0.071678065 -0.20449384 -0.9762401 
0.100221366 -0.14409919 -0.9844751 
-0.06446569 -0.35371354 -0.9331296 
-0.55621475 -0.8001692 -0.22439805 
-0.7810708 -0.52494884 0.3381674 
0.28074235 -0.7577004 -0.5891298 
0.7264521 -0.51056916 0.45998538 
0.41211566 -0.89690936 -0.16035715 
-0.83352447 -0.38490728 -0.39633763 
-0.15441762 -0.12997329 -0.9794193 
0.72010267 -0.551431 -0.4211605 
0.5645069 -0.2950987 -0.77087545 
-0.019738607 -0.98517406 -0.17041866 
0.21295634 -0.9478156 0.23726639 
-0.14278556 -0.42117128 -0.89567137 
0.018428432 -0.99789464 -0.062183235 
0.38369364 -0.79888695 -0.46320498 
0.59267485 -0.7639516 -0.25517568 
-0.044763412 -0.609399 -0.79159904 
0.35712668 -0.09569122 -0.9291414 
0.13164462 -0.2667945 -0.9547201 
0.64681584 -0.46850613 -0.60177344 
-0.36737776 -0.89898705 -0.23844501 
-0.0015192056 -0.991472 0.13031115 
-0.369138 -0.92937416 0.0010076645 
-0.66764134 -0.21271056 -0.71344894 
-0.22457105 -0.37137404 -0.90091574 
0.7017048 -0.3091769 -0.6418879 
0.3433324 0.08585373 -0.9352818 
0.69763577 0.19106674 -0.6905055 
0.6460742 -0.40035126 -0.64985156 
-0.26163232 -0.25891742 -0.9297905 
-0.2156987 -0.3350614 -0.9171739 
-0.17943719 -0.3804106 -0.9072432 
-0.3893179 -0.13411587 -0.91128725 
0.42619556 -0.70917 -0.5616363 
0.4183541 -0.44059432 -0.7942648 
0.10819621 0.019698055 -0.99393445 
0.13079798 -0.24572669 -0.9604741 
-0.3166678 -0.40023163 -0.8599628 
0.6755044 -0.16387767 -0.7189145 
0.5936466 -0.1930217 -0.78123385 
0.62130034 0.026510805 -0.7831239 
0.19269042 0.7202231 -0.6664452 
0.05928614 0.16935071 -0.9837711 
0.07986647 -0.29643646 -0.95170736 
-0.12973703 -0.5166058 -0.8463373 
0.41571045 -0.7802147 -0.46738613 
-0.23106393 -0.3676163 -0.9008151 
-0.124591626 -0.7447758 -0.65558076 
0.008735982 -0.08272094 -0.99653447 
0.26526636 -0.29785946 -0.91701347 
-0.033564325 -0.7547078 -0.6552019 
-0.5560546 -0.26823723 -0.78667164 
-0.2979383 0.07946807 -0.95127165 
-0.18386304 -0.13715558 -0.97333586 
0.2705798 -0.5335565 -0.80131394 
0.8263122 -0.5564071 -0.087288484 
0.129074 -0.91033125 -0.3932391 
0.124546446 -0.98933285 -0.07555719 
0.4223181 -0.43955824 -0.7927396 
0.08553387 -0.27071926 -0.958851 
-0.6346546 0.17588611 -0.7525143 
-0.53450656 -0.034019917 -0.8444793 
-0.26027745 -0.1927585 -0.9460972 
-0.008922164 -0.4695161 -0.88287896 
0.43922043 -0.6417249 -0.62870866 
0.32015637 -0.41727203 -0.85051996 
-0.3274695 -0.03400873 -0.9442496 
-0.061535913 0.09970949 -0.993112 
-0.20884565 -0.24279885 -0.947329 
-0.18393217 -0.12362989 -0.9751332 
0.1014828 0.49961975 -0.86027986 
-0.08114096 0.60080415 -0.79526764 
0.37600225 0.29170653 -0.8795053 
0.04907069 -0.21653983 -0.9750398 
0.08169048 -0.64848125 -0.7568347 
-0.1291268 -0.32247323 -0.93772984 
-0.044775825 -0.6179231 -0.7849626 
-0.20189989 -0.47290358 -0.85767055 
-0.3791156 -0.21759278 -0.89940256 
-0.4208986 -0.8398249 -0.34283873 
-0.45254335 -0.4167037 -0.78839236 
-0.105917774 -0.6518692 -0.7508982 
-0.11810241 -0.023873342 -0.99271446 
-0.24140644 0.103812635 -0.9648554 
-0.26250193 -0.37010103 -0.89113307 
-0.5577011 -0.04319517 -0.8289172 
0.03861236 0.382816 -0.9230174 
-0.14664437 0.56758755 -0.810148 
0.5019089 0.37151965 -0.7810638 
0.0003199768 0.11987384 -0.9927891 
0.06283524 -0.1009183 -0.9929085 
-0.1710418 0.36965653 -0.91329014 
0.09940755 -0.37727752 -0.9207496 
0.043687828 0.16061772 -0.9860494 
0.073665045 0.8630725 -0.49967936 
-0.7081255 0.4116555 -0.57367086 
-0.34330386 0.30728897 -0.8875336 
0.30463248 -0.52496254 -0.79474115 
0.6400417 -0.7633705 -0.08724773 
0.44888884 -0.73393846 -0.50973827 
-0.3885029 -0.6015905 -0.69796443 
0.3892532 -0.8060537 -0.44582456 
0.47543982 0.21235773 -0.85373366 
0.319283 -0.18659356 -0.9291078 
0.16131182 -0.24025118 -0.95721364 
0.35389653 -0.49272373 -0.7949722 
-0.3075928 -0.95026946 -0.048729237 
-0.1413926 -0.98756164 -0.06877667 
0.013484439 -0.916806 -0.39910543 
0.08713408 -0.9915075 0.09654391 
0.14859293 -0.2446687 -0.95815307 
0.41788927 -0.23001158 -0.8788989 
0.058545426 0.41119888 -0.90966374 
0.15420431 0.0959433 -0.98336965 
0.7393327 0.054242775 -0.67115194 
0.6206546 0.39600277 -0.6767347 
0.3093013 0.5752233 -0.75726545 
-0.31301084 0.6398202 -0.70189345 
0.39684469 0.0651397 -0.91557145 
-0.40168366 0.7239209 -0.5608822 
-0.028014375 -0.22640891 -0.9736294 
0.24575163 -0.21060216 -0.94617814 
-0.56453556 -0.37126675 -0.7371978 
-0.19711529 -0.54169077 -0.81713927 
-0.0971316 0.20674029 -0.97356254 
0.05143715 0.006729593 -0.99865365 
0.17126429 0.23793088 -0.95606357 
0.12014083 0.73767823 -0.66437715 
0.54928553 0.028939802 -0.83513355 
0.45497513 0.14804108 -0.8781125 
-0.25662252 -0.315447 -0.91358536 
-0.062117424 -0.6059547 -0.7930702 
0.44445395 -0.85679674 -0.2614575 
-0.43812597 -0.7810324 -0.44501024 
-0.19647858 -0.56999564 -0.7978102 
-0.32327846 -0.3622124 -0.87423867 
-0.3547984 -0.41257495 -0.8389876 
-0.04862837 -0.70454407 -0.7079922 
0.040340528 -0.7141304 -0.6988493 
0.09225753 -0.02824178 -0.99533457 
0.18229416 -0.4872482 -0.8540246 
0.20526892 -0.32900292 -0.9217493 
0.08299334 0.2456714 -0.9657938 
-0.4795738 -0.6801794 -0.5544051 
-0.7960836 0.12067009 -0.59303427 
-0.3756131 -0.4084114 -0.8319344 
-0.261316 0.13032697 -0.9564146 
0.14941749 -0.5387556 -0.82910603 
-0.48953488 -0.115248114 -0.86433417 
-0.30893233 0.5301329 -0.78963286 
-0.52014685 0.28341532 -0.80568177 
-0.044762686 -0.16231576 -0.985723 
0.26337022 -0.63096344 -0.7297406 
0.95634145 -0.27492553 -0.0991313 
0.6949716 -0.66173416 -0.28128716 
0.032486428 -0.6085236 -0.7928706 
-0.40130612 -0.1716374 -0.89971894 
-0.8866744 -0.14663337 0.43852857 
-0.5982291 -0.44253832 -0.6680434 
-0.6662068 0.22672985 -0.71046615 
0.06343575 -0.16418791 -0.9843873 
-0.10694283 -0.11710359 -0.9873449 
0.53586763 0.18100168 -0.8246723 
-0.45698822 0.2355844 -0.8577074 
-0.09064917 -0.16366063 -0.98234314 
-0.33691216 -0.5178937 -0.7863055 
0.056891114 0.14319572 -0.9880579 
-0.14376432 0.13295312 -0.98064023 
-0.26299793 -0.48479733 -0.8341485 
-5.9050173e-05 -0.38760948 -0.92182374 
-0.12506893 -0.3270559 -0.9366922 
0.17761497 -0.26504666 -0.9477359 
-0.0048813066 -0.64657223 -0.7628373 
-0.0057625384 -0.049555086 -0.99875474 
-0.13963713 -0.57635295 -0.8051824 
-0.49328592 -0.2947845 -0.8183955 
-0.36199316 -0.52247095 -0.7720007 
0.51270217 -0.6346064 -0.5782831 
0.27328694 -0.75246376 -0.5992601 
0.25982445 -0.7123069 -0.6520047 
0.67140484 -0.4968464 -0.549872 
0.44177535 -0.3939099 -0.80602086 
-0.12084963 -0.14680766 -0.981755 
0.4649325 -0.060642164 -0.8832669 
0.48130906 -0.115507334 -0.86890715 
0.5109791 -0.68123245 -0.5242354 
-0.064156644 -0.6043335 -0.7941443 
0.96788156 -0.23170753 -0.097554594 
-0.19408944 -0.8599239 -0.47208068 
-0.38033894 -0.5849716 -0.7163453 
-0.14808258 -0.084488355 -0.98535955 
0.04225806 -0.52141756 -0.8522546 
0.3729981 -0.6000079 -0.70771676 
0.11532291 -0.0010939321 -0.9933275 
0.2664225 -0.52749145 -0.80670434 
0.7100573 -0.34465265 -0.6140303 
0.36208403 -0.84897846 -0.38487768 
0.58945817 -0.61497295 -0.5237817 
-0.301849 -0.28241503 -0.9105652 
-0.41158465 -0.057015777 -0.9095864 
0.17450008 -0.5374307 -0.82505643 
0.69909185 -0.39835098 -0.5937905 
0.84764105 -0.4174441 -0.3274833 
0.3005067 -0.84869844 -0.43520877 
0.6532459 -0.06246422 -0.75456476 
0.33905318 -0.06535415 -0.93849444 
-0.20709072 0.39242548 -0.8961672 
-0.7130858 -0.20539264 -0.6703153 
-0.6949928 -0.3496732 -0.62826246 
-0.93870836 0.33958575 0.059229795 
-0.8490954 -0.28629363 -0.44392917 
-0.22533967 -0.37969556 -0.8972477 
0.45925933 -0.403631 -0.7913045 
0.5556556 -0.7980851 -0.23303866 
0.2965207 -0.8940289 -0.33583906 
0.178146 -0.5610268 -0.8084014 
0.048552547 -0.49390414 -0.86815983 
0.32465926 -0.8757921 0.35719007 
0.10937543 0.07086671 -0.9914712 
-0.3269 0.10840703 -0.9388208 
0.06124122 0.04632834 -0.9970473 
-0.048354473 0.4670913 -0.882886 
-0.17272681 0.46481466 -0.86839664 
0.44179425 -0.72719467 -0.52536255 
0.0048104813 -0.1597619 -0.98714393 
-0.57020783 -0.44415483 -0.69107854 
-0.35727653 -0.40961224 -0.8393876 
-0.098217875 -0.024226919 -0.99487 
-0.18885593 0.22500722 -0.9558793 
-0.3008586 -0.11497674 -0.94671255 
-0.089301094 0.13784494 -0.98641986 
-0.70670104 -0.24166878 -0.6649586 
-0.8757988 -0.45413572 -0.1635158 
-0.28296575 -0.066166714 -0.9568451 
-0.16676977 -0.28694597 -0.94331855 
-0.13741897 -0.19450562 -0.9712279 
0.3724303 -0.120916344 -0.9201494 
-0.41758513 -0.27282813 -0.86671084 
-0.32699096 -0.2977133 -0.8969079 
-0.44225937 -0.4425165 -0.78011906 
0.1593463 -0.441491 -0.8830032 
-0.018223995 -0.9050837 -0.42484275 
0.12050095 -0.3658979 -0.9228209 
-0.68296826 0.20057654 -0.70236987 
-0.34424752 -0.13527484 -0.92908263 
0.30980554 0.116654515 -0.9436166 
0.10542473 -0.5128227 -0.85199684 
0.034641683 -0.02660568 -0.99904567 
0.38354266 0.20470335 -0.9005507 
0.65509206 0.29366493 -0.6961432 
0.06275587 -0.3321312 -0.9411433 
0.009341002 0.12936918 -0.9915526 
0.61261106 0.3091037 -0.72743565 
0.12047656 -0.30655223 -0.94419867 
0.68067974 -0.095259376 -0.72636133 
-0.23081236 -0.396753 -0.8884328 
-0.23535675 -0.6789907 -0.69539833 
-0.74749583 -0.49029657 -0.44817325 
-0.032980695 -0.7569934 -0.65258974 
0.14585952 -0.85974985 -0.48944387 
0.26164037 -0.9639786 0.047851782 
-0.24924906 -0.9400421 0.2328001 
-0.06154672 -0.6316344 -0.7728195 
-0.10913864 -0.9346322 -0.33845457 
0.07451022 -0.99714464 0.012278945 
0.44525295 -0.6300787 -0.63620025 
-0.27936754 -0.8244593 -0.49215907 
-0.37282643 -0.86821187 -0.3274273 
-0.10944309 -0.7247461 -0.6802686 
-0.5093553 -0.7476988 -0.4260327 
0.035700254 -0.46300966 -0.885634 
0.2832784 -0.13146979 -0.9499837 
0.012848851 -0.65168905 -0.7583775 
0.560028 -0.12149218 -0.81951714 
0.66370434 -0.48184845 -0.5721178 
0.0058693825 -0.45469797 -0.89062643 
0.16293167 -0.98293203 -0.08542784 
-0.7975669 -0.6028247 -0.022126257 
-0.42234343 -0.59670526 -0.6823261 
0.035233963 -0.53916425 -0.84146327 
-0.10602868 -0.25009385 -0.9623986 
-0.39275476 -0.6062943 -0.69148463 
0.013362511 -0.24952778 -0.9682754 
0.22551627 -0.25455952 -0.9403945 
0.27550647 -0.17857061 -0.944568 
-0.49073157 0.3672526 -0.7901317 
0.113241844 0.6143668 -0.7808519 
-0.06137786 0.09563353 -0.9935226 
0.05229017 0.35095686 -0.93493056 
0.23732233 0.21359718 -0.94765735 
-0.36905926 0.098575465 -0.9241636 
-0.08357469 0.014981257 -0.9963889 
-0.008636116 -0.40125105 -0.9159274 
0.17128295 0.3342468 -0.9267909 
0.423187 -0.56233394 -0.71041775 
0.08541911 0.14449398 -0.98581195 
0.3096103 -0.58120084 -0.7525603 
0.17177401 0.5261599 -0.8328563 
-0.26078445 0.17733906 -0.94896907 
-0.19961096 -0.107315615 -0.97398096 
0.28539726 0.10329205 -0.9528269 
0.26365867 -0.09178185 -0.9602397 
-0.054175664 0.0059403996 -0.99851376 
0.28601187 -0.058709275 -0.9564259 
0.14643243 0.37481976 -0.91546047 
0.664368 -0.31319046 -0.67862135 
-0.549299 -0.4590376 -0.6982515 
-0.53082204 -0.7279315 -0.43398598 
0.017469103 0.28951192 -0.95701504 
0.25818998 0.029815542 -0.965634 
0.43322858 -0.083165325 -0.89743894 
0.7952087 -0.6009547 0.08060272 
0.06300488 -0.8638369 -0.49981636 
0.26351863 -0.6691922 -0.6947948 
0.24631062 -0.04348838 -0.96821475 
-0.4043668 -0.5850411 -0.70300394 
-0.29079688 -0.43022937 -0.8545993 
0.1542486 -0.3229252 -0.93377024 
-0.25417075 0.11425361 -0.9603872 
-0.36048016 0.10549796 -0.9267817 
0.2967944 0.35947368 -0.88469875 
0.6010121 0.6667993 -0.44063962 
0.0042178943 0.24105409 -0.9705025 
-0.42851946 0.1327139 -0.8937327 
-0.25863624 -0.11158816 -0.95950794 
-0.19294807 0.832133 -0.51992863 
-0.26847184 0.9047292 -0.33073887 
-0.3434362 0.25910303 -0.90272766 
-0.23958169 -0.26544896 -0.9338831 
-0.35159332 -0.5777032 -0.7366418 
-0.27998352 -0.6389478 -0.71648794 
-0.63021487 -0.34128723 -0.69738966 
-0.14739782 -0.5402284 -0.828509 
-0.3263148 -0.77799493 -0.53688234 
-0.8508498 -0.2726956 -0.44910115 
-0.5296644 -0.53699416 -0.6565767 
-0.13116597 0.2588117 -0.9569807 
0.1633416 -0.08204359 -0.98315233 
-0.0573176 0.4051351 -0.9124584 
0.26750916 0.35788304 -0.8946277 
-0.24083622 0.26172912 -0.93461 
-0.19868591 0.105196245 -0.9744012 
0.25870597 0.39832628 -0.8800043 
0.42443636 0.49230757 -0.75992566 
0.28944948 0.95294863 0.090044506 
-0.10945815 0.8594121 -0.49942943 
-0.39505833 0.804396 -0.4437072 
-0.64994645 0.09759039 -0.75368816 
-0.03083631 0.066356875 -0.9973194 
-0.4053325 -0.036697455 -0.9134325 
-0.30826116 -0.11306439 -0.9445589 
0.10276253 -0.67383194 -0.73170376 
-0.5930403 0.027943492 -0.8046878 
0.11625881 -0.6330468 -0.7653337 
-0.05326676 -0.9981228 -0.030226972 
0.14047806 -0.25454092 -0.95680445 
-0.30533022 -0.93967485 -0.15422264 
0.0077938316 -0.71713203 -0.6968938 
0.60614806 -0.4271174 -0.67093617 
0.505555 -0.8360413 -0.21318813 
0.71877414 -0.32625562 -0.61393905 
0.6913117 -0.7090088 -0.13926516 
0.1801897 -0.8850345 -0.42923865 
-0.140344 -0.834477 -0.5328713 
-0.30980143 -0.93804157 0.15524504 
-0.44174954 -0.55172306 -0.7074313 
-0.1379818 -0.5044023 -0.8523728 
0.15801434 -0.17882009 -0.9711101 
-0.11024279 0.40266246 -0.9086856 
-0.15639119 0.5424296 -0.8254162 
0.81659806 0.024703214 -0.57667786 
0.98499423 -0.05197552 -0.16457522 
0.024201468 0.20337166 -0.97880256 
-0.26761803 -0.61345655 -0.74300176 
0.04191722 -0.23161261 -0.97190464 
-0.3908509 -0.4461875 -0.80507916 
-0.5416807 -0.56157935 -0.6254685 
-0.10058888 -0.13032551 -0.98635554 
0.010702503 -0.010454767 -0.9998881 
0.018381871 0.48322186 -0.875305 
-0.5157225 0.2041589 -0.8320755 
-0.5698379 0.18997154 -0.7994971 
-0.11946387 0.055781614 -0.99127036 
0.27697158 0.2074091 -0.9382261 
-0.27127326 0.25827467 -0.9272029 
0.16376941 0.7883121 -0.59307986 
-0.6990777 0.22901516 -0.6773791 
-0.54698324 0.28202045 -0.7882092 
-0.5487133 -0.58903205 -0.59325796 
-0.9027978 -0.42560634 -0.06176847 
-0.54256046 -0.44995254 -0.7093454 
-0.024745053 -0.06739166 -0.9974197 
-0.5425277 -0.17272559 -0.8220886 
-0.16053565 -0.48672992 -0.8586748 
-0.30360848 -0.7065913 -0.63917965 
-0.878312 0.18342264 -0.44150206 
-0.4533777 -0.36757225 -0.8119972 
0.32498267 -0.32615268 -0.8876998 
-0.13055043 -0.4050002 -0.90494835 
-0.67022115 -0.703009 -0.23786968 
-0.47892168 -0.78123116 -0.40038982 
-0.84322435 0.047577884 -0.5354523 
-0.21361512 -0.32701367 -0.92055994 
-0.017909927 -0.45607752 -0.8897599 
-0.43470448 0.45508692 -0.777128 
-0.5899782 0.26983753 -0.7609951 
-0.69700164 0.14406441 -0.7024488 
-0.6102272 0.31890622 -0.7252046 
0.772702 -0.5020685 -0.38840574 
0.027273778 -0.6292863 -0.77669483 
0.7942159 -0.24724615 -0.555059 
-0.35782024 0.51073724 -0.7817366 
-0.21318932 -0.051112268 -0.975673 
-0.6091765 -0.618025 -0.49693984 
-0.83703625 -0.46916005 -0.28153014 
-0.19464692 0.40073165 -0.8952803 
-0.31962648 -0.3394872 -0.88463974 
0.23583347 -0.16567643 -0.95756674 
0.36960447 0.24928847 -0.8951245 
-0.46896258 0.87111366 -0.14572282 
-0.33409852 -0.3536277 -0.8736851 
-0.3106881 -0.3967329 -0.8637569 
-0.25666225 -0.61733055 -0.7436582 
-0.118762456 0.09185344 -0.98866504 
-0.8318765 -0.034803458 -0.55386853 
0.08939198 -0.30074152 -0.9495071 
-0.1360175 -0.1255101 -0.9827241 
-0.118661486 -0.3051416 -0.94488525 
0.20846878 -0.48472756 -0.84945863 
0.3143151 -0.8462971 -0.43010163 
-0.101023786 -0.6863438 -0.72022665 
-0.13650368 -0.43835717 -0.88837475 
-0.08150712 0.024428016 -0.9963734 
0.61104965 -0.3858751 -0.691172 
0.18004453 -0.6523981 -0.7361798 
-0.10737183 0.26069427 -0.959432 
-0.13348216 -0.28769317 -0.9483751 
0.037842155 -0.68922836 -0.7235554 
0.2596755 -0.49506626 -0.82914305 
0.3395541 -0.6957293 -0.63298017 
-0.0571868 -0.9877211 -0.1453852 
-0.2129471 -0.7112056 -0.66995543 
-0.75483835 -0.0065770415 -0.65587795 
-0.47966594 -0.27737114 -0.83245766 
-0.044672225 -0.736256 -0.675227 
-0.21452312 -0.90668356 -0.36318707 
-0.27851894 -0.12939948 -0.95167375 
-0.111142956 -0.70654744 -0.6988834 
0.2954476 -0.5284273 -0.79591167 
0.5178166 0.09366536 -0.8503487 
0.6117015 0.19956163 -0.7655042 
0.3943183 -0.44643295 -0.8032501 
0.7087645 -0.4165942 -0.5692998 
-0.17138577 0.003818578 -0.98519665 
-0.26653716 0.24452354 -0.9322909 
-0.19162804 0.19818029 -0.96125096 
0.4364812 0.24949297 -0.86442906 
-0.3577083 -0.044706963 -0.9327626 
0.58209664 -0.3342062 -0.7412623 
0.11397549 -0.40960032 -0.90511733 
0.47273234 -0.19290783 -0.8598318 
0.06888766 -0.108677864 -0.9916873 
-0.3967852 0.085630655 -0.91390854 
-0.63711184 0.2274646 -0.7364431 
-0.91520166 -0.10659688 -0.38864267 
-0.64737695 -0.5139945 -0.56277233 
0.24146122 -0.97038245 -0.0073787454 
-0.052406404 -0.62839854 -0.7761243 
0.23413266 -0.7052788 -0.6691515 
0.8193199 -0.44008356 -0.3674799 
0.757031 -0.61533916 -0.2196857 
-0.7033642 -0.57427037 -0.41891813 
0.24790195 -0.39347583 -0.88528043 
0.7767957 -0.19615804 -0.5984235 
0.603865 -0.51821756 -0.60563815 
-0.22275698 -0.22223017 -0.9492066 
0.022733126 -0.16511773 -0.9860119 
0.13693485 0.19399962 -0.9713975 
0.08415409 0.86901784 -0.4875718 
-0.09848119 0.7944033 -0.59935373 
-0.13768062 0.53428394 -0.83401734 
-0.00043036343 0.1278214 -0.99179715 
0.10483176 -0.26079968 -0.95968425 
0.040421594 -0.13362174 -0.99020773 
-0.092209354 -0.21298544 -0.9726945 
-0.22425894 -0.09904707 -0.9694832 
0.11387335 -0.17522863 -0.97792023 
-0.23409453 -0.40057465 -0.8858553 
-0.57469416 -0.39219987 -0.71826595 
-0.20408024 -0.35781336 -0.91121954 
-0.2606782 0.008669073 -0.9653869 
-0.12851757 -0.23535974 -0.96337384 
-0.42970273 0.075694986 -0.89979213 
0.23840843 -0.33240673 -0.9125061 
0.3787186 -0.3541874 -0.8550577 
-0.07184833 -0.5548591 -0.82883614 
0.6099574 -0.13665602 -0.78056204 
-0.09813957 -0.6882598 -0.71879566 
0.03311498 -0.6994582 -0.713906 
-0.016836958 -0.8314113 -0.5554025 
-0.12894163 -0.8250751 -0.550114 
0.17503165 -0.88421696 -0.4330407 
-0.56742495 -0.32308757 -0.7573925 
-0.34770027 -0.055333775 -0.9359715 
-0.42387164 0.77941066 -0.46135873 
0.2752802 0.17983583 -0.94439393 
0.06946984 -0.1704609 -0.9829126 
-0.27488405 -0.1869154 -0.9431339 
0.022019861 -0.47148514 -0.8815992 
0.548081 -0.57889867 -0.6037247 
0.5355267 0.18793583 -0.82334155 
0.29039103 0.034427624 -0.95628864 
0.26395482 -0.4057031 -0.87506163 
0.13249019 0.0057939705 -0.9911674 
-0.017848654 -0.11708211 -0.9929619 
-0.13568336 -0.16571763 -0.9767946 
0.28564638 -0.58107567 -0.7620743 
0.15421064 -0.75136375 -0.64161646 
0.07923958 -0.6655895 -0.7420996 
0.7562218 -0.5054256 -0.41554037 
0.756489 -0.5125042 -0.40628058 
0.30329862 -0.6440605 -0.7022792 
0.027886078 -0.68822867 -0.7249577 
-0.7048285 -0.23149747 -0.67054147 
0.22187927 -0.8943573 -0.38845176 
-0.5586859 -0.5400744 0.629436 
-0.43723384 -0.41041467 -0.8002415 
-0.31402382 -0.29083544 -0.90377206 
0.24175432 -0.6393497 -0.7299226 
0.111024335 -0.29984432 -0.9475057 
0.36643404 -0.7136169 -0.597057 
0.6753984 -0.69518393 -0.24608217 
0.17733823 -0.86878484 0.46234637 
-0.9056194 -0.42198163 0.042250644 
-0.6139726 -0.3088685 -0.7263869 
-0.15120338 0.005154055 -0.9884893 
-0.63073224 -0.52623117 -0.57031363 
-0.67920715 -0.50898725 -0.52878135 
-0.8545779 0.039996237 -0.5177807 
-0.00019104114 0.19941902 -0.97991437 
-0.16526362 -0.4112806 -0.8964019 
-0.58012176 0.34837872 -0.7362683 
0.16065921 0.09320097 -0.98259974 
-0.37679222 -0.11010147 -0.91973114 
0.32418412 0.31633112 -0.8915376 
0.039343543 -0.8487692 -0.52729785 
-0.51191443 -0.5821488 -0.6317013 
-0.00043450147 -0.2763452 -0.96105844 
-0.28375784 -0.59468806 -0.75221515 
-0.12660156 -0.13976371 -0.98205817 
0.34871137 -0.17376053 -0.92098194 
0.8974745 -0.1969486 -0.3946529 
0.75501674 -0.2559275 -0.6036978 
-0.03454806 0.38835475 -0.9208621 
0.15480578 0.6311254 -0.76007634 
-0.26442394 0.5335269 -0.803386 
0.32548317 0.64634246 -0.69014657 
0.41481668 0.15711494 -0.8962378 
-0.01321682 0.27036288 -0.9626678 
0.22266912 -0.1436546 -0.96425194 
0.25640538 0.16832934 -0.95179915 
0.30625787 -0.28743938 -0.9075157 
-0.13268422 -0.47969308 -0.8673462 
0.21294661 -0.20875926 -0.95450157 
0.055729244 -0.1840692 -0.9813322 
0.07872313 -0.14957634 -0.9856113 
0.85464144 -0.5023375 -0.13132015 
0.11443655 -0.9783777 -0.17228276 
-0.43761194 -0.8012009 -0.4081334 
-0.061139192 -0.754667 -0.6532532 
-0.13543777 -0.16405968 -0.97710854 
-0.3204268 -0.30241707 -0.89770305 
-0.96084017 -0.11686706 -0.2512535 
-0.668781 0.24664491 -0.7013547 
-0.76585823 0.2785894 -0.5795249 
0.002591604 0.45033222 -0.8928574 
0.07396038 0.6782277 -0.7311204 
0.119079016 0.8815827 -0.45676285 
-0.603516 0.51739615 -0.60668755 
0.40887952 -0.2393655 -0.8806371 
0.2673112 0.21570921 -0.9391562 
-0.08365666 0.23495492 -0.9683996 
-0.17530696 0.9228604 -0.34292307 
-0.23853554 0.0076287095 -0.9711038 
0.15809421 -0.4112019 -0.89773005 
0.20361428 -0.42157406 -0.88363826 
-0.067539826 -0.61168015 -0.78821695 
-0.5297611 -0.00057711836 -0.84814674 
-0.31885582 -0.09252531 -0.9432762 
-0.54052424 -0.61344564 -0.575776 
-0.67413145 -0.64483637 -0.36018446 
-0.06721052 -0.6034363 -0.7945737 