# OOMMF: rectangular mesh v1.0
# Segment count: 1
# Begin: Segment
# Begin: Header
# Desc: Time (s) :  7.96000000000002e-07
# Title: m
# meshtype: rectangular
# meshunit: m
# xbase: 2e-09
# ybase: 2e-09
# zbase: 5e-10
# xstepsize: 4e-09
# ystepsize: 4e-09
# zstepsize: 1e-09
# xmin: 0
# ymin: 0
# zmin: 0
# xmax: 1.024e-06
# ymax: 1.024e-06
# zmax: 1e-09
# xnodes: 256
# ynodes: 256
# znodes: 1
# ValueRangeMinMag: 1e-08
# ValueRangeMaxMag: 1
# valueunit: 
# valuemultiplier: 1
# End: Header
# Begin: Data Text
-0.20926748 0.6786878 -0.7039815 
-0.10637259 -0.20537628 -0.9728852 
0.27280384 -0.25869095 -0.9266376 
0.18949947 -0.561412 -0.80554736 
-0.18692599 -0.56964564 -0.80035156 
-0.11747577 -0.5335536 -0.83756787 
0.40558803 -0.69532543 -0.5933136 
0.17460002 -0.5173621 -0.83776563 
0.109184936 -0.8551285 -0.5067879 
-0.4586307 -0.7150929 -0.52754164 
-0.771664 -0.36515558 -0.52076507 
-0.45157906 -0.7083331 -0.54253167 
-0.20550194 -0.28605902 -0.9359163 
-0.51824415 -0.6725724 -0.5282702 
-0.27394798 -0.81744546 -0.5066906 
-0.42299747 -0.9025709 0.08024322 
-0.012852356 -0.5275842 -0.8494055 
0.6105788 -0.7141218 -0.34237936 
0.09504053 -0.2412395 -0.9658006 
0.20224623 0.16443789 -0.96543086 
-0.4301346 -0.5902241 -0.6830957 
0.35235462 -0.37164187 -0.85891134 
-0.28475907 -0.5163568 -0.80764353 
0.14477964 -0.9441669 -0.2959524 
-0.25309956 -0.8175531 0.5172501 
-0.14264472 -0.75055724 -0.64522576 
0.2838276 -0.45768946 -0.8425926 
0.16719772 -0.85279197 -0.49476352 
0.3540745 -0.6740624 -0.64828336 
-0.5283008 -0.762498 -0.3734905 
0.24487813 -0.9628707 -0.11364263 
-0.0630283 -0.6079137 -0.79149765 
0.61588866 -0.47094557 -0.6315786 
0.6566561 -0.49894375 -0.56555986 
0.1233643 0.84025985 -0.52796286 
0.4847398 0.0720419 -0.8716865 
-0.22128972 -0.20602183 -0.9531977 
0.62915725 -0.30355006 -0.7155547 
0.3329381 -0.6761364 -0.6572609 
-0.34159264 -0.0855036 -0.9359507 
0.12151697 -0.12306436 -0.98493093 
0.1251471 -0.004303676 -0.9921289 
-0.49122024 0.09418879 -0.8659279 
0.60518044 0.2081957 -0.76838225 
-0.24060899 -0.88680774 -0.3945623 
-0.564148 -0.6311328 -0.5323613 
0.19609578 -0.6790753 -0.70739186 
0.7882217 -0.47389853 -0.39258984 
0.555898 -0.8065959 -0.20094877 
0.17560025 -0.95018905 0.25749847 
-0.61183876 -0.74301 0.27127394 
-0.67944175 -0.6989468 -0.22323154 
-0.49318293 -0.42665696 -0.7581124 
0.34710538 0.007145015 -0.9377989 
-0.49335665 -0.20802255 -0.84458625 
-0.39118186 -0.29679504 -0.8711427 
-0.45199764 -0.18452059 -0.8727259 
-0.32151005 -0.37907758 -0.86771625 
-0.5098402 -0.1739235 -0.8425043 
0.30592513 -0.21342564 -0.92782503 
0.006401382 -0.3653525 -0.9308472 
0.059452273 -0.46391156 -0.8838843 
0.43937436 -0.33360687 -0.83406043 
-0.1616386 -0.677639 -0.71741086 
0.60258216 -0.31577262 -0.7329273 
0.7975291 -0.3580055 -0.48557124 
0.588307 -0.08940879 -0.80367965 
0.048946142 0.17693046 -0.98300564 
0.40549254 -0.1795669 -0.89628774 
-0.049305074 0.7280791 -0.6837178 
0.59540856 0.20157026 -0.77772623 
-0.1708093 -0.3263508 -0.9296878 
-0.0632698 -0.26991054 -0.96080446 
-0.47990578 -0.8385467 -0.25793386 
0.21579632 -0.49415156 -0.8421676 
0.4422575 -0.68025273 -0.58452076 
-0.21833387 -0.37110347 -0.9025589 
-0.20406535 -0.9593454 -0.19497116 
-0.8424892 -0.52102053 -0.13692978 
-0.61513597 -0.7883106 0.013200639 
0.16099556 -0.90070593 -0.40349647 
0.048538495 -0.4203277 -0.9060732 
0.8636694 -0.3541182 -0.3587135 
0.08531515 -0.24398462 -0.96601915 
0.58787626 0.24599345 -0.77064186 
0.15937965 0.16394463 -0.9735093 
-0.4189467 -0.25451586 -0.8716109 
0.69896066 -0.067434974 -0.7119737 
-0.37174067 -0.5324289 -0.76047903 
-0.28922904 -0.4224043 -0.85902345 
-0.081133105 -0.7100995 -0.6994113 
0.16680783 -0.9761253 -0.13912076 
0.100849874 -0.90135384 -0.4211778 
0.07812064 -0.57811505 -0.81220704 
0.007009925 -0.70854795 -0.705628 
0.12655275 -0.51667655 -0.8467762 
-0.6236878 -0.55484563 -0.55059963 
0.036056336 -0.40082327 -0.9154456 
-0.13137051 -0.93002146 -0.3432229 
0.11043203 -0.8616094 -0.49541298 
0.09122745 -0.61595803 -0.78247905 
0.13368574 0.0513529 -0.98969245 
-0.209146 -0.49011824 -0.8461927 
-0.08337016 0.01351463 -0.99642706 
0.5515821 0.20892029 -0.807533 
0.69708073 0.27337575 -0.6628305 
0.31656614 0.29950443 -0.9000461 
-0.57922846 -0.57321745 -0.57958275 
0.042936508 -0.42595333 -0.9037258 
0.070072204 -0.097562306 -0.9927596 
-0.30478948 -0.20115152 -0.9309358 
0.39322984 0.0025964207 -0.9194366 
-0.09930549 -0.82827693 -0.55144876 
-0.2215838 -0.8353712 -0.50304645 
0.056356512 -0.24744043 -0.9672628 
-0.030860538 -0.034540705 -0.99892676 
0.43885925 -0.03833276 -0.8977378 
0.24809603 -0.561863 -0.7891504 
0.6974857 -0.26343682 -0.6664194 
-0.11733361 -0.6376931 -0.7613019 
-0.40861663 -0.37343922 -0.832812 
-0.30492085 -0.1758325 -0.9360055 
-0.12936744 -0.29026064 -0.9481629 
0.22878057 -0.26229584 -0.9374756 
0.38835394 0.42921552 -0.8154479 
0.44284034 -0.11625927 -0.8890311 
0.14419797 -0.8418208 -0.5201391 
-0.24289279 -0.96942466 -0.03491552 
0.18668091 -0.24635437 -0.9510309 
-0.5165336 -0.5051757 -0.6913686 
-0.26476553 -0.111031786 -0.95789933 
0.19355899 0.25950757 -0.9461453 
0.27818117 -0.39061075 -0.8775184 
0.09810854 0.13469209 -0.9860187 
0.49581265 0.11814137 -0.86035603 
0.33976525 0.27969354 -0.8979594 
-0.21467093 -0.872377 -0.43917522 
-0.3113571 -0.76068974 -0.56956816 
0.35855022 -0.91672903 -0.17620929 
-0.06416772 -0.9098253 -0.4100006 
-0.5051817 0.07289098 -0.8599294 
0.35081 0.59276426 -0.72495717 
-0.8594829 0.30381238 0.41108063 
-0.24697515 -0.82459104 -0.5089726 
-0.5050414 -0.593961 -0.62621367 
-0.1387588 -0.4381834 -0.88811105 
-0.5452578 0.2587309 -0.79734075 
-0.39439377 -0.10400001 -0.91303754 
-0.18245946 0.40583336 -0.89554894 
-0.697452 0.3401059 -0.6307842 
-0.46360904 -0.46464312 -0.75443584 
-0.56612396 -0.28236356 -0.77445114 
-0.86207896 -0.10389574 0.49600968 
-0.8493016 -0.50634164 -0.14934866 
0.21224973 -0.5293488 -0.82142556 
0.4114026 -0.45986348 -0.7869393 
0.017184384 -0.22273043 -0.97472864 
0.29615775 -0.064583465 -0.95295316 
0.07421578 -0.7001696 -0.7101088 
0.534355 -0.3335192 -0.7766787 
0.37573624 -0.623981 -0.6851788 
0.35497698 -0.5240441 -0.7741894 
0.01833551 -0.46443966 -0.8854149 
-0.12420855 -0.42038333 -0.89880484 
0.3973871 -0.7489081 -0.5303019 
0.010925544 -0.8643844 -0.5027129 
-0.2755056 -0.762557 -0.58532345 
-0.6849232 -0.6006171 -0.41247955 
-0.27871332 -0.75119495 -0.598352 
-0.45749503 -0.83242196 -0.31268534 
-0.26997644 -0.82625407 -0.49438554 
-0.15475953 -0.880182 -0.44869715 
0.038887385 -0.26019314 -0.9647732 
-0.3519115 -0.80127114 -0.48386243 
-0.4500272 -0.17040205 -0.87660635 
-0.21327625 0.18281622 -0.9597352 
-0.19209778 -0.56927115 -0.7993928 
-0.6027456 0.1319899 -0.78694123 
-0.7012734 -0.5447369 -0.45986667 
-0.9537489 -0.076529354 -0.2906998 
-0.94114983 -0.2294823 -0.24814282 
-0.41887066 -0.25453898 -0.8716407 
-0.77876467 0.36495316 -0.51023024 
0.017186368 -0.09513326 -0.9953162 
0.33773783 -0.14551114 -0.92992455 
0.54894716 -0.7413503 -0.38607886 
0.74751765 -0.6181833 -0.24303655 
0.3575493 -0.8215516 -0.44408524 
-0.30349258 -0.94760907 -0.09964592 
0.32868996 -0.8974793 -0.29409832 
-0.48559612 -0.23218475 -0.84278506 
-0.11650132 -0.36561584 -0.92344606 
-0.075610496 -0.28685188 -0.9549865 
0.6208986 -0.63113827 -0.4649188 
0.09263996 -0.72164947 -0.686032 
0.74521977 -0.41552988 -0.5215193 
0.80128866 -0.42935872 -0.41663843 
0.79214954 0.14542636 0.59274817 
-0.6727934 -0.65808266 -0.33804792 
0.7563964 0.20148444 -0.62230915 
0.989357 -0.10521813 0.10050788 
0.95291054 -0.3017522 -0.030118762 
0.050491888 -0.95726985 0.28475454 
0.5295691 -0.8346033 0.15163745 
0.6717378 -0.48953226 0.5559915 
0.68905973 -0.5307861 -0.4934196 
0.60375255 -0.7971186 -0.009205893 
0.41895315 -0.6641267 -0.61920434 
0.11907479 -0.7834334 -0.60996187 
-0.51843965 -0.69668144 -0.49583793 
0.28979623 -0.95098984 -0.10787256 
-0.29160592 -0.8561162 -0.4266511 
-0.39374325 -0.6362123 -0.66347593 
0.20281917 -0.50025403 -0.8417899 
-0.25971925 -0.57441175 -0.7762714 
0.36716554 -0.17932951 -0.912705 
0.021449532 -0.25650725 -0.96630436 
0.4575105 -0.5960156 -0.65988606 
0.32359552 0.051610876 -0.94478697 
-0.15735908 -0.6470164 -0.74606156 
-0.040084854 -0.68187463 -0.73037 
-0.6023348 -0.061534036 -0.7958683 
-0.53696537 0.03673884 -0.84280396 
-0.6494474 -0.2077542 -0.7314755 
-0.32530046 -0.9312708 -0.16405582 
0.04150544 -0.99913675 -0.0017637389 
-0.67266625 -0.48460704 -0.55917454 
-0.48750854 -0.79844666 -0.35329664 
-0.8475151 0.1420636 -0.511406 
-0.003457609 -0.4111091 -0.9115796 
0.54156 -0.693903 -0.47456446 
0.2861648 -0.6060536 -0.74216497 
-0.04697221 0.19650392 -0.9793773 
-0.23500165 0.6991145 -0.67528754 
-0.29847676 0.18697222 -0.9359237 
-0.12516856 -0.526483 -0.8409213 
0.079560235 -0.2534149 -0.9640805 
-0.13062812 -0.3613075 -0.92325145 
0.17853858 0.10932533 -0.97784054 
0.999121 0.024094472 0.034302756 
0.45174527 -0.8009065 -0.3930334 
0.6093378 -0.7839744 0.11870855 
0.358592 -0.87036026 -0.3374684 
-0.046238925 -0.8690874 -0.49249277 
-0.71358687 -0.49180976 -0.4989159 
-0.040778533 -0.4928147 -0.86917824 
0.33752495 -0.31966513 -0.8853762 
0.1218771 -0.47701073 -0.87040615 
0.7621621 -0.48666045 -0.4269318 
0.21927004 -0.9655939 0.1398189 
0.19410402 -0.65911293 -0.726563 
0.123463735 -0.6617829 -0.7394594 
0.0016623657 -0.25790876 -0.96616787 
0.29400742 0.16739817 -0.9410301 
-0.13671063 -0.7181136 -0.68236583 
0.24631631 -0.96732223 0.060135085 
-0.7192653 0.2071909 -0.66312104 
0.18770269 -0.2847198 -0.9400545 
0.6620804 -0.32977545 -0.6729768 
0.78608096 -0.34032762 -0.51599795 
0.6054149 -0.3951281 -0.6909027 
-0.3806388 -0.19263557 -0.9044367 
-0.1312546 -0.2770014 -0.9518627 
-0.17561774 0.12289131 -0.97675806 
0.2602607 -0.10124611 -0.96021545 
0.11944405 -0.5389437 -0.83383024 
-0.35471845 -0.48165035 -0.8013662 
-0.34686738 -0.5294071 -0.77421653 
-0.5517218 -0.7433946 -0.3781106 
-0.5547244 -0.39413267 -0.73276216 
-0.25077337 -0.7750235 -0.5800442 
-0.49457914 -0.7776043 -0.38823074 
-0.037022024 -0.3766805 -0.92560315 
-0.015541695 -0.4010703 -0.9159155 
-0.08391068 0.36003163 -0.929159 
0.22210427 -0.02689626 -0.97465193 
0.12492807 -0.10929217 -0.9861279 
-0.5779073 -0.4865769 -0.65518403 
0.22545624 -0.614896 -0.75569344 
0.0748948 -0.5708382 -0.8176397 
-0.76974565 -0.39973164 -0.4977009 
-0.6552095 -0.5824606 -0.48108244 
-0.26679796 -0.4753547 -0.83836555 
0.019186007 0.1553935 -0.98766637 
-0.22420733 0.18696047 -0.9564397 
-0.15831509 -0.055019945 -0.9858545 
-0.47094825 -0.67670333 -0.5659332 
-0.472102 -0.12708522 -0.8723355 
0.5147597 -0.39709187 -0.7598294 
-0.3586419 -0.37119588 -0.8564984 
0.14936222 -0.21101339 -0.9660043 
0.10299794 0.011914628 -0.99461025 
0.24143945 0.013066907 -0.9703279 
0.17752647 0.009376779 -0.98407143 
-0.10892274 -0.24831726 -0.9625354 
0.019897377 -0.48293692 -0.8754291 
0.21787272 -0.5334789 -0.817271 
0.28043616 0.36973232 -0.88580674 
0.44801143 0.51797396 -0.7286898 
0.62325704 -0.4996672 -0.60156745 
0.49056983 0.012357967 -0.8713143 
-0.19580615 0.23531605 -0.9519908 
0.24241236 -0.10848932 -0.9640883 
0.42093804 -0.101621486 -0.90137917 
-0.2187216 -0.6164193 -0.75643116 
0.06339542 -0.9911789 -0.11638524 
-0.21435434 -0.94452924 -0.24883097 
-0.42550823 -0.27597058 -0.86184865 
-0.29918572 -0.5936011 -0.7470781 
0.0020881814 -0.5095283 -0.8604515 
-0.036393423 -0.46200928 -0.88612807 
-0.22441404 -0.73719996 -0.6373184 
-0.15314347 -0.22144666 -0.9630725 
-0.18645146 -0.22885954 -0.95543665 
-0.48967955 -0.40006804 -0.7746996 
-0.21713817 -0.2678683 -0.93866795 
0.1951183 0.28386605 -0.9388018 
-0.41955224 -0.2836485 -0.8622758 
-0.29094028 -0.5886725 -0.7542006 
-0.12577681 -0.8728822 -0.47144127 
0.14795063 -0.59025186 -0.79354477 
0.152312 -0.23356333 -0.9603381 
0.058352675 -0.0011106619 -0.9982955 
0.7103249 -0.21856786 -0.66907907 
0.3777035 -0.363647 -0.8515286 
0.031626344 -0.049598444 -0.9982684 
0.07946361 0.44327584 -0.8928562 
0.50582165 0.3372271 -0.79399145 
-0.2830258 -0.106609635 -0.9531688 
-0.5195306 -0.15462358 -0.8403449 
-0.24521063 -0.4761458 -0.84448624 
0.27133632 -0.37807164 -0.8851206 
-0.57613516 0.017287852 -0.8171717 
-0.2209951 -0.9592964 -0.17581747 
-0.2563669 -0.9416484 -0.21811518 
-0.3402753 -0.80827165 -0.48053062 
-0.42715505 -0.7297273 -0.5338882 
0.44302958 -0.08932797 -0.8920456 
0.9186963 0.035394486 -0.3933756 
0.6913402 0.15904175 -0.7048082 
0.5483807 0.15482765 -0.8217707 
-0.05217543 -0.13256782 -0.9897998 
0.1507399 0.3010764 -0.94161063 
0.2614976 -0.44604605 -0.85595673 
0.12733227 -0.7675211 -0.6282499 
-0.015804265 -0.61391705 -0.7892123 
-0.41132697 -0.070974655 -0.9087205 
0.15779012 -0.892519 -0.4225071 
0.001004084 -0.80195683 -0.59738123 
0.16673543 -0.7795165 -0.6037826 
0.2153038 -0.50618833 -0.8351154 
-0.1143182 -0.06069389 -0.9915884 
-0.5578445 -0.19489734 -0.80673707 
-0.48881298 0.17743379 -0.85415405 
-0.13813426 -0.5235859 -0.8407001 
-0.23354372 -0.377045 -0.89626694 
0.5525145 0.04074966 -0.83250654 
0.053011905 0.24769236 -0.9673873 
-0.07948345 -0.19046235 -0.9784715 
-0.08361522 -0.105198644 -0.9909297 
0.43062735 0.53887063 -0.7240018 
0.4681336 0.2530201 -0.8466592 
-0.38963148 0.84238905 -0.3722474 
-0.32009646 0.11409383 -0.9404897 
-0.34170312 -0.32006967 -0.88362575 
-0.3811012 -0.29808524 -0.87516123 
-0.2029313 0.3551118 -0.912532 
0.08940093 0.6336739 -0.76841706 
0.62069166 -0.038018942 -0.78313243 
-0.73669004 -0.29367533 -0.6091327 
-0.48307848 0.22298923 -0.846706 
-0.119747385 -0.72501755 -0.67824054 
-0.14890243 -0.55560374 -0.81800526 
0.073454365 -0.47935727 -0.8745405 
0.098964095 -0.037556022 -0.9943821 
-0.53577137 -0.05390286 -0.84264094 
-0.9594756 0.043374203 -0.27843392 
-0.68351334 0.03517485 -0.72909003 
-0.43398386 -0.26498124 -0.86107093 
0.3716444 -0.10909505 -0.921943 
-0.3437529 -0.27030152 -0.899317 
-0.30066565 -0.27512684 -0.9131842 
-0.51668084 -0.33025268 -0.7899203 
-0.4609921 -0.4416483 -0.7696968 
0.26313028 -0.3111578 -0.91320497 
-0.11152598 -0.94325554 -0.31277937 
-0.29651454 -0.24808298 -0.92224395 
-0.039521266 -0.15420209 -0.9872486 
-0.08504712 0.16179365 -0.983153 
-0.15524836 0.12689054 -0.97969216 
0.8714407 0.4555316 -0.18188478 
0.23370795 0.04651219 -0.97119373 
-0.2446796 -0.25876865 -0.934436 
0.13800396 -0.12677985 -0.98228395 
0.05542532 -0.8937979 -0.445032 
0.37809697 -0.4909324 -0.78487456 
-0.41405627 -0.78542686 -0.4600677 
-0.044680014 -0.77161396 -0.63452 
-0.9796768 -0.1861983 -0.07459096 
-0.4220385 -0.6933568 -0.5840719 
-0.2983524 -0.51768297 -0.8018668 
-0.1147284 -0.43168905 -0.8946966 
-0.72828025 -0.049240068 -0.68350816 
-0.89436984 -0.01214702 -0.44716334 
-0.6247644 0.7335481 -0.26753825 
-0.6258967 0.524679 -0.57703155 
-0.42151052 0.37050155 -0.8276821 
-0.6566054 -0.11074438 -0.7460598 
-0.9002109 -0.43539804 -0.006992037 
-0.6607387 0.13194485 -0.7389282 
-0.61645347 -0.1393561 -0.7749613 
-0.41467097 -0.12033989 -0.90197915 
-0.13793539 -0.13877785 -0.98067045 
0.21101028 -0.057903517 -0.9757673 
0.044295635 -0.5128538 -0.8573324 
0.15378703 0.42290786 -0.8930278 
0.6205548 0.1498287 -0.7697162 
0.76584953 -0.37454584 -0.5226759 
0.05760581 -0.783452 -0.61877674 
-0.55129516 -0.6761479 -0.4887716 
-0.48356968 -0.4766772 -0.7341248 
-0.49792084 -0.26217183 -0.8266443 
-0.54582804 -0.41423628 -0.7283406 
-0.61520135 -0.5084149 -0.60252947 
-0.8839549 -0.46615893 -0.036327463 
-0.9420439 -0.09216542 -0.32258177 
-0.7787268 -0.52608895 -0.34178227 
-0.3146829 -0.6624835 -0.6797722 
-0.3021882 -0.3559164 -0.88431096 
0.0047022547 -0.45370695 -0.89113855 
0.40144888 -0.23224854 -0.88594556 
0.2376377 -0.0012031407 -0.9713531 
-0.036468692 -0.3187346 -0.94714224 
-0.6620061 0.36595228 -0.6540848 
-0.84788865 0.37046158 -0.37926668 
-0.6141562 0.077285476 -0.78539115 
-0.46021405 -0.43992862 -0.77114594 
-0.5534188 -0.5660661 -0.6109802 
-0.54389566 0.03528817 -0.8384107 
-0.36604607 -0.1463078 -0.91902363 
0.35647252 -0.26370212 -0.89631945 
0.32261473 -0.697213 -0.640167 
0.611617 -0.75846213 -0.22507729 
0.720323 -0.69262725 0.037447993 
-0.014006136 -0.64069414 0.7676684 
-0.66864824 -0.7316381 -0.13272251 
-0.5272954 -0.39497957 -0.752297 
-0.5770564 -0.29483852 -0.7616273 
-0.39735168 0.02201122 -0.9174024 
-0.12334721 -0.9649334 -0.23170877 
0.4036676 -0.21588868 -0.8890696 
0.70913166 0.02735783 -0.70454514 
0.5740146 0.3946103 -0.71748877 
-0.48209196 -0.26967263 -0.8335851 
-0.26251957 -0.36957324 -0.8913468 
0.77622753 0.32313845 -0.5413433 
0.83440536 -0.09039165 -0.5436885 
0.4379514 -0.8748465 -0.20698334 
0.11689933 -0.9569712 -0.26559523 
0.62030655 -0.6822446 -0.38699123 
0.4789555 -0.8740713 -0.08124655 
0.7434727 -0.6101158 -0.27387416 
0.47578353 -0.86528224 0.15785037 
0.56387514 -0.79841214 -0.2111464 
-0.37049004 -0.6836712 -0.6287534 
-0.2095457 -0.6662687 -0.71566516 
0.17850499 -0.8826768 -0.43476152 
-0.69124687 -0.7169696 0.09017973 
-0.47542763 -0.60279495 -0.6407862 
-0.53833985 -0.39253005 -0.7457281 
-0.11583439 -0.635083 -0.7637094 
-0.0014755998 0.008672338 -0.9999614 
0.1368873 0.20871942 -0.96834815 
0.298551 -0.3973301 -0.8677535 
0.07384593 -0.3250521 -0.94280857 
0.05849019 0.03907352 -0.997523 
-0.053146232 -0.18490694 -0.98131794 
-0.41888717 -0.21216503 -0.882904 
0.08819969 -0.15373833 -0.9841674 
-0.009856668 -0.9863266 -0.16450757 
-0.36276835 -0.5555793 -0.74815166 
-0.12394174 -0.97621626 -0.17787705 
-0.5000515 -0.49736443 -0.70892674 
-0.36507723 -0.47814935 -0.7988065 
-0.6300135 -0.3413335 -0.6975489 
0.102973685 -0.6517056 -0.75144947 
0.35520476 0.03690835 -0.9340597 
0.33636945 -0.1357701 -0.93189174 
-0.18637344 -0.3315131 -0.9248589 
-0.07108911 0.7234056 -0.6867538 
-0.019596972 0.5091074 -0.86047983 
-0.4761268 0.026937252 -0.878964 
0.246494 -0.22877297 -0.9417556 
-0.077517904 -0.14511202 -0.9863739 
-0.03759959 0.4192021 -0.907114 
0.6109329 -0.71692634 -0.33582395 
0.29543772 -0.95375806 0.05533619 
-0.5079309 -0.58032805 -0.63657343 
-0.10703134 -0.8028121 -0.58654666 
-0.084635146 -0.6299736 -0.77199113 
0.03347628 -0.27511427 -0.9608286 
0.18467215 -0.23232526 -0.9549456 
0.14240205 0.002704076 -0.9898052 
-0.3926984 -0.4199501 -0.818187 
-0.19973686 -0.091414526 -0.97557604 
0.5160533 -0.10219715 -0.850438 
0.8532608 0.27052203 -0.44582933 
0.31079984 -0.59997433 -0.73718005 
-0.0034986362 -0.12660608 -0.9919469 
0.025087649 -0.46335527 -0.8858174 
-0.044433534 0.05443292 -0.9975284 
0.43313533 -0.11154888 -0.8943996 
-0.43296745 -0.65663934 -0.6175468 
-0.4323351 0.021492537 -0.9014569 
-0.30876485 0.48712713 -0.81692815 
0.050589804 0.44977805 -0.89170647 
0.405585 -0.75789315 -0.5109783 
0.22014888 -0.44851655 -0.8662375 
-0.10375088 -0.35559538 -0.9288637 
0.32189924 0.08749066 -0.94272286 
0.11731696 -0.6241168 -0.77247334 
0.50019205 -0.64296454 -0.5800039 
0.33588922 -0.8171986 -0.46836424 
-0.17902094 -0.82725495 -0.5325418 
-0.12314312 -0.7108461 -0.69248366 
0.3451378 -0.7040429 -0.62064767 
-0.19400643 -0.40178055 -0.89494914 
-0.06369384 -0.22121751 -0.9731423 
0.15291151 0.045776088 -0.98717916 
-0.0961579 -0.3509604 -0.93144006 
-0.36824578 -0.14256206 -0.9187334 
-0.5104963 0.16896352 -0.8431161 
-0.13323079 0.95861506 -0.2516082 
-0.5826477 0.3075385 -0.75229114 
-0.5694546 -0.18079719 -0.8018939 
-0.13696913 -0.39996278 -0.9062391 
-0.1507909 -0.006979176 -0.98854107 
-0.55643636 0.109192565 -0.8236842 
-0.6214902 0.4899999 -0.6112693 
-0.104937896 0.66877025 -0.7360261 
-0.4412642 0.20736293 -0.8730902 
-0.4241723 0.25104 -0.8700902 
-0.5304094 -0.025557967 -0.84735626 
0.031132529 -0.030727208 -0.9990429 
0.116458245 0.05535639 -0.9916518 
-0.55380654 -0.2041372 -0.8072337 
-0.2616477 -0.15053762 -0.95335144 
-0.010528407 0.11288258 -0.9935526 
0.121842064 0.24067932 -0.96292686 
-0.09590547 -0.1903953 -0.9770116 
0.66608244 -0.2948022 -0.6851467 
-0.4060558 -0.7780868 -0.47927013 
-0.10056127 0.30410564 -0.9473158 
0.36439556 -0.23840119 -0.9002116 
0.90897495 -0.38706228 -0.15474942 
0.917298 -0.15988955 -0.36469135 
-0.06746665 -0.08250292 -0.99430454 
0.03396407 -0.5205078 -0.8531812 
-0.16732569 -0.575496 -0.8005039 
0.773826 -0.48657355 -0.40551156 
0.050148573 -0.54693484 -0.8356719 
0.5627425 -0.2793278 -0.7780082 
-0.066670395 -0.42321995 -0.9035707 
-0.28936356 -0.20429875 -0.9351635 
0.065004736 -0.5482724 -0.8337697 
0.017362388 -0.8174648 -0.57571685 
-0.13155411 0.7294999 -0.67121047 
-0.42919806 0.1444765 -0.89158046 
0.04175425 -0.07765059 -0.99610597 
-0.17856048 -0.38680363 -0.90470946 
0.3870366 -0.407165 -0.8272964 
-0.42215493 -0.32961023 -0.8444776 
0.17098956 -0.448584 -0.8772314 
-0.43011385 0.18202657 -0.8842333 
0.2376614 0.13391778 -0.9620724 
-0.3097323 -0.3944843 -0.86512893 
-0.15806414 -0.24124758 -0.95750475 
0.30578774 0.07623662 -0.94904256 
0.5539461 0.42630884 -0.71512556 
0.4305588 0.78462523 -0.44607466 
0.2726346 0.12465919 -0.9540076 
0.27978578 -0.27654886 -0.91936976 
0.3807346 0.7325873 -0.56423146 
0.0041016773 0.46968734 -0.8828233 
-0.49058595 0.20855628 -0.8460673 
-0.4795399 0.1814172 -0.85856235 
0.12933181 0.45932734 -0.8788013 
0.70428693 -0.2164833 -0.6761027 
-0.1117795 0.27527398 -0.9548454 
0.32331616 -0.6414602 -0.6956979 
0.4433528 -0.75112367 -0.4891334 
-0.03320902 -0.9134607 -0.4055697 
-0.078421995 -0.30888754 -0.94785994 
0.46827027 0.08655167 -0.87933594 
0.36110246 -0.08017762 -0.92907304 
-0.838777 0.24735874 -0.48504323 
-0.4965165 0.48909402 -0.7171182 
-0.019683087 0.13994381 -0.9899638 
-0.31021982 0.6293452 -0.71252257 
0.34002444 0.017073926 -0.94026166 
-0.34029117 -0.27497748 -0.89921594 
-0.66432416 -0.07516819 -0.7436553 
-0.3521095 -0.36292213 -0.86273193 
0.17306313 -0.7082293 -0.68444175 
0.38284877 -0.277184 -0.88124686 
0.052428696 -0.35535634 -0.9332595 
-0.3463995 -0.0643168 -0.9358797 
0.050843824 -0.13486955 -0.9895581 
-0.30013126 -0.061227847 -0.9519309 
0.045569297 -0.12222568 -0.99145573 
-0.06732687 -0.5316915 -0.8442578 
0.3438519 -0.6229174 -0.7026662 
0.19219476 0.72510225 -0.6612775 
0.2658364 0.44500718 -0.85516065 
-0.2762645 0.036635812 -0.9603832 
0.14657357 0.59441495 -0.79068774 
0.4107355 0.38875696 -0.8247208 
0.03310294 0.7588869 -0.6503806 
-0.34135473 0.55012274 -0.7621299 
-0.60551375 0.48318478 -0.63236505 
0.29345766 -0.04627544 -0.95485145 
0.23819977 -0.4302165 -0.87073237 
0.06675054 0.21073133 -0.9752624 
0.39607996 -0.100835726 -0.91266257 
0.57311535 -0.16449206 -0.8027959 
-0.7651268 0.13589355 -0.6293759 
-0.45697612 -0.3638562 -0.81165355 
-0.13243908 -0.5763684 -0.8063866 
0.023235118 -0.38270542 -0.9235783 
-0.085597225 -0.4931005 -0.8657512 
0.18419106 -0.090413846 -0.9787232 
-0.47399879 -0.007504464 -0.8804935 
-0.42430863 -0.12806158 -0.89641654 
-0.042941697 -0.54851437 -0.8350378 
0.112767704 -0.14994381 -0.9822426 
0.17093469 -0.683809 -0.70935655 
-0.07775135 -0.77614695 -0.6257401 
-0.1953319 -0.06123365 -0.9788237 
-0.19764875 -0.4298536 -0.88100004 
0.04971921 -0.6237812 -0.78001606 
0.47246173 -0.77892005 -0.41238755 
0.034380388 -0.36520228 -0.9302932 
-0.4772841 -0.06650262 -0.87622905 
-0.1877262 -0.16200456 -0.968769 
-0.13981959 0.073032424 -0.9874801 
0.48444313 0.421673 -0.76649004 
0.3374518 0.8423074 -0.42029113 
0.60079396 0.6762939 -0.4262315 
0.03830521 -0.052419484 -0.9978903 
-0.07028548 -0.4214644 -0.9041171 
-0.6764933 -0.24571782 -0.69424754 
0.16586334 -0.6689798 -0.7245381 
-0.38422307 -0.67845273 -0.62615865 
0.05218297 -0.664083 -0.74583566 
-0.19312076 -0.46153718 -0.8658452 
-0.47970855 -0.35613883 -0.80190074 
-0.482596 -0.009025721 -0.87579656 
-0.6150067 0.24847116 -0.74835086 
-0.7470306 0.50961584 -0.42689222 
-0.67837256 0.6217116 0.39151692 
-0.78677386 -0.19878528 -0.5843555 
-0.74542403 0.029618075 -0.66593224 
-0.39744595 0.07833232 -0.9142762 
-0.434831 0.15734307 -0.88665956 
-0.39875105 0.63984233 -0.6569623 
-0.4942633 0.22976694 -0.8383979 
-0.5893511 -0.39202043 -0.7063889 
-0.005692275 0.14629342 -0.98922485 
0.007870519 0.4981973 -0.86702806 
0.041765314 -0.75485283 -0.6545632 
0.5502956 -0.17164926 -0.81713605 
0.29501194 -0.0031147432 -0.9554885 
0.92688936 0.07814422 -0.36710992 
0.3619409 -0.5556976 -0.7484644 
0.3847974 -0.12442557 -0.914576 
0.63560724 -0.21483739 -0.7415176 
-0.24800867 -0.325636 -0.91238856 
0.028110478 0.26122874 -0.9648676 
-0.39382157 -0.70511955 -0.5896703 
-0.651334 -0.13859402 -0.74602675 
-0.82323116 -0.06492532 -0.5639817 
-0.5279209 -0.60977703 -0.5911612 
-0.5512308 0.08002515 -0.8305062 
-0.34909624 -0.048610393 -0.9358252 
-0.54710793 0.064634934 -0.8345629 
-0.45371222 -0.069037706 -0.88847005 
0.038226645 -0.68423283 -0.72826105 
0.4600063 0.46979654 -0.7534491 
-0.6363944 -0.71244925 -0.29566595 
-0.20028746 -0.7748239 -0.5996107 
-0.34469062 -0.053618904 -0.93718374 
-0.41936922 -0.28464824 -0.8620354 
-0.5579217 -0.41481394 -0.7187857 
-0.29053354 -0.2872893 -0.91271853 
-0.011779516 0.053408418 -0.9985033 
-0.19041024 -0.33017102 -0.9245167 
0.21369393 -0.70526505 -0.67597055 
0.34866777 -0.3035575 -0.8867264 
0.6714818 -0.66269803 -0.33157727 
0.5103572 -0.85819244 0.055149104 
0.80116946 -0.5651455 0.19682032 
-0.7765189 -0.62680304 -0.064315185 
-0.22458579 -0.39575085 -0.8904731 
-0.3416919 -0.024618708 -0.93948954 
-0.3086211 -0.2741151 -0.9108315 
-0.37889564 0.23834212 -0.89422095 
0.02138851 0.19047357 -0.9814594 
0.39212656 -0.17026077 -0.90401775 
-0.2132535 0.62629503 -0.7498517 
-0.42026627 0.15487777 -0.89408565 
0.15929763 -0.3507888 -0.9228064 
0.14633907 -0.1466636 -0.97830194 
0.9267285 0.23983406 -0.28923026 
0.8191639 0.042528942 -0.57198054 
0.5762885 -0.1971465 -0.7931109 
0.74466985 -0.43139598 -0.5092783 
0.5361072 -0.82414705 -0.18267705 
-0.13936573 -0.9897141 -0.03230104 
-0.67279834 -0.35906324 -0.6468508 
-0.42854837 -0.54024094 -0.7242141 
-0.19331215 -0.75120103 -0.63113195 
0.59900814 -0.78408056 0.16250275 
0.6544967 -0.7490361 0.102854766 
-0.14456196 -0.72843635 -0.6696882 
-0.30457574 -0.5688861 -0.76393867 
-0.06492231 0.30025208 -0.95164794 
0.38073924 -0.048040904 -0.9234337 
-0.22286195 0.2829666 -0.93287855 
-0.53053606 -0.2866421 -0.7977267 
0.58544815 -0.21223153 -0.7824374 
-0.016830763 -0.3659091 -0.9304984 
0.27170843 -0.07489748 -0.9594608 
-0.17034166 -0.33579773 -0.9264036 
-0.15643074 -0.64676285 -0.7464766 
0.24171779 -0.47797146 -0.8444618 
0.07634634 -0.95794415 -0.27661222 
0.14622083 -0.26223582 -0.95386153 
0.18386517 -0.52974683 -0.8279866 
0.045529198 -0.5157976 -0.8554998 
-0.38495916 -0.3422187 -0.8571423 
-0.7984967 -0.16722812 -0.57830596 
0.3751289 -0.3956361 -0.8383021 
0.55368805 -0.15763111 -0.8176686 
0.29909146 -0.21035379 -0.9307501 
0.17901929 -0.74922436 -0.63766366 
-0.016028084 -0.6368031 -0.7708599 
-0.08753753 0.17357537 -0.98092246 
0.09496823 -0.48974225 -0.8666796 
0.17497812 -0.05531191 -0.98301744 
0.48414016 0.3296832 -0.81050444 
0.95598394 0.04619871 -0.28975928 
0.7628344 -0.6425836 -0.0719028 
0.100256056 -0.849236 -0.5184081 
-0.097556695 -0.34591427 -0.9331806 
-0.08039409 -0.5652243 -0.82101053 
0.46318305 -0.09522336 -0.8811323 
0.690742 -0.27968445 -0.6668224 
-0.1384124 0.0027310501 -0.990371 
0.17147827 0.636051 -0.75235265 
-0.5784071 -0.66451377 -0.47314563 
0.15675394 -0.19156358 -0.9688817 
0.9567616 -0.25173 -0.14573736 
0.89221466 -0.3934162 0.22175802 
0.7443676 -0.6495532 0.15491168 
-0.37825003 -0.5837646 -0.71843296 
0.12318229 -0.24985145 -0.96041685 
-0.07287853 0.21598592 -0.9736729 
0.45917273 -0.004025059 -0.8883379 
-0.6676839 0.6562352 -0.35150197 
0.039961517 -0.37855417 -0.9247161 
-0.04175402 -0.31365705 -0.94861794 
0.68900084 -0.36045587 -0.62876827 
0.020696921 -0.4913708 -0.87070465 
0.14660676 0.03512789 -0.9885709 
0.326712 0.15346038 -0.932582 
0.29182813 0.33560708 -0.89565855 
0.5116716 -0.42901683 -0.74440366 
0.16316608 -0.33723804 -0.92717177 
-0.41673964 -0.8555286 -0.3072442 
-0.71420336 -0.68515956 -0.14307357 
-0.0108902715 -0.28409964 -0.95873296 
0.1312445 -0.3498044 -0.92758393 
-0.042382993 0.027463952 -0.9987239 
-0.5817451 -0.19934428 -0.7885649 
-0.096431464 -0.066284426 -0.99313015 
-0.14997944 -0.5757894 -0.80372435 
-0.41335532 -0.70278335 -0.5789931 
-0.35582697 -0.31515074 -0.879811 
-0.5015226 0.525521 -0.687243 
-0.493548 0.5705816 -0.6563895 
-0.7535732 -0.009150002 -0.65730035 
-0.4681396 0.32319456 -0.8224297 
-0.5726302 0.31036776 -0.7587929 
-0.12536539 0.2453383 -0.96129745 
-0.7051343 0.009839709 -0.7090056 
-0.89411366 0.33027148 -0.3024594 
-0.2042898 0.29504797 -0.9333877 
-0.3645398 0.62790656 -0.6876367 
-0.30753013 -0.026148383 -0.95117897 
0.33609852 0.0515937 -0.9404126 
0.31205252 0.22901712 -0.92204905 
-0.27308407 -0.4170958 -0.8668658 
-0.010560986 0.1579078 -0.98739743 
0.103622496 -0.15784636 -0.9820117 
-0.55755436 -0.18769586 -0.808643 
0.11135465 -0.15020864 -0.9823633 
-0.3522831 0.38890377 -0.8512641 
-0.31287777 0.41424266 -0.8546991 
0.051335566 -0.020596141 -0.9984691 
-0.16458903 0.019610554 -0.98616725 
0.43198907 0.24687494 -0.867432 
0.05322264 0.45930272 -0.8866839 
0.34034172 0.16477102 -0.9257527 
0.8357608 -0.3841525 -0.39234006 
0.18424276 -0.82236856 -0.5382979 
0.1466071 -0.8833426 -0.44521025 
0.33814338 -0.561314 -0.7553713 
0.054644734 -0.11414837 -0.9919598 
0.46918055 -0.26349702 -0.8428755 
-0.04446523 0.1390281 -0.98928976 
-0.12899579 -0.20781787 -0.9696246 
-0.31570843 -0.1003712 -0.9435327 
0.54473144 -0.21086083 -0.8116683 
-0.60625696 -0.40326074 -0.68544394 
-0.12854391 0.1862489 -0.97405744 
0.09353684 0.016068267 -0.9954862 
0.13226788 -0.6300384 -0.7652168 
0.25157 -0.6330969 -0.73205256 
-0.27553654 -0.43561956 -0.85692203 
0.15432696 0.10919466 -0.9819673 
-0.15478264 0.81789374 -0.55415905 
-0.29776734 0.1946469 -0.9345841 
-0.3879959 0.6856146 -0.615948 
-0.061355237 0.42300075 -0.90404975 
-0.053043716 -0.23225027 -0.97120863 
-0.08335889 0.100544244 -0.9914344 
-0.09547927 -0.11696478 -0.9885358 
0.238435 -0.3747079 -0.8959592 