# OOMMF: rectangular mesh v1.0
# Segment count: 1
# Begin: Segment
# Begin: Header
# Desc: Time (s) :  8.350000000000022e-07
# Title: m
# meshtype: rectangular
# meshunit: m
# xbase: 2e-09
# ybase: 2e-09
# zbase: 5e-10
# xstepsize: 4e-09
# ystepsize: 4e-09
# zstepsize: 1e-09
# xmin: 0
# ymin: 0
# zmin: 0
# xmax: 1.024e-06
# ymax: 1.024e-06
# zmax: 1e-09
# xnodes: 256
# ynodes: 256
# znodes: 1
# ValueRangeMinMag: 1e-08
# ValueRangeMaxMag: 1
# valueunit: 
# valuemultiplier: 1
# End: Header
# Begin: Data Text
0.59300137 -0.1838754 0.7839255 
0.118463285 -0.50842255 0.8529203 
-0.5157809 -0.77500033 0.36516365 
-0.5231047 -0.83298075 0.18029034 
-0.6386433 -0.66157377 -0.3930076 
-0.55932057 0.31060717 -0.76855946 
0.3395204 -0.6660187 -0.66418755 
-0.38947627 -0.91866136 -0.06610399 
-0.30704764 -0.4294453 -0.84929293 
0.05906791 -0.22043715 -0.9736111 
0.74875706 -0.48199728 -0.4550183 
0.7303751 -0.2641122 -0.6299182 
0.42094934 -0.7655097 -0.48661748 
0.56872046 -0.4085688 -0.7138828 
0.6622326 -0.7484983 0.03461829 
0.2901376 -0.9125051 0.28836548 
0.42945156 -0.8743531 0.22600473 
-0.15480706 -0.73455065 0.66065884 
-0.48221165 -0.8760207 -0.007719359 
-0.14946695 -0.976554 -0.15492575 
-0.2006472 -0.9390945 0.27900234 
-0.19255899 -0.77756256 -0.5985963 
-0.56221354 -0.7618942 -0.32161033 
-0.0084975185 -0.3569711 -0.93407685 
0.27855814 -0.021322267 -0.9601827 
-0.47744706 -0.1512404 -0.86554646 
-0.57403386 -0.20475897 -0.7928171 
-0.60164285 0.3222192 -0.7308904 
-0.372948 0.37581977 -0.8483333 
-0.8148746 -0.0014312163 -0.5796356 
-0.14813654 0.034755785 -0.988356 
-0.9546723 -0.24697742 0.16614167 
-0.4215894 -0.52833164 -0.7369722 
-0.20481999 -0.5013721 -0.8406396 
-0.5256652 0.019352283 -0.8504714 
0.22292759 -0.2836882 -0.9326437 
0.5714547 -0.6155223 -0.5427448 
0.27607837 -0.7369841 -0.6169565 
0.50765735 -0.175615 -0.84347105 
0.4989304 -0.8509908 -0.16396146 
0.15928836 -0.9870856 -0.01701105 
-0.4511179 -0.77413535 -0.44408005 
-0.33977482 -0.65833515 -0.6716755 
0.036586173 -0.6915684 -0.72138387 
-0.4066072 -0.7352703 -0.54226214 
-0.23146139 -0.62740135 -0.74350065 
-0.039245404 -0.62599224 -0.77884114 
-0.6253812 -0.46565497 -0.62615013 
-0.25129816 -0.9668068 -0.046192545 
-0.35810313 -0.9293003 0.09034973 
-0.46996427 -0.12979451 -0.87309045 
0.10992462 -0.13095564 -0.98527527 
0.6922782 0.12599653 -0.7105462 
-0.20224778 0.083411664 -0.9757758 
-0.035216734 -0.15631089 -0.98708 
-0.62049717 0.056163255 -0.78219503 
-0.49389148 -0.023267787 -0.86921215 
-0.3798581 0.117092155 -0.9176042 
0.3002734 -0.82761055 -0.47423285 
0.1938575 -0.7685795 -0.6096761 
-0.25257865 -0.83129084 -0.49513605 
-0.72959936 -0.5237298 -0.43976355 
-0.5790273 -0.01260321 -0.8152109 
-0.6175022 0.37274942 -0.6926391 
-0.47907123 -0.26405022 -0.83711916 
0.02531539 0.010977603 -0.9996193 
0.27439693 -0.65159106 -0.70720255 
-0.39617065 -0.5827733 -0.70952386 
-0.3294005 -0.85326576 -0.40426847 
0.20436074 -0.5842412 -0.7854291 
-0.043888614 -0.29938605 -0.9531222 
-0.35466573 -0.7832311 -0.5106481 
-0.40082175 -0.62220114 -0.672464 
0.4936106 -0.6112681 -0.6186275 
0.18374398 0.074570276 -0.98014164 
0.36038208 0.41682315 -0.8344959 
0.707833 0.15904427 -0.68824226 
0.68830484 -0.14588153 -0.7106019 
0.57771415 -0.24374452 -0.7789962 
0.22051035 -0.8457933 -0.48580757 
0.38162985 -0.31979457 -0.8672313 
0.5027041 -0.75559676 -0.419955 
-0.5329903 -0.31880465 -0.78376335 
-0.25830844 -0.8110053 -0.5249259 
0.038389362 -0.32324892 -0.94553494 
0.6111222 -0.08033569 -0.78744894 
0.3280994 -0.911412 -0.2483529 
-0.28994182 -0.928444 -0.23221856 
-0.14530799 -0.66062826 -0.7365161 
-0.15862508 -0.40441087 -0.90071636 
-0.6202263 -0.36226955 -0.6957587 
-0.19558296 -0.9765742 0.08972331 
0.17488566 -0.68973213 -0.702627 
0.42258853 -0.40526992 -0.81066346 
0.48316073 -0.67166275 -0.56162703 
0.26685128 -0.55162644 -0.7902524 
-0.5250578 -0.82896245 0.1927059 
-0.61478627 -0.17042439 -0.7700607 
-0.14158444 -0.01671122 -0.9897852 
0.13813038 -0.12552032 -0.98242795 
0.18976997 -0.83765656 -0.51217085 
0.9747265 -0.17868717 -0.1340867 
0.051064074 0.14051104 -0.9887614 
0.5225795 -0.0964756 -0.84711456 
0.18668367 -0.120864 -0.97495705 
0.15055189 -0.71500236 -0.68271947 
-0.26314336 -0.94889516 -0.17422251 
-0.68770856 -0.72590554 0.010872265 
-0.13702692 -0.78934723 -0.59846026 
0.11407356 -0.6209156 -0.7755328 
0.29230815 -0.5437015 -0.78673047 
0.39175 0.3032998 -0.86864334 
0.23674962 0.5784578 -0.78059995 
0.033642337 0.2150651 -0.9760201 
-0.28557298 -0.7693362 -0.57146305 
0.014098103 -0.80559945 -0.59229285 
0.021834992 -0.9990092 0.038781237 
0.16163269 -0.9244837 -0.3452604 
0.1293634 -0.32606724 -0.93645364 
-0.1458512 -0.88723385 -0.4376569 
-0.5740883 -0.71437883 -0.40010697 
-0.4410861 -0.4977711 -0.74677104 
-0.9443762 -0.15198885 -0.29163843 
-0.8896908 -0.44900978 -0.082707025 
-0.37451065 -0.78708714 -0.49013844 
0.46741617 -0.86239934 -0.19439514 
0.9940984 -0.1083484 0.0053861258 
0.74418825 -0.07074424 -0.66421324 
0.7178234 0.08089391 -0.6915099 
0.22726868 0.45519942 -0.8608963 
0.5793842 -0.5438467 -0.6070789 
0.3600649 -0.2686676 -0.89340425 
0.46123338 -0.44188792 -0.76941454 
-0.29994476 0.05360812 -0.9524492 
-0.7208742 -0.5922172 -0.36002687 
-0.89136106 0.05850556 -0.44950265 
-0.061781697 -0.5813178 -0.8113278 
-0.38715014 0.029872086 -0.9215327 
0.4955716 -0.16127647 -0.8534629 
-0.38799623 0.4493504 -0.8047006 
-0.28100207 -0.4107755 -0.8673531 
-0.4236767 -0.7647745 -0.48540524 
-0.43696198 -0.8641839 -0.24950056 
0.04690473 -0.70092595 -0.7116901 
-0.19192317 -0.26630276 -0.944589 
-0.49795452 -0.36762843 -0.7854238 
-0.36672258 -0.40346408 -0.8382907 
-0.23831476 -0.5821247 -0.77739114 
0.1368542 -0.3453845 -0.928429 
0.069685504 -0.5656392 -0.8217033 
-0.59458524 -0.11539839 -0.79570824 
-0.28638506 -0.5963159 -0.74992734 
0.04083727 -0.90423816 -0.42507133 
0.18941127 -0.8228685 -0.53573394 
-0.23323457 -0.16127157 -0.9589542 
-0.37306532 -0.32731485 -0.86815166 
-0.8740192 -0.28664425 -0.39233363 
0.06001475 -0.8636801 -0.50045466 
-0.18685727 -0.9814892 0.04199364 
0.11791673 -0.8550733 -0.5049212 
-0.100695275 0.044446606 -0.9939241 
-0.5300766 0.007324561 -0.8479181 
-0.037329994 -0.23940744 -0.9702014 
-0.22684546 -0.4830429 -0.8457014 
-0.49608794 -0.048922207 -0.866893 
8.15413e-05 0.39950678 -0.9167303 
-0.34379295 0.43974444 -0.82971764 
0.14395845 -0.4320136 -0.8903035 
0.41444254 -0.48049116 -0.77289426 
0.20550457 -0.21388423 -0.9549982 
0.20912732 -0.25792998 -0.9432593 
-0.0066997265 -0.40327188 -0.91505575 
-0.2919555 0.16910496 -0.9413637 
-0.17245941 -0.28417513 -0.9431343 
-0.17466308 -0.06636239 -0.9823894 
-0.40636805 -0.46504432 -0.7865106 
-0.261866 -0.75771934 -0.5977356 
0.20722198 -0.5969481 -0.77505624 
0.029091418 -0.9859857 -0.16427387 
0.13108094 -0.2723707 -0.953222 
0.7484256 -0.33073053 -0.5748709 
-0.13353233 -0.53378516 -0.8350106 
-0.358845 -0.40603405 -0.8404562 
0.0067814593 -0.22134562 -0.9751719 
-0.2469986 -0.71299314 -0.6562259 
0.07049931 -0.5613904 -0.82454276 
-0.16422085 -0.77656645 -0.60825664 
-0.03134137 -0.8646426 -0.501409 
-0.5963366 -0.4841711 -0.6402821 
-0.71318895 -0.48508 -0.50602263 
0.42761347 -0.6671038 -0.61001587 
-0.13685378 -0.19533102 -0.97114205 
-0.57492626 -0.3326922 -0.7475131 
-0.03178106 -0.9091845 -0.4151789 
0.1455607 -0.918283 -0.36819637 
-0.3961696 0.13776264 -0.9077837 
0.3310781 -0.35261312 -0.8752436 
-0.28062838 -0.89605796 -0.3439884 
-0.74072134 -0.66939294 0.056965042 
-0.14659539 -0.5266628 -0.8373388 
-0.10378845 0.031994425 -0.9940847 
0.08147948 -0.4740864 -0.87670016 
-0.2359662 -0.8679903 -0.43693563 
-0.246562 -0.30252367 -0.92069906 
-0.17803901 -0.59067273 -0.7870247 
-0.10798852 -0.8991986 -0.4240054 
-0.665227 -0.32839605 -0.67054385 
-0.5412436 -0.39541626 -0.74209255 
-0.7499138 -0.63141155 -0.19735456 
-0.18968797 -0.7585921 0.6233431 
0.33741555 -0.90544385 0.257531 
-0.46173942 -0.17733023 -0.8691092 
-0.025885114 -0.36421624 -0.93095464 
-0.4702118 0.7943264 -0.38463825 
0.113818265 0.2210167 -0.9686058 
-0.15585123 0.12319465 -0.9800681 
-0.6259817 0.73707116 -0.25470203 
-0.46807843 -0.2947402 -0.83308506 
-0.0634869 -0.27330157 -0.9598311 
-0.23098436 -0.500211 -0.83452696 
0.40449572 -0.76475686 -0.5015281 
-0.11574283 -0.89222705 -0.43650284 
0.40894988 -0.7468098 -0.5244379 
-0.49912727 -0.8543305 -0.14488386 
-0.5713408 -0.6032792 -0.5564386 
0.3961146 -0.30800074 -0.8650023 
-0.040356237 -0.39480832 -0.91787684 
-0.46451908 -0.2866283 -0.83789396 
0.444068 -0.71932346 -0.5342073 
0.8634974 -0.49938712 -0.070604205 
-0.40382662 0.37588042 -0.8340492 
0.4925971 0.35254538 -0.79565066 
0.95538056 0.28862983 0.06277597 
0.9109783 -0.4102831 0.042266406 
0.76907074 0.32064015 -0.5529197 
0.9123499 -0.05663161 -0.40547594 
0.47282434 -0.7439184 -0.4722527 
0.23227185 -0.8461231 -0.479714 
0.15381208 -0.5680594 -0.8084865 
0.0009651936 -0.16621001 -0.98608994 
-0.17282501 -0.8102289 -0.5600541 
-0.5866605 -0.68672884 -0.4292238 
-0.6759198 -0.45140514 -0.58255124 
-0.11615882 -0.18842556 -0.9751938 
-0.07164633 -0.2775123 -0.9580469 
-0.5502738 -0.07700864 -0.8314256 
-0.050865285 -0.31271413 -0.94848436 
-0.2799206 -0.24741687 -0.92759335 
-0.13456929 -0.21630467 -0.9670075 
-0.431024 -0.13361838 -0.89239264 
0.19968641 0.07315734 -0.9771251 
0.102319166 0.07486039 -0.9919308 
-0.63633066 -0.73925525 -0.22042015 
-0.48284087 -0.8166635 -0.31611013 
0.05910303 -0.6315635 -0.77306825 
-0.35718718 -0.15070207 -0.9217951 
-0.6767398 -0.71248925 0.1854248 
-0.2238787 -0.94129676 -0.25266328 
-0.25100538 -0.8859226 -0.39004806 
-0.19011909 -0.9619213 0.196373 
-0.5076813 -0.8504267 0.13796459 
-0.57974136 -0.7748493 -0.25200933 
-0.18934299 -0.87984085 -0.4359236 
-0.042475063 -0.77947676 -0.62498945 
-0.018448317 -0.6438002 -0.76497126 
-0.04055992 -0.8194677 -0.57168835 
0.3713554 -0.52113974 -0.7684457 
0.65679216 -0.47019342 -0.58952713 
0.391043 -0.8005636 -0.4540744 
0.3208047 -0.38296327 -0.86626995 
0.6248492 -0.54235286 0.5616199 
-0.19513689 -0.9671036 0.16319424 
-0.37602368 -0.86011636 -0.34468272 
0.1418907 -0.9894989 0.027548777 
-0.23035787 -0.9560189 0.1815574 
-0.36541986 -0.76297736 -0.5332296 
0.035103973 -0.7312802 -0.6811733 
0.27299365 -0.17478822 -0.94600403 
0.6714169 -0.51678216 -0.53116447 
0.62476647 0.13552043 -0.7689611 
0.26486713 0.071195364 -0.9616531 
-0.20989852 -0.4790382 -0.8523292 
0.24871352 -0.5098909 -0.82350045 
-0.6650564 -0.49669743 -0.55766624 
-0.6722953 -0.5920837 -0.44436023 
-0.7869774 -0.4602426 -0.4109057 
-0.09857492 -0.76346004 -0.6382882 
-0.99177605 -0.12600122 0.02244964 
0.41139585 -0.6562905 -0.6324843 
0.4207074 0.14689672 -0.89522433 
-0.1618766 -0.022517525 -0.9865541 
0.0064349766 -0.042736035 -0.99906576 
-0.13612643 0.062313568 -0.98872983 
0.12913474 0.42604542 -0.8954382 
0.6089381 0.16845965 -0.77512306 
0.64270467 -0.32226688 -0.6950358 
0.7613649 -0.6141212 -0.20779502 
-0.40985033 -0.7556138 -0.5109507 
-0.44002405 -0.69582534 -0.5676319 
0.0043424773 -0.7589262 -0.6511622 
-0.5333007 -0.6706789 -0.5155387 
-0.09250404 -0.2783358 -0.956019 
-0.086498454 -0.88679975 -0.45398706 
-0.69171435 -0.15747847 -0.704792 
-0.016104724 0.1326112 -0.9910373 
-0.27732122 -0.51210797 -0.81291974 
0.116395995 -0.21941227 -0.9686642 
-0.019009378 -0.09799708 -0.99500513 
0.4047425 0.4968348 -0.7676839 
-0.20445028 -0.06256577 -0.9768755 
-0.40124336 -0.0069418764 -0.9159453 
0.44204688 -0.23412454 -0.8658986 
0.42609695 -0.084296025 -0.90074176 
0.08411143 -0.64496714 -0.75956744 
-0.1034502 -0.48887992 -0.8661954 
0.11399653 -0.38237065 -0.9169501 
-0.54227656 -0.39853054 -0.73966855 
-0.41399455 0.08761939 -0.90605265 
0.27499995 -0.42138398 -0.8641821 
0.76093316 0.5661162 -0.3170066 
0.15719964 0.28284726 -0.9461954 
-0.3579522 -0.33581463 -0.8712628 
0.010280668 -0.2793524 -0.9601336 
-0.44003135 -0.25956678 -0.8596496 
0.3632361 -0.13759978 -0.92148024 
0.014339438 -0.41286108 -0.9106811 
-0.24819918 0.013440453 -0.9686158 
-0.5982988 -0.32333228 -0.73314047 
-0.31527418 -0.5029211 -0.80478114 
-0.016434032 -0.98920065 -0.14564367 
0.49398682 -0.567999 -0.6582964 
0.074363425 -0.3457768 -0.9353655 
0.61767775 0.071138844 -0.7832071 
0.19222555 0.45970395 -0.8670189 
0.50013536 -0.17147629 -0.8487994 
0.684731 -0.45679983 -0.567871 
0.3540954 -0.8429807 -0.40496927 
0.56021273 -0.09691514 -0.82265985 
0.69815296 0.23138897 -0.6775261 
-0.28280297 -0.19475363 -0.9391983 
-0.36079672 -0.145282 -0.92125946 
-0.3808445 0.12292393 -0.9164317 
-0.53944 -0.64212316 -0.5446856 
-0.5903056 -0.69549876 -0.40965942 
0.07829604 -0.9224425 -0.3781132 
0.00344999 -0.51963365 -0.8543822 
-0.095651485 -0.14919095 -0.9841712 
-0.49788177 -0.49363977 -0.7130453 
-0.6039504 -0.25944656 -0.75361234 
-0.4096383 -0.31260872 -0.8570135 
-0.002676909 -0.41094247 -0.91165745 
0.13944493 -0.31165892 -0.93990636 
-0.90332997 -0.42491105 0.058699995 
-0.95896745 -0.26879108 -0.09018201 
-0.46669784 -0.37181327 -0.80246377 
0.14086863 -0.3655996 -0.9200506 
0.101522915 0.010750607 -0.9947752 
0.47168726 -0.054781076 -0.8800626 
-0.11557292 0.3593674 -0.92601186 
0.26709008 -0.73685735 -0.6210509 
0.5433037 -0.41085616 -0.73213273 
0.4850457 -0.19907053 -0.85152894 
0.8083489 -0.33459687 -0.4843728 
0.041442215 -0.9538293 -0.29747668 
-0.31981575 -0.20310293 -0.9254551 
-0.6007705 -0.25540084 -0.7575258 
-0.4988101 -0.37475762 -0.7815019 
-0.46752 0.0065750284 -0.88395804 
-0.08851305 -0.23588903 -0.96774065 
-0.13931175 -0.34951493 -0.9265158 
0.18316516 -0.5252504 -0.831001 
0.33554673 -0.7093995 -0.619807 
0.396269 -0.379322 -0.8361135 
0.2200888 -0.83820117 -0.49897882 
-0.12146382 -0.24731167 -0.9612926 
0.19167024 -0.12732036 -0.973166 
0.06575555 -0.075593054 -0.99496835 
-0.2581373 -0.024179867 -0.96580565 
-0.5892156 0.2143007 -0.77903813 
-0.5509684 -0.7073131 -0.44287938 
0.19042422 -0.67509526 -0.71273077 
0.38726205 -0.62467587 -0.6780916 
0.490422 -0.18735823 -0.85110706 
0.9158307 -0.0036908125 -0.4015478 
0.9763763 -0.19679247 -0.08923022 
0.50128454 -0.44239733 -0.74363875 
0.16472493 -0.32067794 -0.93275476 
0.07531081 -0.07347112 -0.9944498 
-0.23096877 -0.14408536 -0.96223336 
-0.37186864 -0.00084495347 -0.92828506 
-0.5183889 0.10826112 -0.84826434 
-0.7846239 -0.06485562 -0.6165705 
-0.20960046 -0.1660801 -0.9635793 
-0.5353485 0.3879203 -0.75027996 
-0.066482246 0.28219134 -0.9570519 
-0.24011226 -0.20778881 -0.9482457 
-0.44855598 0.12557219 -0.8848893 
-0.24568005 -0.28243655 -0.92729235 
-0.25034514 -0.81523657 -0.52222294 
0.13364518 -0.845687 -0.51667464 
-0.533374 -0.4964265 -0.68488896 
-0.39593014 -0.3215836 -0.86012995 
-0.17446987 -0.27779794 -0.9446633 
-0.21756579 0.06628137 -0.97379255 
-0.08194719 -0.37512213 -0.92334616 
0.2514069 -0.8243867 -0.5071303 
-0.2392274 -0.093307264 -0.9664699 
-0.06646587 -0.9654856 -0.25183314 
-0.12461706 -0.61474645 -0.778818 
0.39287457 -0.7378672 -0.5488184 
0.01354427 -0.76640296 -0.64221734 
-0.07147394 -0.16663945 -0.983424 
-0.33656967 -0.24791685 -0.90843725 
0.13926134 -0.062912494 -0.98825526 
0.019904085 -0.8536831 -0.52041245 
-0.036312763 0.027137322 -0.998972 
-0.6270208 0.44831812 -0.6370682 
-0.3924976 -0.13145292 -0.91031086 
-0.425253 -0.029056793 -0.90460795 
0.10235827 -0.33946276 -0.9350336 
-0.39125395 0.15247184 -0.9075642 
0.2056939 -0.069165014 -0.97616917 
-0.0644674 0.38595834 -0.92026097 
0.020534636 0.10477849 -0.9942836 
-0.07369964 -0.2928605 -0.95331067 
-0.19286168 -0.29048133 -0.9372433 
0.3304878 0.22757146 -0.9159635 
0.43950737 0.6216661 -0.6483554 
-0.038071513 0.7789716 -0.62590253 
0.13765174 0.0291557 -0.9900515 
0.44349402 0.19094156 -0.8757023 
-0.15083577 -0.22589816 -0.9624026 
0.27948284 -0.35310113 -0.8928656 
0.12167343 -0.45566314 -0.8817974 
-0.18215045 -0.20535603 -0.96158737 
-0.29734513 -0.7928481 -0.5319566 
0.12771869 -0.06054143 -0.989961 
-0.10222824 0.14270937 -0.98447114 
-0.5330066 0.10950025 -0.8389956 
0.014657694 0.44142258 -0.89717966 
0.3442334 0.56038445 -0.7533078 
-0.1497759 0.17513613 -0.9730851 
-0.2534681 -0.90580666 -0.33951157 
-0.72964925 -0.6187697 -0.29109475 
-0.4793791 0.116027065 -0.8699043 
-0.7951072 -0.10841344 -0.5967002 
-0.20639274 -0.044605847 -0.977452 
0.20230865 0.37420088 -0.90501106 
0.13090745 -0.26986742 -0.9539575 
-0.46318352 -0.7312859 -0.5006815 
0.55969703 -0.032912083 -0.8280436 
0.21403265 0.5356385 -0.8168731 
0.7098667 -0.2301515 -0.66567236 
0.45167452 -0.65269583 -0.6082584 
0.15800253 -0.7132811 -0.6828362 
-3.2712003e-05 -0.40869683 -0.91267025 
0.112462886 -0.036498897 -0.9929854 
0.47137362 0.06908765 -0.8792234 
0.5551184 -0.5143239 -0.653693 
0.0054818047 -0.5317287 -0.84689707 
-0.29305547 -0.29394785 -0.9097875 
0.3588795 -0.15265496 -0.920816 
-0.59052706 -0.4897202 -0.6414453 
-0.28775868 -0.7468386 -0.5995224 
-0.26359576 -0.82537794 -0.49926794 
-0.43712813 -0.7800143 -0.4477689 
-0.5660349 -0.7429734 -0.35720456 
-0.81257176 0.057130434 -0.58005464 
-0.37097502 0.15363778 -0.9158455 
-0.31506225 0.50706446 -0.8022602 
-0.27894786 -0.026541702 -0.9599394 
-0.35865054 -0.07204854 -0.93068725 
-0.35455954 0.5431507 -0.76110107 
0.06414681 -0.10382804 -0.9925246 
0.20036368 -0.30359674 -0.93149537 
-0.04132699 -0.63457096 -0.7717589 
0.003996997 -0.760902 -0.64885455 
0.015129508 -0.7844989 -0.6199458 
0.12721302 -0.56026244 -0.8184882 
-0.03673624 -0.4569366 -0.8887404 
0.27049646 -0.51626945 -0.812587 
-0.040004384 -0.9883001 0.14718224 
-0.042159114 -0.80142105 -0.59661293 
-0.5111618 -0.3583364 -0.78122264 
0.16825898 0.11589037 -0.9789067 
0.09671061 -0.8016475 -0.58992237 
0.3923218 -0.29471347 -0.87133676 
0.5521407 -0.089599535 -0.8289226 
0.90366274 -0.4213473 -0.07655117 
0.79600024 -0.58366996 0.16035251 
0.44099018 0.32513356 -0.83654994 
0.4888784 0.26823798 -0.83008826 
0.6347841 -0.4501639 -0.62801415 
0.18271045 -0.24857774 -0.95122343 
0.3416164 -0.89307934 -0.2927584 
-0.20478518 -0.38380963 -0.9004184 
-0.40037844 -0.58868676 -0.7022429 
-0.5715889 -0.09532445 -0.8149843 
-0.7248494 -0.56626105 -0.3923541 
-0.70682997 0.49550268 -0.504845 
-0.4733144 0.043276347 -0.87982994 
-0.142005 -0.042519737 -0.9889524 
0.11253116 -0.3067702 -0.9451078 
0.0019647994 0.122727826 -0.99243844 
-0.22620034 -0.77751344 -0.58677614 
0.15722728 -0.44144535 -0.8834057 
0.069285005 -0.30854023 -0.9486847 
-0.027513515 0.05430043 -0.9981455 
-0.2916295 -0.7989773 -0.52591586 
-0.33605158 -0.22798188 -0.9138346 
-0.36728242 -0.2640643 -0.8918373 
-0.22114511 0.02462755 -0.97493 
-0.7008165 -0.32958612 -0.63263685 
-0.43980765 -0.7937301 -0.42019278 
-0.2848675 -0.8336724 -0.47311834 
-0.6240877 -0.7693928 0.13619563 
-0.2540049 -0.65577817 -0.71094066 
0.015689487 -0.6146644 -0.7886327 
-0.27804664 -0.5545171 -0.7843475 
-0.13454717 -0.82105345 -0.5547688 
0.008020843 -0.1410482 -0.9899703 
0.23827799 -0.66488624 -0.7079194 
0.43906346 -0.30465895 -0.84522563 
0.7886152 -0.28070307 -0.5470757 
0.6957596 -0.096983284 -0.71169716 
0.49179235 0.1210752 -0.86225355 
0.51930314 -0.37939113 -0.76575893 
0.3942999 -0.83725876 -0.37884748 
0.562552 -0.80854976 0.17257607 
-0.4177303 -0.75323796 -0.508069 
-0.6314357 -0.25246146 -0.73317957 
-0.18087116 -0.22121318 -0.9583061 
-0.31209973 -0.38293865 -0.8694549 
0.080250554 -0.13281474 -0.9878867 
0.48725408 -0.11493848 -0.86566323 
0.33349952 0.034095835 -0.94213355 
-0.29775023 0.4981827 -0.8143456 
-0.85773027 -0.33386657 -0.39093712 
-0.25478926 -0.5984887 -0.7595353 
-0.62034386 -0.70592886 -0.34181586 
-0.21445087 -0.7034705 -0.67759883 
-0.3481327 -0.83625823 -0.4236461 
-0.5440225 -0.49762452 -0.67558086 
-0.46435753 0.34424546 -0.81600696 
-0.06692193 0.513834 -0.8552755 
0.21097341 0.6660176 -0.7154795 
-0.008096062 0.22274198 -0.9748438 
-0.23415713 -0.008370504 -0.9721627 
0.14604121 0.14989164 -0.9778571 
0.38072452 0.38998678 -0.83842653 
0.10013891 0.21319887 -0.97186345 
0.4226845 -0.44783267 -0.7878983 
0.58008397 -0.23129243 -0.78102916 
0.19057271 -0.43204346 -0.8814877 
0.17484371 -0.517708 -0.83750117 
-0.21742421 -0.4447589 -0.86885923 
0.10891241 -0.9202508 -0.3758679 
-0.4852057 -0.74740285 -0.45383298 
0.3489975 0.18496473 -0.91868865 
-0.7014838 0.1597721 -0.69454545 
-0.09606309 -0.4846952 -0.86939204 
-0.43821937 0.089492485 -0.8944021 
-0.44359773 0.21201988 -0.8707863 
-0.42872542 0.28854385 -0.8561174 
-0.12908041 0.80826664 -0.5744939 
-0.573158 0.62587607 -0.528932 
-0.106886744 0.3194453 -0.9415572 
-0.08823636 -0.0039351736 -0.99609184 
-0.52135885 0.5929633 -0.6136608 
-0.19715804 0.2535918 -0.9470058 
0.027691184 0.0029813093 -0.9996121 
0.07376586 -0.33745277 -0.9384478 
-0.41662645 0.20592663 -0.8854472 
-0.018759957 0.12282507 -0.9922511 
0.5779798 -0.028026668 -0.81556976 
0.7318618 0.19029848 -0.65434307 
0.20990805 0.5314118 -0.820695 
-0.56651455 -0.27961746 -0.77516145 
-0.012310484 0.20558 -0.97856295 
-0.6161205 -0.3890691 -0.68485093 
0.16245793 0.20852727 -0.9644293 
-0.26170674 0.638005 -0.7241956 
-0.7104464 0.18033406 -0.6802541 
-0.75137717 -0.08420485 -0.6544784 
0.007858334 -0.10597679 -0.9943376 
0.8978517 0.14696029 -0.4150483 
0.5819287 -0.7782629 -0.23593624 
-0.37027544 0.1272409 -0.9201662 
0.11394755 -0.74860907 -0.65314656 
0.3735614 -0.14686634 -0.9159051 
0.24775237 -0.17685485 -0.9525446 
0.79330516 -0.4074326 -0.45239985 
0.6077665 -0.48215508 -0.6309885 
0.17849983 -0.45855874 -0.8705526 
0.32258353 -0.2864477 -0.9021572 
-0.52738184 0.13716632 -0.8384831 
-0.29476365 -0.0448616 -0.95451665 
-0.47607473 -0.17001162 -0.8628146 
-0.08397077 -0.020613665 -0.99625504 
-0.4291176 -0.44302186 -0.7871402 
-0.44840398 0.05926757 -0.89186394 
-0.4902218 -0.1021863 -0.8655868 
-0.5910638 0.00111912 -0.8066241 
-0.8379379 -0.2894638 -0.46267787 
-0.95781636 0.061436772 -0.28073737 
0.019784208 -0.021524586 -0.9995726 
-0.050995167 -0.43397176 -0.8994821 
-0.08318294 0.6089281 -0.78885186 
0.037262056 0.6630152 -0.74767804 
-0.17365234 0.11265298 -0.97834265 
-0.25334936 -0.28016204 -0.92591757 
-0.9323149 -0.1797738 -0.3138 
-0.5593602 0.36207443 -0.7456663 
-0.8056474 0.08519673 -0.5862371 
0.02581763 0.33239788 -0.9427858 
0.08854751 0.060377203 -0.9942404 
0.55756354 -0.5485388 -0.6230796 
0.18612649 -0.84274113 -0.5051181 
0.2644242 -0.5392844 -0.79953253 
0.22531433 -0.7239918 -0.6519735 
0.09774429 -0.6003288 -0.7937578 
-0.44404414 -0.44033858 -0.78033763 
0.28060493 -0.14166656 -0.94931114 
-0.17809041 0.43201786 -0.8841066 
-0.2437267 0.19295274 -0.950456 
0.51219714 -0.117121965 -0.8508447 
0.3465953 -0.24290459 -0.90601826 
0.10763685 -0.53606135 -0.83728886 
-0.21271919 -0.81343776 -0.5413591 
0.055772297 -0.8244216 -0.5632216 
0.08647837 -0.5439987 -0.83461785 
0.39784667 0.4691641 -0.7884181 
0.34474292 0.62800497 -0.6976834 
0.30859154 -0.029587824 -0.95073444 
-0.4951085 0.49686944 -0.71273303 
0.4846283 0.60485697 -0.6318889 
0.122512855 0.3274167 -0.9369039 
0.55792916 -0.33821875 -0.75784117 
0.48627332 -0.0869723 -0.8694678 
0.045431614 -0.18354377 -0.9819612 
0.66845036 0.229964 -0.70731235 
0.7888211 0.012204307 -0.6145017 
-0.18757427 0.01633367 -0.9821146 
-0.52128816 0.0010573745 -0.8533801 
-0.50129163 -0.093555495 -0.86020595 
-0.2929249 0.10714621 -0.950113 
0.1544623 0.55871546 -0.8148488 
-0.3207281 0.10005583 -0.9418717 
0.4118952 0.13772053 -0.90076387 
0.0634069 0.5020318 -0.86252165 
-0.22877559 -0.318353 -0.9199528 
-0.32102937 -0.6237304 -0.7126714 
-0.08800429 0.4453971 -0.8909975 
-0.73155475 -0.3460771 -0.5874167 
-0.5457714 -0.091336586 -0.8329413 
0.20754638 -0.61415297 -0.76140714 
0.53871477 -0.49538004 -0.68145806 
0.28823197 -0.121497996 -0.94982135 
0.85510486 0.27847052 -0.43732122 
0.014512022 0.45674142 -0.8894811 
0.19017158 0.049832128 -0.9804854 
0.42566085 -0.8767859 -0.2237394 
0.5457026 -0.5062142 -0.66779935 
-0.18285018 0.25704417 -0.94894373 
0.17043947 -0.16954234 -0.97067285 
0.61975783 0.4055407 -0.6718907 
0.28083155 0.07893417 -0.9565057 
-0.38172323 -0.08425611 -0.92042834 
-0.15628208 -0.07818673 -0.984613 
0.2393592 -0.121893816 -0.9632492 
0.03924321 -0.15147772 -0.9876814 
-0.20562541 0.17877264 -0.96216345 
0.22240235 -0.03581684 -0.97429687 
0.22289783 -0.33878562 -0.91407925 
0.2801592 -0.062178656 -0.9579377 
0.41487056 0.40766022 -0.81344676 
0.31238964 0.21389663 -0.9255599 
-0.1423214 0.051424757 -0.9884838 
0.22561847 0.32278505 -0.91918784 
-0.2124541 0.09382581 -0.97265613 
-0.33184835 -0.13568325 -0.9335239 
0.61395603 0.3275846 -0.71815485 
0.37692437 0.7290454 -0.5713326 
0.7081384 0.6168021 -0.34364992 
-0.19827476 0.6845593 -0.701474 
0.13054985 -0.5190339 -0.84472513 
0.14928441 0.41555473 -0.8972338 
-0.5939632 0.40217224 -0.6967534 
-0.34772512 -0.37548584 -0.8591262 
0.381901 -0.3885217 -0.8385717 
0.09729903 -0.49308488 -0.8645232 
-0.17126688 -0.82526326 -0.5381525 
0.20704 -0.10911901 -0.97222817 
0.6296044 0.19556363 -0.75189966 
-0.16949975 0.18891485 -0.96725434 
-0.40875226 -0.33913216 -0.84729624 
-0.24477623 0.5803563 -0.77670527 
-0.50544393 0.057379127 -0.8609495 
-0.051365573 -0.053309504 -0.9972561 
-0.15374734 -0.9779525 0.14131775 
-0.8880674 -0.4094697 -0.20897578 
-0.43943778 -0.46461856 -0.76878095 
-0.18912226 -0.09923637 -0.97692627 
-0.6022074 -0.05250853 -0.79661113 
-0.57691973 -0.12298182 -0.8074894 
-0.1475113 -0.040581707 -0.9882275 
-0.114548944 -0.079465225 -0.9902342 
0.3578004 0.1778685 -0.9167015 
0.56160414 -0.28510845 -0.77673286 
0.8562818 -0.50625676 -0.10239886 
0.63316214 -0.17248371 -0.75455624 
0.4233296 -0.31669903 -0.84881914 
0.7200573 -0.16107593 -0.67496085 
0.49330992 0.07941526 -0.86622095 
0.28867403 0.12849574 -0.94876564 
0.46119916 -0.038987476 -0.8864398 
-0.34964237 -0.06620183 -0.9345414 
0.4693159 -0.8829913 0.008309711 
-0.040369194 -0.32019225 -0.9464921 
0.3257124 -0.70400435 -0.6311017 
-0.007325477 -0.5618657 -0.827196 
0.35865048 -0.27245864 -0.8928249 
0.20025657 0.019816292 -0.9795431 
0.6837307 0.2846221 -0.6719395 
-0.061633456 0.13666245 -0.98869854 
-0.43370387 -0.22162366 -0.8733751 
-0.6746841 -0.537395 -0.50597245 
-0.8603217 -0.11845917 -0.49579626 
-0.44832766 0.19954135 -0.8713126 
-0.14353475 0.27980378 -0.94926697 
-0.5797397 -0.0023956047 -0.81479836 
-0.31734833 -0.6234128 -0.7145954 
0.2309243 -0.8909153 -0.39108053 
-0.08832962 -0.69141924 -0.71703374 
-0.41806343 -0.46935233 -0.7777734 
-0.39449167 -0.5584857 -0.7297056 
-0.17735022 -0.7728562 -0.6092949 
-0.44093567 -0.71898156 -0.53725344 
-0.4513946 -0.5834562 -0.67514575 
-0.76859903 -0.06215593 -0.63670427 
0.129487 -0.088548824 -0.9876196 
-0.011170364 -0.861892 -0.5069691 
0.31492603 -0.66865194 -0.6735921 
0.08616477 -0.31356347 -0.94564986 
0.55505365 -0.28094405 -0.7829341 
0.6658494 -0.3570882 -0.65508217 
0.6601336 -0.083994746 -0.74643725 
0.82797706 -0.22060914 -0.5155441 
0.28061405 -0.5504093 -0.7863241 
0.12738888 -0.47614503 -0.8700908 
-0.057227813 -0.4582802 -0.88696355 
-0.6035696 -0.12856036 -0.78687733 
-0.14046952 0.16247328 -0.97666305 
-0.42099893 0.12109465 -0.8989416 
0.08374125 0.42912093 -0.89935684 
0.28899404 -0.57335114 -0.7666491 
-0.4719099 -0.3529885 -0.80789864 
-0.7045683 0.072893344 -0.7058825 
-0.5888616 -0.53340834 -0.6072213 
-0.008050316 -0.64057446 -0.7678539 
0.19495909 -0.90279406 -0.38334563 
0.54551584 -0.5660355 -0.6180748 
0.09762874 -0.6043367 -0.7907249 
-0.2513997 -0.47299507 -0.844437 
0.22450612 -0.720358 -0.6562632 
-0.2894255 -0.94994676 -0.117618196 
-0.20786355 -0.24751176 -0.9463249 
-0.011706252 0.18453625 -0.982756 
-0.3618243 0.018203564 -0.9320686 
-0.80218273 -0.24775301 -0.54325074 
-0.7708185 -0.39475778 -0.50000525 
-0.00661158 -0.5322871 -0.8465381 
0.059079375 -0.40770552 -0.9112003 
0.119588464 0.016338592 -0.9926891 
0.03628561 -0.39046463 -0.9199026 
-0.10743487 -0.88093054 -0.46088943 
-0.19794494 -0.19536316 -0.96054727 
-0.25554767 -0.068414226 -0.9643728 
0.15394711 -0.16959123 -0.97341627 
0.464191 0.10672256 -0.8792822 
0.38311455 0.10417034 -0.9178082 
0.24152195 0.04339466 -0.9694246 
0.88160485 -0.24913932 0.40087724 
0.7060044 -0.21119697 -0.67598355 
0.872793 -0.30566517 -0.38052747 
0.37119052 -0.68488747 -0.6270143 
-0.119554125 -0.927834 -0.35331446 
-0.014640541 -0.35137126 -0.9361218 
-0.7849558 -0.48834726 -0.3812628 
-0.5498933 -0.5221165 -0.6519293 
-0.06368054 -0.57807857 -0.8134925 
0.3463625 -0.22131257 -0.9116216 
0.118608005 -0.57041055 -0.8127508 
0.39616525 -0.8865347 -0.2389757 
0.32811692 0.3476598 -0.8783349 
0.006233984 -0.10697736 -0.9942419 
-0.13155523 0.034819048 -0.9906972 
0.17913815 0.19950767 -0.96338266 
0.28004482 0.27015406 -0.92119044 
0.4082942 0.5475236 -0.73042035 
0.30255476 0.5170289 -0.80071324 
-0.20652615 0.54185224 -0.8147043 
0.22269922 0.17956528 -0.95820737 
-0.19259821 0.3606385 -0.912604 
0.3933863 0.0080372775 -0.9193382 
0.7542558 0.0339558 -0.6557022 
0.40273094 0.13020334 -0.90601045 
0.4418062 0.15352839 -0.8838757 
-0.32109523 0.046569735 -0.9459013 
-0.2815947 -0.950776 -0.12934308 
0.30033675 -0.056899365 -0.9521346 
-0.7854523 -0.21061602 -0.5819841 
-0.5277505 -0.3821069 -0.75859994 
-0.28154507 -0.4483314 -0.84836984 
0.43371025 -0.38962138 -0.81245965 
-0.6239185 0.54634416 -0.5587788 
-0.52274245 -0.2409609 -0.81772757 
-0.35653108 0.14521964 -0.9229284 
-0.20669977 -0.35903773 -0.91014683 
-0.3569769 -0.28124544 -0.8907685 
-0.18272178 0.33950594 -0.92268556 
0.27923736 -0.30976582 -0.9088848 
-0.34304836 0.41871566 -0.84082997 
-0.34219328 0.09794829 -0.9345106 
-0.1339643 0.40685457 -0.90361667 
-0.18227348 0.21370663 -0.95974267 
0.01934651 -0.18412568 -0.98271227 
-0.12339177 -0.18207847 -0.97551113 
0.4976544 0.045113795 -0.8662014 
0.990738 -0.11172365 0.07717576 
0.2148006 0.7740755 -0.5955399 
0.0027740903 0.54997003 -0.83517975 
0.2732022 -0.1266623 -0.9535813 
0.61321145 0.045886207 -0.788585 
0.75340116 -0.4263621 -0.5006018 
-0.27730778 -0.1665489 -0.94623566 
0.7723175 -0.2351153 -0.59012425 
-0.053576127 -0.07006955 -0.9961024 