# OOMMF: rectangular mesh v1.0
# Segment count: 1
# Begin: Segment
# Begin: Header
# Desc: Time (s) :  8.470000000000022e-07
# Title: m
# meshtype: rectangular
# meshunit: m
# xbase: 2e-09
# ybase: 2e-09
# zbase: 5e-10
# xstepsize: 4e-09
# ystepsize: 4e-09
# zstepsize: 1e-09
# xmin: 0
# ymin: 0
# zmin: 0
# xmax: 1.024e-06
# ymax: 1.024e-06
# zmax: 1e-09
# xnodes: 256
# ynodes: 256
# znodes: 1
# ValueRangeMinMag: 1e-08
# ValueRangeMaxMag: 1
# valueunit: 
# valuemultiplier: 1
# End: Header
# Begin: Data Text
-0.63611025 -0.69997287 -0.32465643 
-0.28539336 -0.30914077 -0.9071839 
0.07942793 -0.32314974 -0.9430087 
-0.36059937 -0.018080676 -0.93254554 
0.19567478 -0.3726604 -0.90710294 
0.5953709 -0.16468215 -0.7863926 
0.9820449 0.04728551 -0.18262513 
0.6271207 -0.08126529 -0.7746713 
-0.42303693 0.028575711 -0.9056618 
-0.023977177 0.5672332 -0.82320815 
0.6050815 0.5503487 -0.57531965 
0.19540896 0.9766338 -0.08945349 
-0.652045 -0.13450162 -0.7461546 
-0.5965591 -0.72431475 -0.34566677 
-0.9027396 -0.22032526 -0.3694836 
-0.37998554 -0.1706899 -0.90910727 
-0.22764733 0.20181184 -0.952601 
0.44947392 -0.5558556 -0.6992839 
-0.68417233 0.26787737 -0.67834353 
-0.8670533 0.04180748 -0.4964583 
-0.83675784 -0.24326688 -0.49056873 
-0.20804626 -0.6443394 -0.73589647 
-0.037430756 -0.9946779 -0.09599447 
0.101198174 -0.98627484 -0.13046451 
-0.45164514 -0.58534414 -0.6733417 
-0.2588377 -0.7159627 -0.64838296 
-0.28237173 -0.61533153 -0.73595744 
-0.008735742 -0.8518665 -0.52368635 
0.1424355 -0.06376805 -0.9877479 
-0.35108837 -0.36318144 -0.863039 
0.020453278 -0.017702859 -0.99963415 
-0.2787613 -0.2733505 -0.92063653 
-0.0004140894 -0.32210088 -0.9467053 
-0.30562913 -0.5132566 -0.8019717 
-0.14196436 -0.67367774 -0.7252616 
0.30302015 -0.12572709 -0.9446542 
0.45954058 0.4016146 -0.7921668 
0.4667229 0.045249645 -0.88324535 
0.1799513 -0.5538801 -0.8129172 
0.4954384 -0.023941875 -0.86831313 
0.54837877 0.08080432 -0.8323169 
-0.15330616 0.15312153 -0.9762434 
0.70232713 -0.5293728 -0.47592136 
-0.45093682 -0.15292542 -0.87935764 
-0.49047157 -0.82928586 -0.26781097 
-0.2730833 -0.94556695 -0.17699887 
-0.3236086 -0.30087465 -0.8970797 
0.19864053 -0.8681328 -0.45484874 
-0.531671 -0.048046786 -0.8455871 
0.3917331 0.21282724 -0.8951256 
0.6852221 -0.31967098 -0.654432 
0.08649479 -0.1855876 -0.9788135 
0.24151707 0.25033185 -0.9375519 
0.8146971 -0.08302377 -0.57391256 
-0.6622204 0.23936598 -0.710048 
0.3067835 0.2776741 -0.91037416 
0.11756972 0.21046758 -0.9705054 
0.13099901 -0.077848874 -0.98832124 
-0.22413872 -0.6531645 -0.7232829 
-0.74393106 0.07695712 -0.66381043 
-0.25523505 -9.055551e-05 -0.9668791 
-0.7224 -0.31827727 -0.6138712 
-0.588211 0.35885268 -0.7247293 
-0.7585767 0.20506983 -0.6184722 
-0.11183431 -0.49791217 -0.8599865 
0.5060772 -0.13689898 -0.8515542 
0.36001736 -0.40388444 -0.8409905 
0.44100642 -0.54399836 -0.7138481 
0.46838292 0.013225109 -0.88342667 
-0.063248895 -0.08529692 -0.994346 
-0.075603254 0.24765567 -0.9658938 
0.8771171 0.019009436 -0.47990033 
0.5587941 -0.4605305 -0.6896817 
0.08143763 -0.6686899 -0.73906827 
-0.4882457 -0.58560497 -0.64705724 
0.42967686 -0.36591902 -0.82551867 
0.18739906 0.4792813 -0.8574213 
0.03332871 -0.11011534 -0.99335986 
0.5583606 0.27096546 -0.7840991 
0.41277453 -0.058783203 -0.9089344 
-0.1619196 0.0971166 -0.98201346 
0.029312124 -0.8905019 -0.45403427 
-0.3311929 -0.91646874 -0.22449121 
-0.44537675 -0.8430678 -0.30145675 
-0.8069111 -0.5385375 -0.24263518 
-0.54351974 -0.02306688 -0.8390794 
-0.0588808 0.15881485 -0.9855511 
0.0143288495 -0.15030451 -0.98853594 
-0.55960745 0.21311252 -0.8008887 
0.24021992 0.7657631 -0.5965747 
0.37388578 0.34407842 -0.86128944 
0.55692166 0.3991652 -0.7283581 
0.17086615 0.50725716 -0.8446864 
0.055755086 -0.24895935 -0.9669078 
0.6919352 -0.38979033 -0.6076917 
0.49224514 -0.21058472 -0.84459984 
-0.114175364 -0.8876612 0.4461185 
-0.2860412 -0.7269098 -0.6243258 
0.39876962 -0.54686695 -0.73615175 
-0.052081235 -0.16588224 -0.9847694 
0.34254786 -0.18085368 -0.921929 
-0.17325391 -0.14501747 -0.97414225 
0.014624276 -0.5959287 -0.8029042 
0.9073191 -0.24407955 -0.3423408 
0.14059643 -0.036205843 -0.9894048 
0.34191975 -0.323011 -0.88247085 
0.02996866 -0.9008557 -0.43308315 
0.54632187 -0.6346405 -0.546593 
0.8783659 -0.24156778 -0.41245413 
0.65949893 -0.31302762 -0.68342876 
0.24538335 -0.51172185 -0.8233637 
0.5185873 -0.3345441 -0.7868593 
-0.13962701 -0.22021037 -0.96540755 
-0.001132493 -0.18044256 -0.98358494 
-0.055194236 -0.7567846 -0.65133 
0.82405394 -0.56429857 -0.05002384 
0.4991919 -0.47221538 0.72651225 
0.39684564 -0.87932926 0.26323712 
-0.042114336 -0.85209715 0.52168655 
0.289853 -0.94100577 0.17462376 
0.022580227 -0.8459305 -0.5328151 
-0.036833987 -0.50223047 -0.86394906 
0.07176777 -0.81448156 -0.5757337 
0.0009981933 -0.33263052 -0.9430567 
-0.14334998 -0.4540165 -0.87938607 
-0.09933833 -0.9041042 -0.41560528 
-0.23010409 -0.61341685 -0.7554944 
0.22231297 -0.102611504 -0.96956074 
0.29542455 -0.15518574 -0.94267803 
0.5873049 -0.71686876 -0.37572905 
0.856708 -0.3878064 -0.34008476 
0.24571717 -0.9635551 0.10575819 
-0.005456447 -0.95950735 -0.2816306 
0.0055006966 -0.12170866 -0.9925506 
-0.7708096 0.2740902 -0.57508886 
-0.34102437 -0.91065145 -0.23327313 
-0.36941615 -0.39903075 -0.8392295 
0.5065999 -0.72945654 -0.4596191 
0.10294109 -0.51411146 -0.85152376 
0.025934355 -0.44183254 -0.8967226 
-0.36911556 0.115797445 -0.92214143 
-0.29753426 -0.72344345 -0.6229792 
0.11640861 -0.931983 -0.34330264 
-0.15245543 -0.49525568 -0.8552656 
0.021323726 -0.65525806 -0.7551041 
-0.833929 0.4441685 -0.3275313 
-0.2497963 0.51931286 -0.81726134 
0.039156184 -0.29521236 -0.95462906 
-0.15818456 -0.70476717 -0.69157857 
0.2750517 -0.53411144 -0.7994195 
0.8639963 -0.50346285 -0.0059707994 
0.62915653 -0.63550186 -0.44754833 
0.27628884 -0.67701644 -0.6821388 
0.4681097 -0.57762784 -0.6687446 
0.064058185 -0.973066 -0.22144818 
0.7685371 -0.4978408 -0.40187725 
-0.40987197 -0.4796208 -0.7758666 
-0.85211116 -0.29457968 0.43258443 
-0.8135443 -0.4949324 -0.30526674 
-0.4714202 -0.30970192 -0.82574075 
0.33586925 -0.44325376 -0.8310944 
0.33644634 0.17327471 -0.92562395 
0.61860406 -0.5195182 -0.5894319 
-0.23907125 -0.93168205 0.2735207 
0.32291126 -0.938644 -0.12114413 
0.4961 0.13430126 -0.8578158 
-0.13994469 -0.19144101 -0.97147614 
0.33881518 -0.22559352 -0.9134068 
0.5242132 -0.65936375 -0.5389249 
-0.021030007 -0.9629957 -0.2686952 
-0.5195246 -0.5914261 -0.6166924 
0.13794173 -0.33374238 -0.9325172 
0.4814287 0.23055662 -0.84561825 
0.2762517 -0.5631013 -0.77884656 
0.4241812 -0.75967205 -0.49291867 
0.06343757 -0.98681647 -0.14889273 
-0.17459445 -0.7300979 -0.6606617 
-0.36844048 0.08368851 -0.9258768 
-0.9481938 0.29792413 -0.11031665 
-0.5524832 0.20422707 -0.8081173 
-0.63780695 0.29505417 -0.71143895 
-0.12884492 -0.2739815 -0.9530651 
0.34365258 -0.30190662 -0.88924426 
-0.34027123 -0.80585134 -0.48458165 
0.3236376 -0.5991721 -0.73229194 
-0.043328825 -0.973317 0.225337 
-0.39357206 -0.91269416 -0.10995662 
-0.34811258 -0.83114535 -0.433607 
-0.28384683 -0.77482927 -0.56486344 
-0.58636284 -0.69754964 0.41182905 
-0.17553367 -0.9539693 -0.24316747 
0.52852947 -0.76998043 -0.35747266 
0.48188755 -0.68215954 -0.54994804 
0.81415284 -0.003063709 -0.58064264 
0.18319921 -0.32554865 -0.9276078 
-0.06921753 -0.8174912 -0.5717667 
-0.26807195 -0.4627701 -0.84497416 
-0.3987404 -0.5433713 -0.73875153 
-0.23633721 0.33465862 -0.91222167 
-0.18330641 0.13172677 -0.9741904 
-0.3615702 -0.19603162 -0.9115035 
-0.18233408 -0.9398579 -0.2888276 
-0.3233362 -0.93984145 -0.11023566 
-0.09211979 -0.55398166 -0.8274167 
0.58014005 -0.49810442 -0.6444607 
0.7367966 -0.40593442 -0.54069227 
-0.10561211 -0.25453356 -0.96127975 
-0.40611437 -0.54409415 -0.73418844 
-0.07023716 -0.2910569 -0.9541241 
0.11827801 0.014693596 -0.9928719 
0.8321369 0.4929333 -0.2540962 
-0.054693755 -0.9958498 -0.07274518 
-0.21423936 -0.74349076 -0.63350064 
-0.20400427 -0.87019354 -0.44849256 
-0.3522225 -0.710273 -0.6094683 
0.20934178 -0.6192115 -0.75680465 
-0.00896746 -0.5703796 -0.8213323 
0.6907056 -0.22938645 -0.6857898 
-0.22045016 -0.41848275 -0.88106406 
-0.59346044 -0.4774393 -0.6479633 
-0.23397961 -0.7340433 -0.6375218 
0.19304381 -0.9548569 -0.22579317 
0.5034684 -0.63315016 -0.587912 
0.4543794 -0.83325136 -0.31501058 
0.38832 -0.47364548 -0.7904857 
0.41206726 -0.085680395 -0.907116 
0.15856275 0.30805635 -0.9380614 
-0.33027455 -0.26120952 -0.90702176 
-0.39087743 -0.46937114 -0.7917737 
0.41023657 -0.59436315 -0.69169253 
0.5572573 -0.41351667 -0.7200475 
0.18807466 -0.9741998 -0.1247507 
-0.23957275 -0.8062349 -0.54091614 
0.18972592 -0.5524712 -0.81165236 
0.44522157 -0.52339464 -0.7265231 
0.35145485 -0.6701093 -0.65378374 
0.55227757 -0.7510805 -0.36175638 
0.91376853 -0.33407018 0.23113707 
0.21774802 -0.9687358 0.11889817 
0.6812232 -0.72917694 0.065083906 
0.48764205 -0.5357344 -0.68934315 
0.5734017 -0.70015913 -0.42542663 
-0.39205223 -0.36419058 -0.8447842 
-0.32467943 -0.31797978 -0.8907706 
-0.5746942 0.01141553 -0.81828856 
-0.42725474 -0.31730792 -0.84662217 
0.36146334 -0.13815174 -0.9220946 
0.62946874 -0.50984573 -0.5863672 
0.41703996 -0.34338233 -0.84152627 
0.69253784 -0.4267923 -0.58158386 
0.2930222 -0.8619508 -0.41373774 
0.8358927 -0.53789884 0.10930861 
0.12551019 -0.545566 -0.82861626 
0.50879776 -0.6965998 -0.5058396 
0.32740787 -0.71848446 -0.6136646 
0.1959953 -0.9741526 0.112305924 
-0.31699887 -0.38668048 -0.86601967 
0.21925354 -0.42206687 -0.8796519 
-0.5034636 0.23236012 -0.8321858 
-0.51070976 0.43303218 -0.7427373 
0.03335091 -0.08565699 -0.99576634 
0.15240984 0.32481205 -0.93341756 
0.4622684 0.10930543 -0.8799774 
-0.27242094 -0.087875135 -0.95815706 
-0.21896935 0.025963707 -0.97538626 
0.07217691 0.33599898 -0.93909276 
-0.29345265 0.16689089 -0.9412933 
-0.5485059 0.4425934 -0.70940286 
-0.7390816 0.28706717 -0.60938567 
-0.7344186 -0.057433553 -0.6762624 
-0.6472392 0.2625599 -0.7156422 
0.034290724 0.24039507 -0.9700692 
0.04995929 0.73133975 -0.680181 
-0.22601864 0.3603976 -0.9050023 
-0.45112157 -0.5164224 -0.7278717 
-0.39329436 -0.31778425 -0.86274713 
-0.72602177 -0.3334671 -0.6014084 
-0.11351701 -0.35665435 -0.9273143 
-0.6847508 -0.43282223 -0.58632874 
-0.4606391 -0.16618903 -0.87189037 
-0.47765136 -0.7122776 -0.5143053 
-0.26947564 -0.56868464 -0.77716196 
0.27181387 -0.8672639 -0.4170979 
-0.38096833 -0.7803989 -0.49582338 
-0.6899338 -0.08803531 -0.71849936 
-0.20025319 0.31213585 -0.92869264 
-0.5157259 0.34632587 -0.7836359 
0.019202702 0.1104399 -0.99369735 
-0.13875148 -0.38310695 -0.9132235 
0.16536038 -0.7008362 -0.693891 
0.17850077 -0.60744375 -0.77404755 
0.2607443 -0.18195021 -0.9481069 
0.3174157 -0.45699057 -0.8309073 
0.44047716 -0.13192491 -0.88801795 
0.9136843 0.3872851 -0.12325306 
0.6611961 -0.29988182 -0.68767047 
0.13764368 -0.7313843 -0.6679306 
0.032493174 -0.46781522 -0.8832289 
-0.22392236 -0.6118266 -0.758635 
-0.7256018 -0.55818945 -0.40240103 
-0.68216336 -0.73047745 -0.032495353 
0.05161995 -0.34925655 -0.9356042 
0.2717844 -0.40581006 -0.8726118 
-0.109850235 -0.54002017 -0.8344527 
-0.6817411 -0.49609354 -0.53769916 
0.25811887 -0.63690144 -0.7264511 
0.41773444 0.0011457974 -0.90856844 
0.5013324 -0.17910595 -0.8465146 
0.39042386 -0.6585792 -0.64330614 
0.18368182 0.46444386 -0.86634463 
-0.31964254 -0.15132038 -0.93537736 
0.12250346 0.16396736 -0.9788298 
0.3286375 0.23311783 -0.9152341 
0.3684678 -0.004775326 -0.9296283 
0.27915952 -0.5146822 -0.81066173 
-0.10432494 -0.010202811 -0.9944909 
-0.68742687 -0.1710221 -0.70582986 
-0.709519 -0.24876936 -0.6593152 
-0.623766 0.68284476 -0.3803146 
-0.8298466 0.32252136 -0.45534018 
-0.44043267 -0.5797859 -0.68546885 
-0.51236707 -0.58126956 -0.6321438 
-0.2685359 -0.4364065 -0.858742 
-0.038834285 0.38467938 -0.92223305 
-0.12581174 0.27041093 -0.95448905 
0.6475306 0.51709896 -0.55974364 
0.29547557 0.7910171 -0.53571093 
0.50864536 -0.18892513 -0.83999246 
0.53248894 -0.24710572 -0.80956423 
0.6264381 -0.5395541 -0.5625448 
-0.11837225 0.106818445 -0.9872071 
0.011384075 0.48490918 -0.8744905 
-0.5203091 -0.0035212475 -0.8539708 
-0.6036421 -0.06381312 -0.79469746 
-0.08967753 -0.6398422 -0.76325613 
-0.20219554 -0.6789007 -0.7058405 
-0.7888106 -0.10222383 -0.606076 
-0.3308146 -0.9016416 -0.27857524 
-0.3125242 -0.7761557 -0.5476412 
0.34044346 -0.9402643 -0.0011840442 
-0.29142496 -0.52575314 -0.7991591 
-0.6192972 -0.3609631 -0.6972637 
-0.2857765 -0.3364062 -0.8973085 
-0.4401124 0.61097956 -0.6580313 
0.00020283365 0.64441276 -0.7646778 
-0.31377485 0.31987447 -0.89399433 
0.47132412 -0.0010365901 -0.8819595 
0.6947023 0.38000232 -0.6107266 
0.62398285 0.60587215 -0.49352252 
0.65610266 0.00511452 -0.75465435 
0.7296275 -0.18455607 -0.6584701 
0.32822928 -0.779731 -0.53318405 
-0.41891962 -0.77572185 -0.47197664 
0.5066351 0.2466687 -0.8261207 
0.25135487 -0.14901678 -0.9563549 
0.40509087 -0.40611812 -0.8191272 
0.15624407 -0.3170273 -0.93545794 
-0.27184698 -0.30560577 -0.9125264 
0.37954766 -0.74038494 -0.5547737 
0.48058164 -0.759502 -0.43840417 
-0.13049862 -0.1618903 -0.9781419 
-0.47042602 -0.36830586 -0.80190414 
-0.32758555 -0.5684695 -0.75467235 
-0.28740484 -0.0460545 -0.9567014 
-0.22904776 0.03975724 -0.972603 
-0.185835 -0.042531576 -0.98166007 
-0.32564256 -0.86334074 -0.3854865 
-0.40464994 -0.49150363 -0.7711568 
-0.32260054 0.5977347 -0.7339224 
0.026983172 -0.17802157 -0.98365664 
0.31904694 -0.4035025 -0.8575517 
0.09970466 -0.96317667 -0.24969934 
0.16471384 -0.9739864 0.15562741 
0.07015663 -0.94405484 -0.32223988 
0.19238137 -0.89360434 -0.4055377 
0.25587904 0.051492225 -0.9653365 
0.60641617 -0.0074462285 -0.79511267 
0.79748344 0.033364233 -0.60241765 
-0.09967638 -0.09726088 -0.99025506 
0.3244776 -0.052994285 -0.94440776 
0.13913567 -0.4149137 -0.8991596 
-0.5375458 -0.34986284 -0.7672291 
-0.34559843 -0.2683196 -0.89920324 
-0.1578949 -0.18534438 -0.96990556 
0.034747858 0.03582371 -0.9987539 
0.24654649 -0.4804794 -0.84163797 
-0.21781597 -0.027312573 -0.9756077 
-0.034146946 -0.47769663 -0.877861 
0.23787296 -0.88261425 -0.4054732 
-0.05299912 -0.71217066 -0.7000029 
-0.49092892 0.057206377 -0.86931944 
-0.006287194 -0.5367343 -0.843728 
0.49841613 -0.057082925 -0.8650566 
0.076459326 -0.45566058 -0.8868639 
0.47461614 -0.16885208 -0.8638452 
0.5607826 -0.26966637 -0.78281736 
0.28083292 -0.2318475 -0.9313322 
0.039791115 -0.4909916 -0.8702551 
-0.13247038 -0.30406806 -0.943395 
0.5050183 -0.55031437 -0.6649141 
-0.12819906 -0.30508614 -0.9436565 
-0.6876322 0.055333015 -0.7239477 
-0.43045473 -0.12765703 -0.8935393 
-0.016628 -0.08268558 -0.99643695 
0.045673195 -0.82354337 -0.5654116 
0.1905013 -0.5337323 -0.8239169 
-0.12070232 -0.4041934 -0.9066745 
0.11021622 -0.23559439 -0.9655816 
0.69649386 -0.5193535 -0.49514478 
0.5603042 -0.54452896 -0.6241373 
0.23616008 -0.6377938 -0.7331082 
0.40559173 -0.59885544 -0.69055605 
-0.6600689 -0.2042254 -0.7229116 
-0.93305284 -0.2609822 -0.24758975 
-0.19757262 -0.59016764 -0.7827307 
0.10859915 0.028830454 -0.99366754 
0.3191527 0.21194322 -0.9237 
0.54127294 -0.62096226 -0.5669475 
0.50068367 -0.4283863 -0.7521975 
-0.4258657 -0.90414447 -0.034077525 
0.20251541 -0.80636996 -0.55565727 
-0.079766676 -0.7423881 -0.6652047 
-0.6344688 0.125079 -0.76276124 
-0.42862326 -0.6475555 -0.63004285 
0.46133447 -0.12991017 -0.8776639 
-0.59461313 -0.5624172 -0.57456267 
-0.9132421 -0.33292237 -0.234844 
0.03559359 -0.7424711 -0.66893184 
-0.18711701 -0.36988148 -0.91004115 
0.5621861 -0.82699835 0.004544267 
-0.005515978 -0.5221916 -0.85281044 
0.46922323 -0.48779255 -0.7361304 
-0.12158563 -0.72727513 -0.67549086 
0.57065254 0.082417965 -0.8170452 
-0.17153312 0.7331351 -0.6580953 
-0.32830027 0.58430344 -0.7421648 
-0.5178739 0.55944425 -0.64716995 
-0.66760087 0.19846787 -0.717579 
-0.6446314 -0.0062832097 -0.7644678 
-0.08822208 -0.25311163 -0.9634062 
0.6919278 -0.48714858 -0.5328435 
-0.062305547 -0.41844627 -0.90610194 
-0.046155877 -0.66405714 -0.7462559 
0.3165404 0.3096088 -0.89662963 
0.27282527 -0.23915672 -0.93186396 
-0.15817775 -0.9144241 -0.37257007 
-0.08714943 -0.1207694 -0.9888477 
0.4334422 0.2619842 -0.86226004 
0.18235466 -0.188519 -0.96499085 
0.481786 -0.5123787 -0.71088 
0.09919922 -0.011779619 -0.99499786 
0.07804911 -0.2200226 -0.9723675 
-0.2512414 0.045583803 -0.9668506 
-0.57009214 0.21870713 -0.7919357 
0.0053027514 0.41294524 -0.9107405 
-0.12708452 0.07529557 -0.98902994 
0.27535048 0.02655687 -0.960977 
0.034298163 0.11421317 -0.9928641 
-0.16240433 -0.8566134 -0.48973316 
-0.0696269 -0.80599177 -0.58781743 
0.1219509 -0.4562702 -0.8814451 
0.06478051 -0.792565 -0.6063367 
-0.32023448 -0.374857 -0.87001854 
0.18968086 0.23557593 -0.9531659 
-0.03029993 0.13201134 -0.99078506 
-0.21275437 -0.47162354 -0.8557493 
0.59289515 -0.20252578 -0.7793964 
-0.15399815 -0.7976588 -0.5831167 
0.23609754 -0.87712723 -0.41821766 
0.1949084 -0.5738685 -0.79541534 
0.034649428 0.48732698 -0.87253195 
-0.08201269 -0.21171221 -0.973885 
-0.0120302 -0.47786835 -0.8783491 
0.49854058 -0.10943584 -0.8599309 
0.6085326 0.43096444 -0.6663015 
-0.21535406 -0.30922315 -0.92628485 
0.22957028 -0.83255947 -0.50412536 
0.42931467 -0.6206359 -0.65612507 
0.46060142 -0.5807703 -0.6712318 
0.56938857 -0.6302356 -0.52782553 
-0.5742575 -0.17224947 -0.80034906 
0.31539935 -0.83800966 -0.44526753 
-0.17507994 -0.30606666 -0.93577254 
-0.08104324 -0.08292104 -0.9932554 
0.31515834 -0.81127185 -0.4924564 
-0.032858416 -0.61386096 -0.78873 
0.41209522 -0.8074802 -0.4220821 
-0.17839006 -0.80622774 -0.5640692 
-0.2121657 -0.5205766 -0.82703435 
-0.10582555 -0.18900369 -0.97625744 
0.018551134 0.07787276 -0.99679077 
-0.33509618 0.13933277 -0.9318246 
0.37110952 0.06470424 -0.9263321 
0.18257767 -0.80915284 -0.5585132 
0.037474975 -0.6909491 -0.72193146 
0.6453854 -0.19038218 -0.73975164 
0.464593 -0.5948385 -0.6559883 
0.45320025 -0.83252716 -0.3186034 
0.15052746 -0.7515305 -0.6422955 
-0.025113145 -0.10704713 -0.99393684 
0.12540813 -0.5698572 -0.8121181 
0.17365412 0.4271624 -0.8873425 
0.48229122 -0.047929503 -0.8746989 
0.82862234 0.12370406 -0.54596925 
0.44644666 -0.13752106 -0.88417953 
0.32497773 -0.35904562 -0.87491477 
0.5710007 -0.27290624 -0.77426124 
0.8385389 -0.122695126 -0.53084683 
0.32220688 -0.47439566 -0.81922615 
0.19848843 -0.39543456 -0.89679086 
-0.0010391183 -0.99433935 -0.1062462 
-0.21014313 -0.9325813 -0.2934827 
-0.014964816 -0.31640813 -0.9485051 
-0.18721907 -0.25596133 -0.94838434 
0.022809029 0.3459624 -0.9379712 
-0.43254352 0.47713387 -0.765016 
-0.22926842 0.580216 -0.78152764 
0.15362899 0.13909985 -0.97828907 
0.20760308 0.3960915 -0.89443415 
0.30572897 0.048291117 -0.9508932 
0.08511651 0.21671794 -0.97251666 
-0.05054587 0.46613935 -0.8832662 
0.13061996 -0.29764333 -0.94569916 
-0.4524925 0.7631424 -0.4613723 
-0.74776775 -0.14440101 -0.6480678 
-0.42975008 -0.3628788 -0.8268216 
-0.6654765 -0.268626 -0.6964059 
-0.020356512 0.17046899 -0.9851527 
-0.39829558 0.02292677 -0.9169707 
-0.16716321 -0.049859557 -0.9846678 
-0.0017278311 0.13283436 -0.9911367 
-0.39662164 -0.232145 -0.8881442 
-0.607486 0.05997322 -0.7920632 
-0.43789163 -0.12100263 -0.8908476 
-0.6488306 -0.42217407 -0.63307816 
-0.5241704 -0.23586735 -0.8182983 
-0.59907335 -0.48639515 -0.63602746 
-0.028785 -0.014995853 -0.9994732 
-0.017382989 -0.30184475 -0.9531987 
0.24345401 -0.6090313 -0.7548583 
-0.14325956 -0.087080605 -0.98584676 
-0.6624744 -0.04942303 -0.74745244 
-0.0072553097 -0.11912007 -0.9928534 
-0.19352037 -0.24548763 -0.9498873 
0.01979641 -0.5600021 -0.82825464 
-0.19607064 0.14535716 -0.96975654 
-0.20868765 0.22750936 -0.9511514 
0.5377262 -0.04113782 -0.8421154 
0.53750855 -0.006971865 -0.84322953 
0.10874961 0.24805446 -0.96262276 
0.6898779 0.3035497 -0.6572108 
0.4897632 -0.27191713 -0.82836777 
-0.15796283 -0.20823604 -0.96523863 
0.12676266 -0.6903621 -0.712272 
-0.19819848 -0.42848116 -0.88154477 
0.106016524 -0.93108815 -0.3490493 
-0.7254775 -0.57908165 -0.37195018 
-0.48865438 -0.56691355 -0.66319376 
0.02181637 -0.30608472 -0.9517543 
0.12163511 -0.16221748 -0.9792295 
-0.37248752 -0.02149308 -0.92778826 
0.022604732 -0.14333206 -0.98941654 
0.77500486 0.10615046 -0.62297636 
0.26234016 0.10664318 -0.9590646 
0.117595494 0.053665273 -0.99161047 
-0.27914515 0.59390366 -0.7545571 
0.017053615 0.11130396 -0.99364007 
-0.1377367 0.27631932 -0.95114475 
0.46250132 -0.56649095 -0.68204147 
0.36633554 -0.7594785 -0.53757846 
0.2193914 -0.3702742 -0.902643 
-0.6904186 0.11855052 -0.71363014 
-0.27157798 0.4879607 -0.82954186 
-0.6090787 -0.7779848 -0.15415165 
-0.21533495 0.6048977 -0.7666353 
0.28539377 -0.3559117 -0.8898749 
-0.3004971 -0.48802173 -0.81947327 
0.585958 -0.44079593 -0.67996484 
0.07435807 -0.88538504 -0.45887288 
0.5633085 0.017535543 -0.8260606 
0.29460603 -0.104131475 -0.94992834 
0.62939656 0.51493406 -0.5819819 
0.83795947 0.4015948 -0.36952075 
-0.06107751 0.31965116 -0.9455648 
0.26386607 -0.23790486 -0.9347599 
0.24216157 -0.5198232 -0.81923234 
-0.23300648 0.5154798 -0.8246142 
0.3128082 0.0045534135 -0.9498055 
-0.4571029 -0.13523656 -0.8790723 
-0.29254115 -0.5422376 -0.78765357 
-0.33831498 -0.30197224 -0.8912664 
-0.39155108 -0.77502805 -0.49600345 
-0.7102749 -0.6381587 -0.2970913 
-0.4614273 -0.4086841 -0.7874403 
-0.096798435 -0.6063417 -0.7892908 
-0.6571315 -0.49130505 -0.5716622 
-0.49618015 -0.20679665 -0.84323215 
-0.7150989 -0.63339573 -0.29570842 
-0.709915 -0.28407088 -0.64445674 
-0.37066233 -0.3545071 -0.8584487 
0.023276577 0.48785773 -0.87261283 
-0.16696903 0.37432712 -0.91214067 
0.11935153 0.49793273 -0.85896343 
-0.14382997 -0.09795235 -0.98474276 
0.69552064 -0.18919185 -0.69315046 
0.7080522 -0.0604967 -0.70356405 
0.057210404 -0.4031712 -0.9133346 
-0.14028388 -0.31249103 -0.9395051 
-0.4719511 0.08137115 -0.8778616 
0.18213496 -0.094843246 -0.9786888 
0.22014238 -0.44111812 -0.87003 
0.18924615 -0.6992656 -0.6893574 
-0.6794685 -0.07260513 -0.7301035 
-0.15130663 -0.51636386 -0.8428966 
0.02789225 -0.5781577 -0.81544816 
0.1900812 -0.6934617 -0.69496775 
-0.21587653 -0.5953507 -0.7739218 
-0.20944668 -0.67361873 -0.7087806 
-0.25968164 -0.36465773 -0.8941981 
-0.20296262 0.3347313 -0.92019635 
-0.5058835 0.053440288 -0.86094487 
-0.41783983 0.15191977 -0.8957289 
-0.41978285 0.23562492 -0.8765063 
0.010833706 -0.3643877 -0.9311844 
-0.057927568 -0.03195948 -0.9978092 
0.019294033 0.6376519 -0.77008295 
-0.11380933 0.041000128 -0.9926563 
-0.29195538 -0.50935394 -0.8095188 
0.07550954 -0.51031107 -0.8566685 
0.06503815 -0.52083373 -0.85117704 
0.11506819 -0.4004387 -0.9090701 
0.41879928 -0.08975924 -0.9036318 
0.2961744 0.41467476 -0.8604218 
0.7809511 0.43710947 -0.4461511 
0.30999938 0.37160406 -0.8751063 
0.20681177 -0.4560097 -0.865612 
0.48895296 -0.74605787 -0.4520208 
0.17666967 0.15185145 -0.97248596 
0.18150897 0.2589545 -0.9486818 
-0.44068837 -0.69091594 -0.57308733 
-0.7426206 -0.04103943 -0.6684539 
0.14090076 0.25229678 -0.95733666 
-0.01639877 -0.12508182 -0.9920109 
0.25086683 0.04492579 -0.96697855 
-0.010102086 -0.57464516 -0.8183403 
0.2641504 -0.07803484 -0.96131945 
0.26013544 -0.8505823 -0.45698962 
0.20269468 -0.10264837 -0.9738471 
0.29480752 0.21426034 -0.9312256 
0.607949 -0.30927715 -0.7312631 
0.31769863 -0.35022187 -0.88114256 
0.24600948 0.03257367 -0.96872 
0.23595484 -0.38985613 -0.8901335 
0.21360412 -0.37548956 -0.90187633 
0.6411905 0.097355805 -0.7611812 
0.4020827 -0.16994832 -0.8996928 
0.33672917 -0.037274394 -0.94086355 
0.050189093 -0.013393387 -0.99865 
-0.15172005 -0.3703083 -0.9164348 
0.10999104 -0.4527632 -0.88482064 
0.51679945 0.2427112 -0.820981 
-0.21497247 -0.13581252 -0.9671308 
0.01570915 -0.17421123 -0.9845831 
0.23580556 0.06790377 -0.969425 
0.3337001 -0.39682198 -0.8550886 
0.40233847 -0.21497902 -0.889892 
-0.041161213 0.24789533 -0.9679121 
0.32461604 -0.0412396 -0.9449464 
0.26928452 0.058771167 -0.96126574 
-0.6678753 -0.20855433 -0.71445626 
0.20006765 -0.6243445 -0.75509393 
0.3644626 -0.4867239 -0.7938936 
0.6974967 -0.3359792 -0.6329426 
0.15487841 -0.79223305 -0.59023696 
-0.16417478 -0.43218464 -0.88671476 
0.015927197 -0.51625997 -0.8562839 
-0.041676976 -0.62488896 -0.77960044 
0.06553548 -0.72578764 -0.6847901 
-0.06365547 -0.22636087 -0.97196126 
-0.05956956 -0.43403372 -0.898925 
-0.43297988 -0.33674964 -0.8361388 
-0.009680387 -0.39863157 -0.91706014 
-0.72119147 0.37430206 -0.5829073 
-0.24108382 0.08698629 -0.96659815 
-0.2932479 -0.115960926 -0.94897777 
0.008741376 -0.39777485 -0.91744155 
0.17905475 0.3453286 -0.9212425 
-0.005633702 -0.090949915 -0.99583954 
-0.034710076 0.56735635 -0.8227407 
-0.16125844 0.33779982 -0.92730093 
0.8277098 0.2029974 -0.5231525 
0.42866248 -0.04416581 -0.9023846 
0.1955343 -0.1183254 -0.9735325 
-0.1578985 0.29597864 -0.9420535 
-0.40711424 -0.08187035 -0.9097007 
0.4012005 0.35815436 -0.84306806 
0.3908894 -0.4890409 -0.77977216 
0.42961913 -0.07832982 -0.8996065 
0.28882843 -0.16881405 -0.94237995 
-0.29723138 -0.030774266 -0.9543094 
0.052076675 -0.3853252 -0.9213102 
-0.1219731 -0.18499254 -0.97514117 
0.019206725 -0.021154705 -0.99959177 
0.29869238 0.42998043 -0.85199744 
-0.16641302 -0.4657492 -0.8691285 
-0.3139592 -0.0510044 -0.9480655 
-0.34411928 -0.35143456 -0.8706754 
-0.16455972 -0.15378484 -0.9743051 
0.17736901 -0.0032866448 -0.98413897 
-0.1564158 0.45403704 -0.8771457 
0.18899286 -0.07592444 -0.9790389 
-0.39494053 -0.022227949 -0.9184377 
0.56614983 -0.40762568 -0.7164606 
0.5699258 0.09368035 -0.81633854 
-0.46931276 -0.5179356 -0.71518415 
0.031154092 -0.6742516 -0.7378443 
-0.16314934 -0.30625135 -0.93786585 
-0.035899524 -0.101511575 -0.99418646 
0.5622682 0.3836042 -0.7325997 
-0.82047117 0.40480793 -0.40368012 
-0.12251769 0.30541304 -0.9443052 
0.038782816 0.13615897 -0.98992765 
0.26303184 -0.45279217 -0.8519352 
-0.078201495 -0.58124405 -0.8099629 
-0.52387476 -0.21500482 -0.8242138 
0.43841287 0.0734967 -0.8957636 
0.5424107 -0.013939923 -0.8399978 
0.18262929 -0.4327027 -0.8828449 
0.72710115 -0.6039337 -0.32647836 
0.45843524 -0.09627707 -0.8834976 
0.40174776 0.10892901 -0.9092487 
0.05308427 0.022838365 -0.9983289 
-0.23674738 0.1186203 -0.9643028 
-0.08865412 -0.03497255 -0.99544835 
-0.22428553 0.25151458 -0.9415075 
-0.14311999 -0.43493125 -0.88901716 
-0.62916225 -0.47404504 -0.6159839 
0.1697045 -0.37857467 -0.9098801 
-0.017286556 -0.408111 -0.9127687 
0.14746012 -0.64099234 -0.75324917 
0.08412682 -0.8284469 -0.55371326 
-0.014586307 -0.75679445 -0.6534901 
0.090122856 -0.17297252 -0.9807948 
0.018493153 -0.50271803 -0.8642527 
0.4694259 -0.42545357 -0.7737109 
0.13177009 -0.22735444 -0.96485573 
0.35819265 -0.032094575 -0.933096 
-0.4518543 0.30477038 -0.8384169 
0.11483957 -0.9499539 -0.29051605 
0.26795095 -0.80230635 -0.53339183 
0.21480021 -0.70166683 -0.67935604 
0.15957056 -0.56248295 -0.8112645 
0.31283185 -0.3803338 -0.8703347 
-0.030634018 -0.89916945 -0.43652704 
-0.7547103 -0.5692152 -0.32620016 
-0.13985497 -0.24481598 -0.9594299 
-0.19959998 -0.10728489 -0.9739866 
0.5592146 0.48405132 -0.67303294 
0.7189057 0.11628374 -0.6853122 
0.76653224 0.2729132 -0.581332 
0.46621013 0.19114712 -0.8637771 
0.47438297 0.05790996 -0.8784118 
0.42802206 -0.4359835 -0.7916538 
0.83146995 -0.49614462 -0.24999642 
0.13393322 -0.61292696 -0.77870566 
0.04400968 -0.70498395 -0.70785654 
-0.13274676 -0.4972763 -0.8573767 
0.27038786 -0.3667001 -0.8901806 
0.21851829 0.75279444 -0.6209271 
0.1271881 0.11808586 -0.9848243 
0.22019531 0.1514189 -0.9636319 
-0.36725336 0.041062612 -0.9292141 
0.20365307 0.20306325 -0.95775294 
0.2762763 0.57094127 -0.773109 
0.4659855 0.03846023 -0.88395613 
-0.22433273 -0.004383123 -0.97450286 
0.04896085 0.16130693 -0.9856891 
-0.18563427 0.07894185 -0.97944283 
0.1953815 -0.4205319 -0.88599044 
0.069608346 0.2664425 -0.9613341 
0.015336407 0.2528637 -0.96738034 
-0.26847646 -0.010676051 -0.9632271 
-0.48468873 -0.003368061 -0.8746802 
-0.6029523 -0.32673967 -0.72779787 
-0.7705955 -0.3414828 -0.5381192 
0.70084864 -0.06467248 -0.7103722 
0.5118141 -0.15869808 -0.8443111 
-0.42823255 0.07875609 -0.9002302 
-0.321008 -0.07537294 -0.9440725 
-0.6680762 -0.023848992 -0.74371064 
-0.2499147 -0.5349973 -0.8070444 
-0.4881607 -0.031153345 -0.87219757 
-0.40696263 -0.2424019 -0.8806945 
-0.6249385 0.09111203 -0.77533895 
-0.1301633 -0.3307539 -0.9346975 
0.31930798 -0.27043766 -0.90824336 
-0.57208884 -0.39499867 -0.7188118 
-0.45913243 -0.66664267 -0.58718395 
0.004052823 -0.6166749 -0.7872076 
0.12440264 -0.17849049 -0.97604567 
0.32239583 -0.28242 -0.9034932 
0.36672768 0.08030698 -0.92685586 
0.2682713 0.33731693 -0.9023568 
0.5558397 -0.16973437 -0.8137767 
0.96984947 0.23974442 0.043757543 
0.2612357 0.7044545 -0.6599241 
0.2199286 0.439772 -0.87076527 
0.09970769 0.6101136 -0.7860151 
0.23339812 0.17009155 -0.9573893 
-0.33178174 -0.5853315 -0.7398027 
0.44350663 -0.89404947 -0.06306673 
0.026651254 -0.6792012 -0.7334682 
-0.16212183 -0.30352315 -0.9389304 
-0.071433015 -0.8236121 -0.56263715 
0.30722433 0.1796609 -0.9345241 
-0.09747386 0.1372329 -0.9857312 
0.5357404 0.08977806 -0.83959645 
0.23600923 0.6204475 -0.7478935 
0.4789363 0.5753574 -0.66301125 
0.3928511 0.21481489 -0.8941602 
-0.3399172 -0.23409359 -0.9108548 
-0.26042965 -0.26828066 -0.9274707 
-0.22729935 -0.2919037 -0.92904645 
0.39336067 0.5660362 -0.7244795 
0.43434396 -0.48217592 -0.76082313 
0.50056803 0.011176233 -0.86562514 
0.15919846 0.20253874 -0.9662473 
-0.7990662 -0.048547268 -0.5992799 
-0.038095783 -0.48013154 -0.87636894 
-0.47964087 -0.73663634 -0.47677213 
-0.51830006 -0.66091144 -0.5427349 
0.23141386 -0.32897598 -0.915545 
0.5843393 -0.19250356 -0.78834635 
0.8238952 -0.05614475 -0.5639543 
0.40544197 -0.4831411 -0.77601 
0.13783948 0.20249091 -0.96953475 
0.060311068 0.1014312 -0.9930127 
-0.38070083 0.46870384 -0.7971095 