# OOMMF: rectangular mesh v1.0
# Segment count: 1
# Begin: Segment
# Begin: Header
# Desc: Time (s) :  8.710000000000023e-07
# Title: m
# meshtype: rectangular
# meshunit: m
# xbase: 2e-09
# ybase: 2e-09
# zbase: 5e-10
# xstepsize: 4e-09
# ystepsize: 4e-09
# zstepsize: 1e-09
# xmin: 0
# ymin: 0
# zmin: 0
# xmax: 1.024e-06
# ymax: 1.024e-06
# zmax: 1e-09
# xnodes: 256
# ynodes: 256
# znodes: 1
# ValueRangeMinMag: 1e-08
# ValueRangeMaxMag: 1
# valueunit: 
# valuemultiplier: 1
# End: Header
# Begin: Data Text
-0.5145458 0.16315128 -0.8417983 
-0.42566296 0.36861724 -0.8263972 
-0.6461593 -0.3501152 -0.6781575 
-0.03833353 -0.13712344 -0.989812 
0.10280923 -0.47796744 -0.8723402 
0.4712054 0.09169249 -0.8772446 
0.12293973 -0.16808195 -0.9780769 
-0.034784637 -0.89709425 -0.44046786 
-0.029663952 -0.4990001 -0.86609405 
-0.30822012 -0.45605192 -0.83487546 
-0.28301656 0.38322815 -0.8792257 
0.05726134 0.3460274 -0.9364754 
0.17994504 -0.43581596 -0.88186413 
-0.22465675 -0.606618 -0.7625904 
-0.2953441 -0.13312143 -0.9460711 
0.33089045 -0.18728475 -0.9248979 
-0.3709232 -0.04468394 -0.927588 
0.3467479 -0.10274613 -0.93231386 
-0.84406894 -0.3002866 -0.44426975 
-0.104461245 0.011200621 -0.9944659 
0.04179463 -0.20223188 -0.9784455 
0.06309619 -0.49746844 -0.86518437 
-0.38999775 -0.008754227 -0.9207742 
-0.21521327 -0.4157243 -0.8836609 
0.44386256 -0.89569676 -0.026706945 
0.75152624 -0.5063934 -0.422817 
-0.5057073 -0.20161632 -0.8388153 
-0.19758107 -0.5484213 -0.8125243 
-0.3072105 -0.5349838 -0.7870287 
-0.001950313 -0.37381947 -0.9274995 
-0.13265412 0.027534172 -0.99077994 
-0.2612983 -0.5459828 -0.79600626 
-0.66895115 -0.102010496 -0.7362732 
-0.16238168 0.038974103 -0.98595804 
-0.17358348 0.28783923 -0.941816 
-0.18126626 0.1200733 -0.9760763 
-0.3895406 0.26051512 -0.8833968 
0.26185194 -0.32937798 -0.9071625 
0.32604882 -0.707766 -0.62670535 
0.43510085 -0.19090655 -0.8799102 
-0.12647381 -0.82580346 -0.5495937 
-0.1173133 -0.98509973 0.1257622 
0.031376906 -0.9916573 -0.12502491 
-0.22933377 -0.77597845 -0.5875912 
0.05990275 -0.50495636 -0.8610638 
0.22606121 -0.34028852 -0.91274315 
0.42374521 -0.54188454 -0.7258107 
0.7306369 0.39292994 -0.55836886 
-0.28718337 -0.47406387 -0.8323397 
0.038101245 -0.7060007 -0.7071856 
0.21708088 -0.8656881 -0.4510656 
0.450449 -0.8717385 0.19278927 
0.3643563 -0.8760583 -0.31585824 
0.12254714 -0.9403269 -0.31743887 
-0.65086395 -0.7262706 -0.22114985 
0.12410633 -0.83870256 -0.53025997 
-0.06569192 -0.416996 -0.9065312 
-0.47510794 -0.8240381 -0.30859962 
0.041372813 -0.99830407 0.040954817 
-0.19062755 -0.95028865 -0.24619639 
-0.23011272 -0.855684 -0.46352243 
-0.50673705 -0.71176183 -0.48642865 
-0.6253507 -0.5993349 -0.4997342 
-0.2779026 -0.63137287 -0.7239741 
-0.18651731 -0.69233865 -0.6970499 
0.59280014 -0.14638206 -0.7919345 
0.44576508 -0.4451318 -0.77662814 
0.7813567 -0.42635378 -0.45574588 
0.09505114 -0.7120542 -0.69566095 
0.3381809 -0.5191149 -0.7849545 
0.15615416 -0.97841364 0.1353615 
-0.5343333 -0.82788885 -0.17055175 
0.74576026 -0.6639334 0.05508322 
0.37703976 -0.8675178 0.32442865 
0.4697087 -0.86786836 0.16179734 
-0.8160322 -0.54618376 0.18914248 
-0.58726436 -0.36729085 -0.72126144 
-0.27551442 0.64753515 -0.7104859 
-0.12821929 0.061109677 -0.9898613 
0.09679831 0.58092296 -0.80818236 
0.09587415 -0.07629581 -0.9924652 
-0.18048768 -0.63473165 -0.7513587 
-0.46782959 -0.12896442 -0.87435895 
-0.15736523 -0.507398 -0.8472211 
-0.73238057 0.6398205 -0.23291302 
-0.64584863 0.240138 -0.72471607 
-0.58605605 0.5672293 -0.5786098 
-0.22185189 0.6646114 -0.7134939 
-0.43644974 0.077288605 -0.8964029 
0.017962703 0.0196729 -0.9996452 
-0.20774159 -0.38616285 -0.8987334 
0.1941661 -0.1188999 -0.9737363 
-0.48278335 0.50688535 -0.71413416 
-0.06630091 -0.4655121 -0.8825547 
-0.21728435 -0.47881302 -0.8506031 
0.11453946 -0.8358161 -0.53692853 
0.47909936 -0.04490442 -0.8766113 
-0.18056822 -0.0329808 -0.98300946 
-0.38846582 0.21332903 -0.8964291 
-0.10748058 -0.3867509 -0.9158994 
-0.63061565 -0.30934954 0.71177727 
0.5395919 -0.72491544 0.42818016 
0.6716275 -0.4957084 0.55062664 
0.43427804 -0.6556528 -0.61767477 
0.04223253 -0.7019822 -0.71094126 
-0.9065145 -0.048333805 -0.41939887 
-0.7859363 -0.20508242 -0.58330554 
-0.2916168 -0.52852285 -0.79725987 
0.06327096 -0.56494385 -0.8227001 
-0.543642 -0.121581405 -0.83046454 
-0.4005801 -0.67832404 -0.6159645 
-0.6282491 -0.71074754 -0.31645066 
0.31233847 -0.8860085 -0.34268597 
0.025097428 -0.9996727 -0.004965306 
-0.23752883 -0.92900556 -0.28377575 
-0.3454055 -0.5032021 -0.79213816 
-0.5529509 -0.66952425 -0.49596637 
0.13773604 -0.97597605 -0.16881803 
-0.09614123 -0.97597456 -0.19552661 
-0.9863823 0.1093715 -0.12283297 
0.19991902 -0.9725247 0.11928158 
-0.4233084 -0.6577866 -0.62299836 
0.4728744 -0.44267654 -0.7618579 
-0.24049896 -0.33977398 -0.9092381 
-0.09190285 0.3531936 -0.9310253 
-0.98779196 0.076372676 -0.13577285 
-0.9411691 0.17868878 -0.2868295 
-0.6055203 0.46094182 -0.64875096 
0.10088851 -0.13689055 -0.9854352 
-0.021238295 0.08158336 -0.9964403 
0.05286245 -0.119974665 -0.99136865 
0.14785807 -0.47422656 -0.86789817 
0.7859805 -0.23152576 -0.57326293 
0.3253113 0.06935615 -0.94306016 
0.20000105 -0.44118378 -0.8748466 
0.58774394 -0.42309365 -0.6896006 
-0.03777389 -0.99288684 0.112911165 
-0.37596992 -0.47644702 -0.794761 
0.31271756 -0.51700574 -0.79681414 
0.10661784 -0.40976053 -0.90594095 
-0.2874682 -0.5482406 -0.7853625 
0.27056637 -0.8606272 -0.43141013 
0.12717548 -0.9496543 -0.28632736 
0.043406315 -0.2034909 -0.9781142 
0.3847668 -0.21470742 -0.89769447 
0.38818097 -0.43796667 -0.8108642 
0.066253 -0.5853978 -0.80803466 
0.22719705 -0.8812157 -0.41453642 
0.4218097 -0.17521706 -0.8895929 
0.87178534 -0.033679184 -0.48872918 
0.9908366 -0.12088934 -0.060238246 
0.84811634 0.006359908 -0.52977186 
-0.24957131 -0.43356574 -0.8658723 
0.059024516 -0.44680968 -0.89267975 
-0.091099426 -0.044076167 -0.99486595 
-0.2765765 -0.8991918 -0.339057 
-0.050842866 -0.8441763 -0.53364927 
-0.0046161423 0.39194986 -0.919975 
-0.19686072 -0.3062658 -0.93136847 
0.06038227 -0.39043337 -0.91864884 
-0.34317252 -0.10118688 -0.9338061 
-0.31216446 -0.5781862 -0.7538263 
-0.24413593 -0.34921736 -0.9046795 
-0.0645193 -0.7667829 -0.638656 
-0.04721354 -0.99611354 0.07435668 
-0.033264786 -0.88851863 -0.4576333 
-0.17984928 -0.98346406 0.021274952 
-0.38691333 -0.91484606 -0.115562625 
-0.5377458 -0.40687126 -0.73843443 
-0.3777596 -0.15224518 -0.91330117 
0.01646413 -0.6940931 -0.71969694 
0.24991003 -0.29909396 -0.92091686 
0.082749076 -0.7302985 -0.6780979 
0.09068503 -0.24135002 -0.9661917 
-0.3257321 -0.6344043 -0.7010206 
-0.32490072 -0.73262835 -0.5980763 
-0.18873206 0.04163391 -0.98114574 
-0.1123889 -0.48315382 -0.86829215 
0.020815253 -0.071926855 -0.99719274 
0.15030645 -0.72268033 -0.67464155 
-0.20604855 -0.73818666 -0.64235854 
-0.6282289 -0.34635702 -0.6966817 
-0.6438723 -0.06828141 -0.7620801 
-0.8726423 -0.4883097 0.0070100413 
-0.67651325 -0.73585695 -0.029059652 
-0.2129486 -0.6186249 -0.7562778 
0.8147901 -0.5172523 -0.26185334 
0.7026994 -0.14361739 -0.69684124 
0.09941809 0.31543428 -0.9437252 
-0.09236625 -0.3252046 -0.9411219 
-0.5894007 -0.4586974 -0.66498387 
-0.0107719535 -0.61383706 -0.7893593 
-0.27687737 -0.44066933 -0.8539025 
-0.39465153 -0.07321051 -0.9159096 
-0.22896115 0.3303719 -0.91565895 
-0.75323397 -0.14305721 -0.6420072 
-0.6571088 -0.5727147 -0.49010813 
-0.226116 -0.39422518 -0.89076275 
-0.01288363 -0.016165253 -0.9997864 
0.14729318 -0.12694003 -0.98091334 
0.6018614 -0.64048785 -0.47700977 
-0.018005826 -0.82021827 -0.57176745 
0.22424531 -0.89110404 -0.3945223 
-0.5968452 -0.7153602 -0.36336696 
-0.64725727 0.20719057 -0.73357356 
-0.8577498 -0.39777535 -0.325638 
-0.45599568 -0.25327662 -0.8531816 
-0.30805624 -0.8070331 -0.50378466 
-0.2029981 -0.40872976 -0.88979316 
0.04662642 -0.8438446 -0.5345582 
0.54818034 0.06542913 -0.8337969 
0.8346614 -0.059704084 -0.547518 
0.6699499 -0.62445676 -0.40152323 
0.17962928 0.2541798 -0.9503294 
-0.27802855 0.13203867 -0.9514547 
-0.35707703 -0.5448761 -0.7586871 
-0.326259 -0.35413817 -0.87643677 
-0.16141465 0.026893836 -0.9865202 
-0.19872631 -0.2477146 -0.9482328 
-0.19693524 -0.25578266 -0.94646287 
-0.24397703 0.55709636 -0.7938003 
0.13262786 0.04771679 -0.9900167 
-0.3289581 -0.4456765 -0.8325618 
0.08632133 0.5080931 -0.8569656 
0.09379231 -0.65390235 -0.75074273 
0.75263715 -0.24090123 -0.6127838 
0.9742323 -0.19389181 -0.11522796 
0.9209643 -0.19470301 0.3375138 
0.93989664 -0.27742475 -0.19907275 
0.70128036 -0.6738151 0.23276433 
0.3244173 -0.91883814 -0.2247 
0.11714593 -0.47203794 -0.87376034 
0.8290466 0.3042885 -0.46913776 
0.57416344 -0.79248273 0.20568839 
-0.003479702 -0.67301434 -0.73962134 
-0.63632935 -0.73502463 -0.2341447 
-0.3605154 -0.29488868 -0.884912 
0.41703668 -0.7866394 -0.4552789 
0.37319347 -0.75494397 -0.53924614 
-0.92607373 -0.31053305 -0.214375 
-0.54225814 -0.2569674 -0.79995257 
-0.02600438 -0.6161166 -0.78722566 
-0.53153425 -0.6228421 -0.5740551 
-0.09326172 -0.69368094 -0.71421915 
0.27874932 -0.2507588 -0.9270485 
-0.25862095 -0.6168101 -0.7434114 
0.32515252 -0.85423154 -0.40566543 
0.7027163 -0.6717351 -0.23443931 
0.64783263 -0.7479324 -0.14460303 
0.23179898 -0.9594991 -0.1600958 
0.024587795 -0.63620484 -0.77112836 
0.06044549 -0.21236534 -0.9753191 
0.8742567 -0.25452352 -0.41339234 
0.59121644 0.6034124 -0.535123 
0.76608175 0.077382654 -0.6380679 
-0.41371948 -0.6591739 -0.6279539 
-0.11432936 0.39093855 -0.9132885 
0.76526743 0.21411914 -0.6070576 
0.72659063 -0.61027914 0.31563514 
0.041069925 -0.00044612752 -0.9991562 
-0.10817078 -0.1974152 -0.9743338 
0.15856013 -0.34969386 -0.9233487 
0.27509624 0.116105735 -0.9543802 
-0.046106834 -0.24327351 -0.9688613 
0.24407437 -0.44105864 -0.86365217 
-0.6392077 -0.32477665 -0.69708943 
-0.8872167 -0.37616265 -0.26711094 
-0.34863833 0.126831 -0.92863625 
-0.46672684 0.16007218 -0.8697949 
0.13306162 -0.06294451 -0.98910695 
0.43660682 0.20664598 -0.87559813 
-0.17715329 -0.1963893 -0.96439004 
-0.6858684 -0.04570952 -0.7262887 
-0.03504801 0.3271817 -0.94431126 
-0.20182002 -0.28137663 -0.93813425 
0.25249934 -0.6211933 -0.74186456 
0.09836859 -0.08421646 -0.9915802 
-0.2590647 -0.35737327 -0.89731264 
-0.4097807 -0.29637367 -0.862695 
-0.17745306 -0.2303167 -0.9567992 
-0.13181527 0.041085847 -0.99042255 
0.07685962 0.39053407 -0.9173744 
-0.17853653 -0.21585883 -0.95996344 
0.122889556 0.10887979 -0.9864297 
0.07408873 -0.66231203 -0.74555594 
-0.5210107 -0.4739796 -0.70985305 
-0.06771116 0.012387281 -0.99762815 
-0.2049554 0.65183353 -0.7301414 
-0.2757957 -0.026496178 -0.960851 
0.06988882 -0.11569827 -0.9908227 
0.56325024 -0.0090021845 -0.8262373 
-0.7086286 0.100761324 -0.69835 
-0.009978295 0.32886624 -0.9443238 
0.26215076 -0.0041789887 -0.965018 
0.78803766 -0.31046346 -0.5316101 
0.1732438 -0.4030215 -0.8986437 
0.52221584 0.110060245 -0.8456817 
-0.096714474 -0.035468426 -0.99468005 
-0.022282489 -0.34170142 -0.93954444 
-0.39831805 -0.12905656 -0.90812296 
0.23948297 -0.28443304 -0.92830265 
0.55752176 0.15622558 -0.81532997 
-0.119382806 -0.6058752 -0.78655136 
0.034890484 -0.7026094 -0.7107198 
0.25972506 -0.6975536 -0.6678039 
-0.40692106 -0.33711678 -0.84898037 
0.123126335 -0.6313917 -0.7656269 
0.05297143 -0.8607305 -0.50629735 
-0.260058 -0.9126294 -0.31540054 
0.10844239 -0.8217615 -0.5594178 
-0.4722954 -0.29609522 -0.83021975 
-0.31273404 -0.4638436 -0.8288828 
-0.72001946 -0.19448324 -0.6661443 
-0.2007168 -0.73741686 -0.6449258 
0.17558934 -0.86483085 -0.47035742 
-0.012050951 -0.6835922 -0.7297647 
-0.6917498 -0.3782473 -0.61515135 
-0.3757915 -0.6941055 -0.614002 
0.010151672 -0.22067624 -0.97529435 
0.064237595 -0.29846993 -0.95225483 
0.31279716 -0.74985546 -0.5829878 
0.059759177 -0.08639758 -0.9944669 
0.1683663 -0.1556789 -0.9733535 
0.6565122 -0.09830477 -0.7478824 
0.3543818 -0.44822547 -0.82067496 
-0.070669495 -0.89805794 -0.43416345 
0.732503 -0.5917848 0.33649713 
0.3855911 -0.8190918 -0.42474487 
-0.063815966 -0.99727184 -0.037099104 
-0.07994227 -0.71243 -0.6971749 
-0.38987657 -0.8039718 -0.44902748 
-0.46149054 -0.32117224 -0.8269673 
0.039648037 0.054126587 -0.9977467 
0.5012558 0.639612 -0.5827858 
0.06866757 0.31627423 -0.9461794 
-0.589169 0.29066992 -0.753917 
-0.0788339 -0.36539343 -0.927509 
0.025531448 -0.861114 -0.50777054 
0.089245744 -0.56892973 -0.81752944 
-0.2010481 -0.026251867 -0.9792296 
-0.32583073 0.5396254 -0.7762982 
-0.28245687 0.5050644 -0.81555384 
-0.21279036 0.6751933 -0.706282 
0.14561872 0.362354 -0.9205948 
0.106198765 0.08013794 -0.9911103 
0.4695429 -0.31382236 -0.8252546 
0.6058693 -0.024661869 -0.79518193 
0.384831 0.0010679564 -0.92298645 
-0.208182 0.39979032 -0.8926522 
0.12356127 0.38992888 -0.9125174 
-0.37567616 0.06850062 -0.92421603 
-0.44858244 -0.46839038 -0.76117295 
-0.27022254 -0.1395371 -0.95263284 
0.3384646 -0.37533218 -0.86288327 
-0.23654744 -0.49342614 -0.83700424 
0.29426706 0.058911867 -0.9539058 
0.12757955 -0.99096143 0.041461106 
0.59715044 -0.8016934 -0.026440002 
0.54098755 -0.8345856 -0.10392032 
-0.5910756 -0.44226262 -0.6745617 
0.08022851 -0.16460826 -0.9830909 
0.34039235 0.63641554 -0.69217664 
-0.7788608 0.13522792 -0.61244535 
-0.07856151 -0.45053113 -0.88929737 
-0.35152435 -0.5391186 -0.76536393 
-0.48025167 -0.7129054 -0.51100314 
0.032788802 -0.14119577 -0.9894386 
-0.21604861 -0.92077744 -0.32479545 
0.0036888625 -0.8026154 -0.59648556 
-0.91586614 -0.17182495 -0.36285758 
0.15142363 -0.6856819 -0.7119771 
-0.35090005 0.116834484 -0.92909575 
-0.20855908 -0.9365578 -0.28171343 
-0.077036455 -0.30333048 -0.94976634 
0.30480754 -0.8272738 -0.47192216 
-0.16539744 -0.6915771 0.7031109 
-0.50265235 -0.827224 -0.25107968 
0.33453342 -0.4501233 -0.82793504 
-0.061669637 0.22607541 -0.9721558 
-0.4904674 -0.06844133 -0.86876786 
-0.5121862 -0.30028373 -0.8046708 
-0.9164742 -0.23359077 -0.32482365 
-0.80408627 -0.2609062 -0.5342034 
-0.77579993 -0.37509724 -0.5073822 
-0.18427157 0.4675131 -0.8645667 
-0.4167999 0.27034044 -0.8678675 
-0.20370476 0.23817182 -0.94962025 
0.43456706 0.4114015 -0.80118686 
0.14924344 -0.5563697 -0.8174223 
0.28298557 -0.07161036 -0.9564471 
0.14907515 -0.2667107 -0.9521775 
0.3013248 -0.01326198 -0.9534294 
0.41073033 -0.65265185 -0.63666815 
0.09631569 -0.6487986 -0.7548402 
-0.0422189 -0.28015125 -0.95902705 
-0.29809052 -0.4037606 -0.86493903 
-0.5067943 -0.042526748 -0.86101747 
-0.3085356 -0.37565556 -0.8738929 
-0.4311543 -0.32385683 -0.84215367 
-0.13645163 -0.09837677 -0.98574996 
0.84614694 0.3405936 -0.4099163 
0.74688566 -0.013020627 -0.664825 
0.104120195 0.0010134435 -0.99456424 
0.19690435 -0.4237763 -0.88410544 
-0.40082788 -0.73048276 -0.5529304 
0.5190108 -0.60030556 -0.6084909 
0.534817 0.35371482 -0.76737005 
0.14901005 -0.30573115 -0.94038534 
0.47360587 -0.46385577 -0.7486891 
0.4785525 -0.072965264 -0.8750221 
0.06769657 -0.2925553 -0.95384943 
0.018816262 -0.7689385 -0.63904595 
0.029772721 -0.84000546 -0.5417605 
0.35581845 0.24126607 -0.90287536 
0.36724606 -0.2295947 -0.9013417 
-0.22582705 -0.47847632 -0.8485651 
-0.295664 0.1936251 -0.93546367 
-0.10010433 -0.61978334 -0.7783623 
0.23574094 -0.029940557 -0.97135466 
-0.109993346 -0.49007007 -0.86471546 
-0.1437884 -0.35291407 -0.9245413 
-0.11101712 -0.71927387 -0.6857991 
-0.5362379 -0.79417014 -0.28590694 
0.115991466 -0.92786944 -0.354407 
-0.1841906 -0.77808464 -0.6005483 
-0.1803563 -0.6784344 -0.71217865 
-0.11810216 -0.9637058 -0.23942229 
-0.385362 -0.37175983 -0.8445656 
0.26319072 -0.5471884 -0.79455376 
0.13519077 -0.4630428 -0.87596506 
0.6568673 -0.023459552 -0.75364125 
0.6655657 -0.27159908 -0.69516635 
0.06372723 0.1533841 -0.9861096 
0.0070499275 -0.755004 -0.6556824 
-0.10823843 -0.89850503 -0.4254094 
-0.05303591 -0.44722673 -0.8928468 
0.100003414 -0.5484309 -0.83019453 
-0.16194606 0.3556027 -0.9205 
-0.431955 -0.28961378 -0.85413045 
-0.7486271 -0.23831034 -0.61868066 
0.014630085 -0.33112833 -0.9434724 
0.5143552 -0.010475077 -0.8575133 
0.4910797 -0.29565915 -0.8194063 
0.24736793 -0.051015835 -0.96757764 
0.18518607 -0.36177444 -0.9136878 
0.056526866 0.023390753 -0.99812704 
-0.47615466 -0.86843455 -0.13819708 
-0.06362534 -0.29028243 -0.9548235 
-0.19067228 0.24003011 -0.95185596 
-0.07842523 0.32308376 -0.9431153 
0.10529233 0.29346746 -0.9501529 
-0.39894095 -0.54654044 -0.73630136 
-0.397079 -0.28590316 -0.8721168 
0.19947557 -0.040810194 -0.9790526 
0.33419076 0.12646402 -0.9339826 
-0.10176309 0.081370614 -0.9914753 
0.27810952 -0.20952988 -0.937418 
-0.42391485 -0.22070009 -0.8784006 
-0.049264316 -0.21722862 -0.9748769 
-0.15035874 -0.4378306 -0.8863953 
-0.19952764 -0.6102762 -0.7666498 
-0.78233486 -0.09077411 -0.6162079 
-0.6194295 0.013353194 -0.78493875 
-0.5907091 -0.3393447 -0.7320574 
-0.39782372 -0.095378056 -0.9124908 
-0.30934557 -0.39608687 -0.864535 
-0.2196967 -0.10173276 -0.9702494 
0.4498474 -0.22823265 -0.8634508 
-0.010924043 -0.61588204 -0.78776264 
-0.33995292 0.48566496 -0.8053333 
-0.24637078 -0.14452538 -0.9583392 
-0.12639861 -0.49940792 -0.857097 
-0.0024885838 -0.74577683 -0.6661912 
0.5633804 -0.053628072 -0.8244554 
0.45548567 0.40825143 -0.79111534 
-0.10296203 0.014835242 -0.9945747 
-0.25982207 -0.20201443 -0.94428957 
-0.2833114 0.19469634 -0.939057 
-0.085478455 -0.2292308 -0.96961164 
0.5010211 0.22210723 -0.8364486 
-0.5817145 -0.09419393 -0.80792063 
0.57028013 -0.31100973 -0.7602983 
0.9375531 0.012027647 -0.34763414 
0.4200355 -0.5783976 -0.6993043 
0.4213283 -0.4065463 -0.8106804 
0.48780444 -0.2589975 -0.8336469 
-0.06748826 0.028514734 -0.99731255 
0.29367685 -0.0827103 -0.9523198 
0.42025232 -0.32702786 -0.8464283 
0.4633275 -0.77639705 -0.4272414 
0.5201137 -0.5159717 -0.6806285 
-0.6806369 -0.5866118 -0.43888497 
-0.43048596 0.5755256 -0.6953073 
-0.7689942 0.12188234 -0.62752897 
0.120887056 -0.17521432 -0.97708046 
-0.5192193 -0.32329354 -0.79113376 
-0.06855447 -0.17576174 -0.9820428 
0.16629046 -0.49857706 -0.8507459 
0.45543233 -0.31415284 -0.8330003 
-0.13335094 -0.34772393 -0.9280655 
0.10362954 -0.27714103 -0.9552245 
0.34467703 -0.5425382 -0.7660615 
0.2983008 -0.354684 -0.8861241 
0.91789496 -0.24120262 -0.31510365 
0.5875445 -0.3343085 -0.7369053 
-0.10966399 -0.4041875 -0.9080783 
-0.16914377 -0.2530864 -0.9525427 
-0.21137464 0.1617573 -0.9639271 
0.06329059 -0.04892346 -0.99679524 
-0.5040872 -0.060345776 -0.86154187 
0.4281038 -0.48940322 -0.7597444 
-0.24628516 -0.77738124 -0.57881093 
-0.31781268 0.50378627 -0.80324 
0.06314421 0.30796245 -0.94930077 
0.22507745 -0.20721622 -0.9520513 
-0.27963838 -0.63609326 -0.71915776 
-0.40238646 -0.17374396 -0.89883167 
-0.09516453 -0.29151556 -0.9518206 
-0.186573 0.26337352 -0.9464803 
0.010540928 -0.052097153 -0.9985864 
0.15598199 -0.3401212 -0.927355 
-0.24188621 -0.4394623 -0.8650804 
-0.3856616 -0.5835184 -0.7146828 
-0.47602555 0.18685524 -0.85935134 
-0.008385051 -0.58912355 -0.80799955 
-0.394776 -0.033003353 -0.9181845 
0.95003325 0.013382296 -0.31186187 
0.8007189 0.23674873 -0.550272 
0.037978273 0.15785797 -0.9867313 
-0.18311194 0.04893334 -0.9818735 
-0.79584575 -0.32921186 -0.50818205 
-0.16331512 -0.3708872 -0.914205 
0.19344234 0.13404724 -0.97191125 
-0.43442354 0.082617454 -0.89691174 
-0.4390309 -0.3591882 -0.82355076 
-0.20803325 -0.1814494 -0.96114427 
-0.86938643 0.36869875 -0.32898086 
-0.11889367 -0.1230773 -0.9852494 
-0.43952498 0.15400395 -0.8849298 
0.104715265 0.12966478 -0.98601305 
0.42114776 -0.014712814 -0.9068727 
-0.21321665 0.2029584 -0.9556917 
-0.8396919 0.33501846 -0.42741132 
-0.18075837 0.6722193 -0.7179468 
-0.05963031 0.12155281 -0.9907922 
-0.18649837 -0.03759865 -0.9817356 
0.38011295 -0.19906038 -0.9032659 
-0.23201421 -0.6480976 -0.7253544 
0.55218244 0.5622604 -0.6155956 
0.49817917 0.11003768 -0.86006355 
0.26193926 -0.06604916 -0.9628216 
0.024915958 -0.17686912 -0.98391896 
-0.30240887 0.24110313 -0.9221812 
-0.48996553 0.29728603 -0.81948453 
0.016577937 -0.33109817 -0.94345075 
0.15813169 -0.5548823 -0.81676203 
-0.00020525888 -0.09626848 -0.9953554 
0.38511032 -0.24910317 -0.88861555 
0.96315575 0.0043321634 -0.2689095 
0.5832467 -0.37249443 -0.7218526 
-0.04032014 -0.4749802 -0.87907225 
-0.7405826 0.013137901 -0.6718369 
-0.5673822 -0.14984083 -0.8097068 
-0.013203955 -0.9083691 -0.41796085 
-0.05947622 -0.6799268 -0.730864 
-0.1440015 -0.43382812 -0.88941365 
0.110846706 -0.6262511 -0.77170104 
-0.36090448 -0.14970191 -0.9205093 
-0.3214339 -0.09129692 -0.9425207 
0.081279546 -0.3693598 -0.9257252 
0.5145742 -0.23955086 -0.8233036 
0.008252787 -0.56447846 -0.8254066 
-0.32829 -0.6225662 -0.71037817 
-0.23691115 -0.36418685 -0.9006892 
0.16595122 0.15704875 -0.9735482 
-0.31412756 -0.68614376 -0.6561484 
0.08396221 -0.035894357 -0.9958223 
0.3877339 -0.63225293 -0.67075986 
0.17026904 -0.3820939 -0.9083021 
-0.5006893 -0.4618211 -0.73214173 
0.37093526 -0.16223969 -0.91437703 
0.111263126 -0.56970686 -0.81428176 
0.44146913 -0.4551099 -0.77329177 
-0.033688497 -0.64192 -0.76603127 
0.17786759 -0.68662083 -0.704922 
-0.29787737 -0.7924612 -0.5322353 
-0.46597075 -0.14596261 -0.87267756 
-0.30102223 0.27578402 -0.91286844 
-0.38506112 -0.0643279 -0.9206464 
0.46855605 0.16040994 -0.86874855 
0.3937932 -0.3524989 -0.84892374 
0.014073605 0.54117537 -0.84079206 
0.19297417 -0.32883847 -0.92445993 
0.037588265 -0.5498598 -0.83441085 
0.30472106 -0.46397516 -0.83178854 
-0.09473021 0.72110224 -0.6863219 
-0.12627721 0.56602913 -0.8146565 
0.19908091 0.24315353 -0.94933826 
0.69782466 -0.3979095 -0.5955744 
0.10618528 0.60112906 -0.7920661 
0.3482983 -0.5928475 -0.72609925 
0.36476585 -0.22115421 -0.9044538 
0.26134738 -0.21754448 -0.94041055 
0.1970665 -0.23829117 -0.95099014 
-0.032102775 0.18105587 -0.9829488 
0.002416173 0.5331141 -0.84604 
-0.16705498 -0.19929978 -0.96559423 
-0.56939924 0.076416336 -0.81850183 
-0.14322834 -0.19321522 -0.97064596 
-0.023068614 -0.6820627 -0.7309298 
-0.024360854 -0.31666186 -0.9482257 
0.008831261 0.24332307 -0.9699052 
0.42244834 -0.90588397 -0.030193258 
0.61733454 -0.71816194 -0.32115644 
0.0054261964 -0.54100883 -0.8409995 
0.38681704 -0.7160821 -0.5810327 
0.25097626 -0.5556976 -0.79259783 
-0.49318427 -0.09979066 -0.8641823 
-0.06260994 -0.34771743 -0.9355066 
0.008266668 -0.29349133 -0.95592606 
0.4544207 -0.66257226 -0.59539896 
0.1497217 -0.17478007 -0.9731574 
0.2974777 -0.056673985 -0.9530452 
-0.10482084 -0.24899426 -0.96281594 
-0.42486137 -0.6198527 -0.65975416 
0.10900434 -0.31941482 -0.9413247 
-0.17693402 -0.90729594 -0.38145566 
-0.7950932 -0.35650173 -0.49064597 
-0.16487303 0.03778262 -0.98559093 
-0.08145421 -0.39511847 -0.91501176 
0.16694547 -0.9859244 -0.009080165 
0.23595302 -0.89533496 -0.37775865 
-0.75286806 -0.6403504 0.1521222 
-0.4744218 -0.26276565 -0.8401657 
-0.039720397 -0.29201466 -0.9555887 
0.12669283 0.104516484 -0.9864204 
0.14729118 -0.088065565 -0.9851649 
-0.4045865 0.39715627 -0.8237577 
-0.26312354 -0.73886573 -0.6203576 
-0.018321062 -0.38227066 -0.92386883 
-0.51254064 -0.779372 -0.36039063 
-0.254548 0.5843136 -0.7705731 
-0.095885664 0.15323687 -0.9835266 
0.12508444 0.087742686 -0.9882586 
0.065840214 -0.114851326 -0.9911985 
-0.010758852 0.36470848 -0.9310596 
-0.47494817 -0.124896206 -0.8711058 
-0.20721045 -0.20117456 -0.9573885 
0.27363083 -0.3393791 -0.8999711 
0.17746447 0.13405807 -0.9749538 
0.059841633 0.30918586 -0.949117 
0.12189665 0.17527764 -0.97694373 
0.13328098 -0.19029573 -0.97263753 
0.74872243 0.09191281 -0.6564806 
-0.4828959 0.22524348 -0.84621334 
-0.37168908 0.5264278 -0.7646706 
0.7550087 0.42031008 -0.5032907 
0.49620485 -0.2010945 -0.8445957 
-0.32506117 -0.8083387 -0.49084 
0.12387333 -0.47234046 -0.87266827 
0.33600163 -0.052639354 -0.94038934 
0.20432417 -0.36897016 -0.9067043 
0.283279 -0.16959505 -0.943923 
0.23646732 -0.055881437 -0.97003114 
0.4598719 -0.33903387 -0.8207155 
0.109763704 -0.043118216 -0.993022 
0.080938525 -0.32006893 -0.9439305 
0.17070635 -0.18914883 -0.9669965 
0.6585959 0.14835812 -0.7377271 
-0.01782202 0.3292384 -0.9440786 
-0.1769408 0.18495002 -0.96668786 
-0.066066116 0.42840233 -0.90116966 
0.35001644 0.11030687 -0.93022627 
0.17311686 -0.051694904 -0.98354375 
0.1271849 -0.5145401 -0.84798145 
0.57061297 -0.2363838 -0.7864628 
0.045929052 -0.868441 -0.49366054 
-0.59649205 -0.78764415 -0.15431783 
0.12730065 -0.8110668 -0.5709337 
-0.03658871 -0.776606 -0.6289232 
0.26303297 -0.94690496 0.18489136 
-0.3486532 -0.22798373 -0.9091009 
-0.3649906 -0.28617904 -0.8859365 
-0.5932202 0.0048233573 -0.8050258 
-0.48380548 -0.018260175 -0.8749851 
0.06082316 -0.492575 -0.868142 
0.2165939 0.07991555 -0.9729854 
-0.16601399 0.019132521 -0.98593783 
-0.265807 0.3080915 -0.9134694 
-0.2639148 -0.039985463 -0.9637169 
-0.25669134 -0.30392194 -0.91746444 
-0.1938639 0.16653581 -0.96678996 
0.44790956 -0.72354645 -0.5252216 
0.021244295 0.12240524 -0.9922529 
-0.08685393 -0.6445991 -0.75957125 
0.16329597 -0.25002518 -0.95436996 
0.4952673 -0.097853966 -0.86321205 
0.32348028 -0.21212016 -0.92215276 
0.10108339 0.006527896 -0.99485654 
-0.24391757 -0.3092846 -0.9191558 
-0.04135285 0.21050906 -0.9767169 
0.15885599 -0.2792738 -0.94697994 
0.22275855 -0.8468424 -0.48294583 
-0.22050376 0.06609865 -0.973144 
-0.39458516 0.46471006 -0.79268354 
-0.49060583 -0.11501973 -0.86375713 
-0.38942236 -0.17142734 -0.9049657 
-0.58053565 -0.09667569 -0.8084752 
-0.6157816 -0.33853832 -0.7114808 
0.31768677 0.13465248 -0.9385861 
0.019884054 0.5900586 -0.80711555 
0.45542437 0.631466 -0.6275663 
0.34511882 0.53457 -0.7714454 
0.20528208 -0.060228776 -0.9768479 
-0.2763781 -0.3800101 -0.8827273 
-0.20456693 -0.4853572 -0.8500475 
-0.3080328 0.0031413264 -0.95137054 
-0.49119952 -0.4541862 -0.7432617 
-0.9861762 0.102325104 -0.13033065 
-0.6225526 -0.6825955 -0.38274252 
0.15778157 -0.19633164 -0.9677598 
0.38789967 -0.2896717 -0.87499964 
0.26291713 -0.5284908 -0.80720025 
0.2265625 -0.50867414 -0.83061427 
-0.4974707 -0.82032734 -0.28210974 
-0.5997629 0.31089884 -0.73731023 
-0.37732443 -0.28551114 -0.8809709 
-0.008786796 0.24477209 -0.9695409 
0.1291587 -0.23207988 -0.9640835 
-0.27415594 -0.260002 -0.9258712 
0.049536638 -0.30421796 -0.9513136 
0.39666238 -0.090985 -0.91344446 
0.20072459 0.1587112 -0.96670604 
-0.061022718 -0.06197202 -0.9962107 
-0.037423953 -0.34710142 -0.9370807 
-0.2451123 -0.11012426 -0.96321994 
-0.29500487 -0.020971917 -0.95526564 
0.32537282 -0.5933512 -0.73625195 
0.7365707 0.2695776 -0.6203157 
0.23390666 -0.015783727 -0.972131 
0.8552008 0.13704175 -0.4998512 
0.22347859 0.31781408 -0.92143995 
0.326162 -0.21426098 -0.920712 
-0.18192986 0.16860725 -0.9687482 
0.076085046 0.30632654 -0.948881 
-0.021815106 -0.39467913 -0.9185601 
-0.5658923 -0.36204988 -0.7407333 
-0.3758591 -0.33188924 -0.8652048 
-0.2969097 0.21466343 -0.93046457 
-0.5724767 0.44863385 -0.6862931 
-0.39532146 -0.2216377 -0.8914021 
-0.09615585 -0.062085424 -0.9934282 
0.18715964 -0.2809648 -0.9412917 
0.22504681 -0.30809483 -0.9243547 
0.7670164 -0.21651001 -0.60399437 
-0.24161641 -0.48564953 -0.8400989 
-0.104086995 0.46951088 -0.87676996 
0.3103887 -0.5403253 -0.7821173 
0.38319305 -0.4962759 -0.77902085 
0.7994444 -0.19675508 -0.56760573 
0.38651615 -0.52267575 -0.75987846 
-0.84226805 -0.10580333 -0.5285739 
0.13796215 0.33059782 -0.9336335 
-0.13495384 -0.061582603 -0.98893636 
-0.044754423 -0.2863992 -0.95706457 
-0.07226295 0.088716716 -0.9934322 
-0.113194354 -0.32835937 -0.93774587 
-0.047402248 -0.63322055 -0.77251846 
-0.1749644 0.66556513 -0.7255416 
0.14320722 0.53163135 -0.83478135 
0.3791935 0.2582624 -0.88854545 
-0.27262354 -0.31361952 -0.909571 
0.45895234 -0.87472063 -0.15564857 
0.57123935 -0.14664134 -0.8075779 
0.23931585 -0.53797936 -0.8082735 
0.4006663 -0.7333354 -0.5492593 
0.119214706 -0.9899699 0.07581224 
-0.45174715 0.1989469 -0.86968076 
-0.8402551 -0.3450605 -0.41821605 
0.22587273 -0.14013505 -0.9640247 
-0.3185079 -0.4670574 -0.82486975 
-0.18966696 0.4133652 -0.8905929 
0.9540639 -0.052603826 -0.2949491 
0.7671226 0.15898517 -0.62148744 
0.7880414 0.27576444 -0.55040413 
0.112641 -0.3157018 -0.9421488 
-0.42298508 -0.7465688 -0.51353556 
-0.49701297 -0.25622413 -0.8290521 
-0.017412642 -0.04795578 -0.9986977 
0.36731085 -0.24959871 -0.8959817 
-0.43735498 -0.37766638 -0.81614274 
-0.50453 -0.24201262 -0.82878184 
-0.47251993 0.79517245 -0.38003385 
-0.5317803 -0.31681257 -0.7853914 
-0.29813272 -0.23046856 -0.9262836 
0.10330203 -0.34750545 -0.9319704 
-0.045238048 0.454677 -0.8895068 
-0.2810879 0.26245713 -0.9230958 
-0.15297496 0.7013152 -0.69624394 
0.22148614 0.2225673 -0.949425 
0.38639107 -0.10840467 -0.91594243 
-0.32219946 0.20197695 -0.9248746 
-0.13560472 0.052465204 -0.98937297 
0.03986728 -0.1248838 -0.9913701 
0.6459684 -0.4669379 -0.6038989 
0.506724 -0.7826666 -0.36147472 
0.41129386 -0.28717557 -0.86508244 
-0.4298124 -0.66551447 -0.61020637 
-0.5971931 -0.27136508 -0.7547989 
-0.46756732 0.36904815 -0.80323374 
-0.37576374 -0.501412 -0.7793508 
-0.13651152 -0.77251965 -0.6201436 
0.31042048 -0.36975634 -0.8757394 
-0.012853807 -0.09347369 -0.9955388 
0.2518918 -0.6239863 -0.73972404 
-0.31160632 0.0587834 -0.9483913 
0.016823178 -0.048986036 -0.99865776 
-0.4542872 0.64915776 -0.6100962 
-0.035902772 0.35397157 -0.93456686 
0.17308098 -0.74316704 -0.64633256 
0.5617488 -0.5072398 -0.65356416 
0.23545162 -0.41825107 -0.87728477 
0.097477436 -0.72819394 -0.6784038 
-0.7308241 -0.51463133 -0.4483868 
-0.6763967 -0.27610004 -0.6828296 
0.4657387 -0.05068117 -0.88346976 
0.91841 -0.31726772 -0.23635614 
-0.017283358 -0.25534004 -0.9666968 
0.28698304 -0.3201979 -0.9028367 
0.061547477 -0.09609147 -0.99346787 
0.25945127 -0.82791436 -0.49723548 
0.114160836 -0.82348263 -0.5557371 
0.49355838 -0.2921516 -0.819175 
0.3925207 -0.06576342 -0.9173891 
-0.050201666 0.007393159 -0.9987118 
-0.15942803 0.079277724 -0.98402125 