# OOMMF: rectangular mesh v1.0
# Segment count: 1
# Begin: Segment
# Begin: Header
# Desc: Time (s) :  8.740000000000023e-07
# Title: m
# meshtype: rectangular
# meshunit: m
# xbase: 2e-09
# ybase: 2e-09
# zbase: 5e-10
# xstepsize: 4e-09
# ystepsize: 4e-09
# zstepsize: 1e-09
# xmin: 0
# ymin: 0
# zmin: 0
# xmax: 1.024e-06
# ymax: 1.024e-06
# zmax: 1e-09
# xnodes: 256
# ynodes: 256
# znodes: 1
# ValueRangeMinMag: 1e-08
# ValueRangeMaxMag: 1
# valueunit: 
# valuemultiplier: 1
# End: Header
# Begin: Data Text
-0.2588866 -0.95440495 0.14862409 
-0.21501194 -0.95654505 0.19695525 
-0.088209905 -0.98559505 0.14429626 
0.13056926 -0.9062739 -0.40201917 
-0.5251409 -0.75975573 -0.38340387 
-0.49241903 -0.7585104 -0.42683196 
0.013045381 -0.45432964 -0.8907382 
0.73639715 -0.50152355 -0.45408535 
0.48256233 0.35076943 -0.802555 
0.48130038 -0.39235696 -0.7838406 
0.49568194 -0.008984515 -0.86845773 
0.21772972 -0.32050073 -0.92188567 
0.86691046 -0.24098794 -0.43633842 
0.4956271 -0.7664652 0.40851575 
0.20186448 -0.6117428 -0.76486695 
-0.19683526 -0.08771024 -0.97650546 
-0.109856434 0.2288879 -0.96723413 
-0.45484927 -0.45150477 -0.76762986 
-0.06893667 0.5649813 -0.82221895 
0.014557693 -0.0035074574 -0.99988794 
0.11432605 -0.5345631 -0.8373601 
-0.51048183 -0.5595148 -0.652956 
-0.40890324 -0.6378023 -0.65269166 
-0.2569869 -0.6424015 -0.72199595 
0.029871501 -0.9294725 -0.3676799 
-0.18405962 -0.9663624 -0.179627 
-0.39245534 -0.5338623 -0.74897933 
-0.14040743 -0.8451823 -0.51570606 
0.13142101 -0.7270997 -0.67383575 
0.42156714 -0.2730355 -0.8647155 
-0.19710515 -0.09962194 -0.97530764 
-0.6621303 0.07513394 -0.74561274 
0.08534546 -0.6001912 -0.79529047 
0.15176238 -0.62085277 -0.769097 
-0.5329003 -0.83580893 0.13206385 
0.25627774 -0.95995766 -0.113150544 
0.44942364 -0.60248417 -0.659569 
0.37741596 -0.09934894 -0.92069924 
0.28907165 -0.72718066 -0.6226122 
-0.1505212 -0.17539656 -0.9729231 
0.17018999 -0.58337325 -0.79417324 
0.6018578 -0.081717834 -0.7944115 
0.18280537 0.100717925 -0.97797656 
0.1346208 -0.3618481 -0.9224658 
0.030455735 -0.68867123 -0.7244339 
-0.5492259 -0.7056296 -0.44770277 
-0.888171 -0.13835871 -0.43818843 
-0.63546705 -0.6948025 -0.33679548 
-0.93036443 -0.36318424 -0.050192066 
-0.25446177 -0.76301855 -0.59418166 
0.06406626 -0.13312735 -0.98902607 
-0.40299994 0.673234 -0.6199573 
-0.33487496 0.41352016 -0.8466758 
0.7147884 0.45504376 -0.53104883 
0.14316103 0.02432029 -0.9894006 
0.28379703 0.4778038 -0.8313621 
-0.3070927 0.09529406 -0.9468966 
-0.59445566 0.13521382 -0.7926789 
-0.1740786 -0.5789953 -0.7965307 
0.08159415 -0.9882892 -0.12894537 
-0.48962316 -0.8572022 -0.15960534 
-0.19337332 -0.5693807 -0.7990072 
-0.29479697 -0.5677258 -0.7686237 
-0.35121647 -0.31163585 -0.8829101 
0.055217814 0.19707263 -0.9788327 
-0.74350536 -0.3541873 -0.5672312 
-0.5526862 -0.15663205 -0.81853807 
-0.03863551 -0.64728856 -0.7612653 
-0.009685993 -0.57007384 -0.82153636 
-0.21643822 -0.76265395 -0.60951906 
0.30375776 -0.62051207 -0.7229772 
-0.20572945 -0.5816611 -0.78698534 
0.80724365 -0.16160277 -0.56766397 
0.110359654 -0.9421874 -0.31639162 
0.3817044 -0.3475563 -0.85644996 
-0.36500055 0.046769343 -0.92983186 
-0.54839057 -0.8178332 -0.17440417 
0.25430474 -0.9435637 -0.21217157 
0.27555442 -0.9598446 -0.052614085 
0.05781769 0.15768167 0.9857959 
-0.9039554 -0.36053184 -0.22995968 
-0.26872882 -0.31439015 -0.91046345 
-0.022521738 -0.8696108 -0.49322397 
-0.64364344 -0.447402 -0.62093043 
-0.43954545 -0.8403318 -0.31724194 
-0.069251746 0.0843091 -0.99403024 
0.3226472 -0.5548863 -0.76681167 
-0.52700394 -0.84820336 -0.053084355 
-0.6013705 -0.74436045 -0.29031205 
-0.28169727 -0.707402 -0.6482509 
0.072799414 -0.15700771 -0.9849106 
-0.4307312 -0.5970923 -0.6767212 
-0.23242758 -0.30421 -0.92381483 
0.17982547 -0.7375401 -0.6509205 
0.21249479 -0.7575434 -0.6172309 
-0.035896417 -0.94830257 -0.31533113 
-0.85238796 -0.51123315 0.10988835 
-0.8945179 -0.34508887 -0.28416806 
-0.2747497 -0.7031641 -0.65579945 
0.31589535 -0.9423229 -0.11062366 
-0.111982964 -0.81241983 -0.5722185 
0.31601727 -0.31659982 -0.89437 
0.19446595 -0.48103735 -0.8548603 
0.10973486 -0.48168716 -0.86944574 
-0.31280577 -0.65339255 -0.68936986 
-0.73211217 0.05412774 -0.6790302 
-0.60967845 -0.10819442 -0.78523 
-0.5861781 -0.5432952 -0.6010205 
-0.15039402 -0.9728211 -0.17607032 
-0.36276996 -0.622925 -0.69308186 
0.5764346 -0.09739933 -0.8113178 
0.26349354 -0.61142266 -0.7461458 
0.5547299 -0.32087153 -0.76766944 
0.06475834 0.5147018 -0.85492015 
0.5484901 -0.8318317 0.08493988 
0.46111134 -0.7467488 -0.47931483 
-0.081493184 -0.38605088 -0.9188709 
-0.033804946 -0.68076336 -0.73172295 
0.14233422 -0.9729239 0.18209934 
-0.409008 -0.91246355 -0.011077112 
-0.3484154 -0.9369536 -0.026920209 
-0.4551194 -0.559852 -0.6924104 
-0.31178206 -0.7677753 -0.5597437 
0.049029153 -0.48566207 -0.87277067 
-0.076779135 -0.6571253 -0.7498609 
-0.58782566 -0.4349312 -0.68212605 
0.41716012 -0.7182797 -0.55682296 
-0.73368436 -0.5952062 -0.32777578 
-0.29479578 -0.5627869 -0.7722477 
0.068715736 -0.9939061 -0.08619108 
-0.11280122 -0.8991779 -0.42279443 
0.46574917 -0.88222677 -0.0689463 
-0.59419066 -0.7893954 0.15424807 
-0.20366785 -0.5001335 -0.84165674 
0.073888496 -0.58314157 -0.8090033 
-0.88490015 0.21646321 0.41242638 
-0.82512504 -0.43010873 -0.36629933 
-0.68155426 -0.6723218 0.28890717 
-0.9568111 -0.16037689 -0.24247015 
-0.5905945 0.21134469 -0.7788014 
-0.107435964 -0.22517985 -0.9683758 
-0.14433305 -0.96862596 -0.20231627 
0.21956252 -0.36066905 -0.9064823 
0.29569677 -0.9302426 -0.2172839 
-0.1871691 0.014608765 -0.9822191 
0.34742892 0.4678368 -0.81266344 
0.6125562 0.21753584 -0.7599033 
0.344783 0.7774192 -0.5260648 
-0.0042033037 0.7896967 -0.6134832 
0.4638974 -0.11056892 -0.8789618 
-0.006045131 -0.520854 -0.85362446 
-0.11727957 -0.30004206 -0.9466891 
0.6382173 0.118368715 -0.7607021 
0.54590493 -0.15048008 -0.82422304 
0.15966615 -0.58730364 -0.79346156 
-0.42343247 -0.638145 -0.6430209 
-0.43359196 -0.77259254 -0.4637873 
0.10513043 -0.7440989 -0.6597458 
-0.5676838 -0.7172695 -0.4040539 
-0.4368551 -0.8220344 -0.36526316 
-0.0041431366 -0.35704136 -0.9340794 
0.1427821 0.107398465 -0.98391 
0.26403952 -0.22677998 -0.93747216 
0.25213972 0.36007506 -0.8982046 
-0.7279378 -0.28410748 -0.6240108 
-0.23158458 -0.8100775 -0.53864926 
0.51695544 -0.7729788 -0.36777845 
0.46824768 0.40710446 -0.7842259 
0.6589683 0.12694241 -0.7413814 
0.29599264 -0.36488992 -0.8827478 
0.24545985 -0.56054527 -0.7909099 
0.29446167 -0.54714334 -0.7835347 
0.3485932 -0.54481894 -0.76266325 
0.19571489 -0.7846103 -0.58828765 
-0.061636575 -0.9727217 -0.22363675 
0.06643455 -0.23556249 -0.9695859 
-0.2519414 -0.68778735 -0.68078935 
-0.09827566 -0.82911056 -0.5503795 
0.19622964 -0.7105738 -0.67570627 
0.08812603 -0.0948872 -0.9915797 
-0.1677206 -0.71549404 -0.67818743 
0.27508417 -0.16536902 -0.9470912 
-0.009901412 -0.9548976 -0.29677016 
-0.26807246 -0.034564056 -0.96277857 
0.044293903 -0.45995972 -0.8868343 
-0.23189695 -0.94605815 -0.22626913 
-0.62828624 -0.56702256 -0.53267425 
-0.19132052 -0.5457973 -0.8157829 
-0.36758938 0.1279029 -0.9211509 
-0.7922746 -0.26156327 -0.55125815 
-0.25580087 -0.68479526 -0.68236464 
-0.5877591 -0.41509828 -0.6944298 
-0.17735949 0.08174759 -0.98074514 
-0.37808305 -0.79919493 -0.46726954 
0.23382129 -0.08537262 -0.9685242 
0.26873472 -0.1033197 -0.95765686 
0.9181012 0.018346699 -0.39592126 
0.32107908 -0.5598712 -0.7638407 
-0.17614885 -0.74030435 -0.64878434 
0.73873127 -0.2394941 -0.63001484 
0.017477026 -0.84047174 -0.5415735 
0.15931201 -0.34542868 -0.92482364 
0.31627813 -0.5469393 -0.77512944 
0.5841075 -0.3972926 -0.7077973 
0.24491043 0.0065708337 -0.96952343 
0.762078 -0.5896344 0.2675229 
0.23111174 -0.7104176 0.66475123 
0.46604118 -0.27700672 -0.84028155 
0.030395115 -0.1267504 -0.99146885 
0.5606625 -0.8164261 0.1382247 
0.33790743 -0.85660166 -0.38993874 
0.4213548 -0.5713656 -0.70427376 
0.1840337 -0.7386277 -0.6485066 
-0.35101205 -0.9101772 -0.21992728 
0.929856 -0.35048726 0.11192191 
0.7711076 -0.63535726 0.041404206 
0.10953398 -0.99056375 0.08237601 
0.38989243 -0.92065877 0.01927681 
0.4721219 -0.88115674 -0.025762627 
0.1982181 -0.2781698 -0.93985707 
0.16242553 -0.5035737 -0.84854674 
-0.2987 -0.43402827 -0.8499399 
-0.054764908 -0.8085232 -0.5859105 
0.5737428 0.15362191 -0.80449957 
0.54227936 -0.8392994 -0.038855664 
-0.37643474 -0.8462663 -0.3770016 
-0.7380663 -0.44799104 -0.5045416 
-0.60555875 -0.38123268 -0.6985416 
-0.4849919 -0.2543855 -0.83670247 
-0.20772639 -0.08983219 -0.9740534 
-0.27568665 -0.21082406 -0.9378434 
0.037389867 -0.46350172 -0.8853069 
0.115483396 -0.412943 -0.90340567 
-0.025779562 -0.00018909945 -0.99966764 
-0.27388698 -0.17246222 -0.9461728 
-0.58045584 -0.4980796 -0.6441955 
-0.44720277 -0.31637987 -0.83660835 
-0.28407776 -0.31595126 -0.9052484 
0.43023968 -0.6355901 -0.6410297 
-0.29352626 -0.5613095 -0.77380496 
-0.09158191 -0.86417603 -0.4947853 
-0.017784987 -0.74320555 -0.6688268 
0.7398942 0.24794883 -0.62536234 
0.488275 -0.5485298 -0.6787508 
-0.23436378 -0.61228496 -0.7551032 
-0.16283871 -0.6726873 -0.7217863 
-0.034955084 -0.8733699 -0.4858017 
-0.5767886 -0.69840384 -0.42372993 
-0.69204736 -0.40829304 -0.59528756 
-0.54604787 -0.43035263 -0.7187686 
0.080363624 -0.88781506 -0.4531293 
0.040192973 -0.25883397 -0.9650853 
0.33610162 0.4063255 -0.84966785 
0.5402947 -0.24739252 -0.80428773 
0.84521174 -0.29339284 -0.4466966 
-0.11168402 -0.37311333 -0.9210392 
-0.13915268 -0.7923503 -0.5939845 
-0.37757206 -0.8701138 -0.31676722 
-0.7831762 -0.6166221 0.08007655 
0.0013004645 -0.8510332 -0.5251104 
-0.5174806 -0.7870173 -0.33588338 
-0.5613643 -0.716903 -0.41342515 
-0.5282504 -0.37390232 -0.762331 
0.41508314 0.5468701 -0.7270757 
0.18223482 0.17931771 -0.96676564 
0.4257724 -0.03299535 -0.9042285 
0.47305626 -0.17231108 -0.86401784 
-0.145046 -0.095510215 -0.9848043 
0.60507345 0.2035148 -0.7697194 
0.10669214 -0.6547421 -0.7482845 
0.041053407 -0.6043757 -0.79564106 
0.03902617 -0.1003231 -0.99418926 
0.18817168 0.29102254 -0.9380284 
-0.18423453 0.1796026 -0.96633357 
0.43302995 0.3611667 -0.82585937 
-0.87046796 0.31118584 -0.38137785 
-0.16934857 0.08769794 -0.98164666 
-0.1296725 0.61069804 -0.7811742 
-0.30556196 -0.32794037 -0.89391667 
0.060773745 -0.61012477 -0.78997105 
-0.010715493 -0.9205523 -0.39047235 
-0.031044688 -0.77668077 -0.62912905 
-0.39727443 -0.44890487 -0.80041075 
0.052025262 -0.16523568 -0.984881 
0.5616718 -0.30700517 -0.768292 
-0.19543147 0.12811428 -0.97231334 
-0.40068406 0.076374 -0.9130275 
-0.7035773 0.3305099 -0.6290805 
0.10909432 -0.23205352 -0.9665659 
-0.45378262 0.016851459 -0.8909531 
-0.3138732 -0.31325734 -0.89629984 
-0.058997177 -0.6394301 -0.7665824 
0.12365528 -0.08890162 -0.98833495 
0.51472294 -0.23956549 -0.8232064 
0.66799515 0.47345746 -0.57412595 
0.63821733 -0.2682867 -0.7215961 
0.54916424 0.22386095 -0.80517393 
-0.07993395 -0.63364553 -0.7694829 
-0.2732272 -0.45293498 -0.8486441 
-0.21172063 -0.61895865 -0.75634944 
-0.20209664 -0.70186746 -0.6830366 
-0.23427135 -0.8056746 -0.54406387 
-0.27363116 -0.78199553 -0.5600081 
-0.542936 -0.30277044 -0.7832946 
-0.49565247 -0.3640989 -0.78851795 
-0.30721906 -0.8471219 -0.4335908 
-0.58881867 -0.14319834 -0.79547906 
-0.34745568 -0.2324187 -0.90843606 
-0.3453051 -0.12985103 -0.929464 
-0.6353545 0.28872147 -0.71621543 
0.19329333 0.048014134 -0.9799655 
-0.0944795 0.28466177 -0.9539609 
-0.37118104 0.31608668 -0.8731059 
-0.3670127 -0.15877643 -0.9165652 
-0.20766209 -0.70936406 0.67355716 
-0.43260396 -0.89447105 -0.11302766 
-0.569985 -0.56761175 -0.5940826 
0.28802985 -0.13992646 -0.9473434 
-0.08458763 -0.42497122 -0.9012461 
0.04736861 -0.36182734 -0.9310409 
0.15126054 -0.03233916 -0.9879648 
-0.5148832 -0.70341194 -0.4900072 
-0.769845 -0.2826277 -0.5722415 
-0.91174936 0.2763889 -0.3038458 
-0.5321245 -0.21233991 -0.81960684 
-0.08811297 -0.46639666 -0.88017637 
0.43287763 -0.5894697 -0.6820136 
-0.11901242 0.12680419 -0.98476225 
-0.44067687 0.19408014 -0.8764342 
0.1625264 -0.83845353 -0.5201739 
0.2941334 -0.60093075 -0.74321455 
-0.09199957 0.10893243 -0.9897827 
0.052772313 -0.09983186 -0.99360394 
0.24139993 -0.094527975 -0.96581084 
-0.22759376 -0.088412315 -0.96973425 
-0.97146326 -0.23480432 0.033556316 
-0.9711887 -0.0013232717 -0.23830809 
-0.40270388 0.7063572 -0.58214194 
-0.6598392 0.674095 -0.33197635 
-0.60444653 -0.14541787 -0.78326124 
-0.44374245 -0.46386114 -0.7667631 
0.11986848 0.07275186 -0.9901206 
0.8407978 -0.024006462 -0.54081684 
0.7064181 -0.32885087 -0.62676203 
0.17967467 -0.5086693 -0.8420051 
0.4169433 -0.82312244 -0.3855229 
0.41316488 -0.7522211 -0.5132819 
-0.15272583 -0.55161685 -0.8199962 
0.21154982 -0.2745234 -0.93802106 
0.12968992 -0.5120988 -0.8490792 
0.054091863 -0.67507905 -0.73575974 
-0.8067717 -0.33243355 -0.4884746 
-0.22420397 -0.37960783 -0.89756924 
-0.15468247 -0.72988147 -0.66584265 
0.30323994 -0.6725349 -0.67508703 
-0.09118156 -0.48387372 -0.8703748 
-0.24142987 -0.635047 -0.7337758 
0.21404396 -0.25997382 -0.94159377 
0.24737473 -0.6172699 -0.74684924 
0.10508844 -0.21847397 -0.9701678 
-0.2952495 0.29410034 -0.9090285 
0.34871256 -0.27837256 -0.8949348 
-0.30392012 -0.25782317 -0.9171477 
0.33478928 -0.4382798 -0.83416253 
0.47342542 0.062474072 -0.8786156 
0.2020828 0.043277897 -0.9784118 
0.99667466 -0.08097137 -0.009123972 
0.2838981 -0.3122626 -0.9065837 
-0.03564353 -0.46434504 -0.8849369 
0.43267697 0.475479 -0.7659702 
0.6362526 -0.6898973 -0.34528896 
0.45061523 -0.8238219 -0.3438944 
0.41690236 -0.7575711 -0.50227344 
-0.48588753 -0.61409235 -0.6219356 
-0.040077504 -0.6256069 -0.77910835 
-0.18245974 -0.6338924 -0.7515909 
-0.4418674 -0.8268292 -0.34800416 
-0.12891287 -0.83668035 -0.532304 
0.107876986 -0.53175604 -0.83999896 
0.3909403 -0.8409593 -0.374103 
-0.050092656 0.036807384 -0.9980661 
-0.20184162 -0.79940236 -0.56587625 
0.22582185 -0.8039933 -0.5500902 
-0.82417244 -0.5469849 -0.14679015 
-0.65392137 -0.64271307 -0.39913258 
-0.57002896 -0.07371379 -0.8183112 
0.006536672 -0.35001707 -0.9367205 
-0.44970897 -0.3315365 -0.8293645 
-0.43137816 -0.14226022 -0.8908844 
-0.1837829 0.4021381 -0.8969442 
0.41082 0.25382042 -0.87567246 
-0.01645611 -0.89290076 -0.4499527 
-0.007905012 -0.88022107 -0.47449827 
-0.5165981 -0.85196114 0.085373424 
-0.93621534 -0.27876928 -0.21398251 
-0.70138985 0.011493472 -0.71268517 
-0.272363 -0.42749563 -0.8620127 
-0.23780586 -0.30387673 -0.9225548 
0.09358183 -0.34962 -0.9322062 
-0.19115579 -0.52856046 -0.82709336 
0.2574272 0.27066612 -0.9276158 
-0.20430596 0.46096352 -0.8635807 
0.46841276 -0.50681096 -0.7236935 
0.24945088 0.17796974 -0.95189345 
0.0024304008 0.47312522 -0.8809919 
0.13572471 0.39353663 -0.9092348 
0.056121096 -0.052039143 -0.9970669 
0.07791159 -0.22889979 -0.97032714 
0.18653418 -0.19838402 -0.96221036 
0.021292698 -0.013001763 -0.99968874 
0.46972084 -0.31810963 -0.8235099 
-0.30248153 -0.19839738 -0.9322787 
-0.48757294 -0.012174024 -0.87299746 
-0.19903138 0.08788488 -0.97604454 
-0.73010606 0.103528805 -0.67544574 
0.29808676 -0.33658803 -0.893226 
0.19390015 -0.5228813 -0.83005893 
-0.4284557 0.25983465 -0.86539686 
-0.76762867 -0.05385934 -0.6386277 
-0.09321562 -0.6617844 -0.7438765 
-0.3001002 -0.39769217 -0.86705303 
0.038619418 -0.5881848 -0.8078039 
-0.13094749 -0.13370639 -0.9823316 
-0.7503304 0.015068026 -0.66089123 
0.85224205 -0.30014846 -0.42847925 
0.29842785 -0.43399334 -0.85005325 
0.54845154 -0.5725481 -0.60941744 
0.5849351 -0.4647831 -0.66470116 
0.6112237 -0.49889737 -0.614416 
0.3323367 -0.27131692 -0.90329367 
-0.19490242 -0.71368486 -0.6728053 
-0.2507788 -0.26881906 -0.9299712 
-0.22638528 -0.37770456 -0.8978246 
-0.6189987 -0.5127742 -0.5948977 
-0.31341493 -0.05726351 -0.94788826 
-0.45264643 -0.077780634 -0.88829136 
0.49798962 -0.539473 -0.6789516 
0.11389374 -0.39664903 -0.91087747 
-0.7572722 -0.47403207 -0.4492577 
-0.61429757 -0.5694775 -0.5461995 
-0.1616939 -0.59104717 -0.79026484 
0.10920012 -0.101544306 -0.9888196 
-0.65568745 0.110958435 -0.7468348 
-0.036631808 -0.41371694 -0.9096683 
-0.22396259 -0.52271783 -0.82256114 
-0.38206735 -0.51143134 -0.76971585 
-0.39005095 0.16829924 -0.9052821 
-0.46862128 -0.34548447 -0.8130403 
0.22759473 -0.4274539 -0.87491935 
-0.32718334 -0.57255375 -0.75175345 
0.23311806 -0.3071407 -0.92267036 
0.5719792 -0.03796716 -0.819389 
0.39616156 -0.5128497 -0.7616045 
0.40361702 -0.7253279 -0.55766726 
0.37417176 -0.39507434 -0.83899456 
0.70947796 -0.29036674 -0.6421279 
0.009720377 -0.23592263 -0.9717232 
0.24820153 0.07588493 -0.96573156 
0.5639367 -0.19636446 -0.8021325 
0.641695 -0.111197785 -0.7588561 
0.46861973 -0.19543423 -0.8615109 
0.33100182 -0.8880397 -0.31909782 
-0.27022195 -0.74151254 -0.61411667 
-0.5854848 -0.2087507 -0.7833458 
0.50815886 0.2541122 -0.8229226 
0.13498047 -0.91639423 -0.3768314 
-0.21408048 -0.70347273 -0.6777136 
-0.104251765 -0.8109867 -0.5757015 
0.11499535 -0.55877024 -0.8213112 
0.52048945 -0.48067427 -0.7057216 
0.9345166 0.00136099 -0.35591713 
0.70220953 -0.058799207 -0.7095382 
0.87260765 -0.10543558 -0.47690597 
0.9202293 -0.21549913 -0.32670826 
0.283969 -0.79165554 -0.5409649 
-0.48045 0.07314567 -0.8739666 
-0.35430163 -0.09130495 -0.9306631 
0.08388989 -0.35665557 -0.9304619 
0.15313244 -0.6657327 -0.7303086 
0.9299891 -0.2288984 -0.28762126 
0.48193812 -0.5240294 -0.70223135 
0.1626735 -0.76052374 -0.6286025 
-0.0075760484 -0.5367382 -0.8437149 
-0.06235492 0.041590016 -0.9971872 
0.11578445 -0.33963263 -0.9334043 
-0.053407975 0.22543596 -0.97279304 
0.20095804 -0.06255861 -0.97760034 
0.07509399 -0.5100077 -0.85688573 
0.37949374 -0.7072742 -0.59644604 
-0.35167277 -0.5792091 -0.7354204 
-0.08489851 -0.016168434 -0.99625844 
-0.36418632 0.2945064 -0.88353515 
0.41191423 0.10542836 -0.90510315 
0.33712232 -0.3183542 -0.88600177 
0.25173238 -0.41883847 -0.87247074 
-0.24775457 -0.029296482 -0.9683798 
-0.26055446 -0.69618386 -0.6689092 
0.17561918 -0.98383075 -0.0351411 
0.490939 -0.3432536 -0.8007221 
0.49139494 -0.20451564 -0.84658396 
-0.05317116 -0.60968703 -0.79085684 
0.49835595 0.16626652 -0.8508801 
-0.45122057 -0.54345506 -0.70785356 
-0.28320056 -0.12667829 -0.9506578 
-0.39194548 -0.42454806 -0.81617266 
-0.1475324 -0.47024783 -0.87011564 
0.63268256 -0.43542227 -0.64040637 
0.3016464 0.028624339 -0.9529901 
0.481074 0.15803207 -0.86231875 
0.5132521 -0.3353713 -0.78999907 
0.6971402 -0.63817406 -0.3266948 
0.350064 -0.5071087 -0.78758883 
0.2816024 -0.40012655 -0.8721233 
-0.35477 -0.86196804 -0.36214548 
-0.34332073 -0.86674714 -0.36177373 
-0.31755775 -0.80915004 -0.4944022 
-0.3779191 -0.2722493 -0.88490546 
0.122299604 -0.51015294 -0.85134417 
-0.25079513 -0.30634683 -0.9182884 
0.001537909 -0.10654879 -0.9943063 
0.18889931 -0.0893311 -0.9779249 
-0.07014613 0.45314813 -0.8886711 
-0.34516522 -0.30688015 -0.88695294 
0.20180242 -6.003049e-05 -0.97942626 
0.31463772 -0.07285909 -0.9464115 
-0.007819185 0.22548445 -0.97421545 
0.007890216 0.17109078 -0.9852237 
0.31761464 0.04175802 -0.9473 
-0.07886585 0.39651126 -0.91463596 
-0.09326686 0.48032185 -0.87211937 
0.55335903 0.7856505 -0.27667168 
-0.3463291 0.74909604 -0.56472236 
0.2912788 -0.24838828 -0.92382896 
-0.01311449 0.7434716 -0.6686389 
0.46786684 -0.36382285 -0.8054401 
0.6970041 -0.1813877 -0.69374627 
0.1941154 -0.17071018 -0.96601105 
0.63429713 0.050533455 -0.77143604 
0.51355565 -0.32871938 -0.79259336 
-0.04386314 -0.16566555 -0.9852061 
0.056761734 -0.008465771 -0.99835193 
-0.13740678 -0.3622598 -0.9218933 
-0.6870473 0.3625024 -0.6297286 
-0.3634189 0.14708833 -0.9199412 
0.17034988 0.2857862 -0.9430309 
0.16297376 -0.14026558 -0.97660905 
-0.46984604 -0.31855655 -0.82326585 
-0.10766454 -0.279308 -0.95414644 
-0.38931513 0.021169113 -0.92086136 
0.79150283 -0.14167958 -0.59451675 
0.5612753 0.23113918 -0.79469794 
0.15401249 0.45473164 -0.87721115 
-0.15725583 0.43161386 -0.8882456 
0.3613531 0.4102 -0.837353 
0.37654033 -0.07081083 -0.9236901 
-0.36616966 0.15704122 -0.9172011 
0.15221371 -0.40554026 -0.9013147 
-0.053957935 -0.6360588 -0.7697517 
0.19262475 -0.5061563 -0.8406553 
-0.41164884 -0.1343737 -0.90138173 
0.048180148 -0.55782473 -0.8285591 
0.019320725 -0.86237454 -0.50590205 
-0.28954247 -0.6507798 -0.701891 
-0.27407458 -0.2396874 -0.93136096 
-0.15518363 -0.4287998 -0.8899712 
-0.3240853 0.6477536 -0.6894811 
-0.002856399 0.25293785 -0.96747833 
-0.6192547 0.1489411 -0.7709347 
-0.010314373 0.30161297 -0.9533747 
-0.2073008 -0.42502192 -0.8811259 
-0.36156148 -0.75798655 -0.5428902 
-0.7576805 -0.40017524 -0.5155389 
0.06906555 -0.6037931 -0.7941435 
-0.45087796 -0.4493649 -0.77122 
-0.32746845 -0.50166225 -0.80068684 
-0.53845507 -0.44955286 -0.712719 
0.0043464215 0.11466939 -0.99339426 
-0.16763425 -0.039603215 -0.9850535 
-0.39750144 -0.5078502 -0.76425177 
-0.83846766 -0.029020734 -0.5441782 
-0.60812044 -0.027217893 -0.7933781 
-0.5239923 -0.004131182 -0.85171306 
-0.19062175 -0.16894145 -0.96701723 
-0.52137744 -0.5135043 -0.68152696 
-0.403014 0.10790834 -0.90881 
0.41273522 -0.10609313 -0.9046513 
-0.36475474 -0.32810995 -0.871377 
-0.04638725 0.005686623 -0.9989074 
-0.1030164 -0.23276503 -0.96706164 
-0.072473995 -0.08318369 -0.99389535 
-0.26619604 -0.020005485 -0.9637113 
-0.12005094 -0.16110906 -0.97960794 
-0.5859294 -0.4011307 -0.7041172 
-0.4912491 0.51967263 -0.69900984 
-0.38974422 0.069684535 -0.918283 
-0.08635595 -0.7095313 -0.69936264 
-0.58857733 -0.50786185 -0.62900966 
-0.037662532 -0.44426656 -0.8951026 
0.24923815 0.26804835 -0.93060756 
0.0017144663 -0.38387078 -0.9233853 
0.33526275 -0.5451456 -0.7683848 
0.4416242 -0.6841831 -0.58039784 
-0.016335208 -0.6550066 -0.75544655 
-0.20981978 -0.60585105 -0.76741135 
0.45723438 -0.315379 -0.83154845 
0.3982613 -0.31658676 -0.86090696 
0.28913546 -0.2561683 -0.92237663 
0.25600767 -0.026554331 -0.96631 
-0.31894362 -0.75873023 -0.567982 
0.049081814 -0.8549058 -0.51645625 
0.44052443 -0.27397925 -0.8549115 
0.15356484 -0.6926973 -0.70469034 
-0.46549574 -0.6702924 -0.57794625 
-0.16774288 -0.3039912 -0.9377909 
0.05510485 -0.556576 -0.8289673 
0.10149164 -0.23377493 -0.9669792 
0.7062526 0.028692383 -0.7073784 
0.15710641 -0.75344884 -0.63846105 
0.18171224 -0.8007297 -0.57079995 
0.06794296 -0.56398165 -0.8229876 
-0.028294334 -0.08706053 -0.99580115 
0.41822657 -0.66850233 -0.6149726 
0.75655067 0.059550937 -0.65121806 
0.62814057 -0.3346951 -0.70243776 
0.5785019 -0.1325171 -0.8048447 
0.86683893 -0.10897449 -0.48653364 
0.44208592 -0.89074224 0.10553908 
0.1847569 -0.82778114 -0.52975786 
0.20198344 -0.78168374 -0.5900622 
-0.46949393 -0.3349587 -0.81693214 
0.28339887 -0.868794 -0.40605685 
0.31003782 -0.488817 -0.8154352 
-0.15096568 -0.30397755 -0.9406419 
-0.41339418 -0.59609723 -0.688312 
-0.08321994 -0.003671788 -0.99652445 
-0.20636687 -0.3161809 -0.9259818 
0.00038145678 0.18732966 -0.982297 
0.043072436 -0.7078067 -0.7050918 
-0.29980937 -0.5064588 -0.808464 
-0.5826885 -0.50139785 -0.63958913 
0.040747084 -0.06656812 -0.99694955 
-0.6747788 -0.38473868 -0.6298013 
-0.43721455 0.64218163 -0.6296398 
-0.32557204 0.31278765 -0.89228183 
-0.672096 -0.27630222 -0.6869819 
-0.06976504 0.13891388 -0.98784405 
-0.020319091 -0.55224353 -0.8334352 
0.021613223 -0.72958046 -0.6835534 
0.00671254 -0.8813594 -0.4723989 
0.014848478 -0.92429644 -0.38138655 
-0.16354883 -0.40462977 -0.899737 
-0.41729426 0.12301661 -0.9004069 
-0.17178361 -0.5250742 -0.8335391 
0.13107085 -0.5757283 -0.80706716 
-0.41019332 -0.19583505 -0.89072454 
-0.04195044 0.037622362 -0.9984111 
0.3395941 0.6222955 -0.70528305 
0.17838892 0.5635077 -0.80662036 
0.050480403 0.20355208 -0.9777619 
0.04857191 0.34877512 -0.93594694 
0.5836323 0.352023 -0.73174673 
0.54274523 0.7399344 -0.3973976 
-0.2245192 0.14870226 -0.9630571 
-0.7930828 0.031921122 -0.60827696 
-0.066419475 0.28939116 -0.9549038 
-0.4469096 -0.05836818 -0.89267296 
-0.32817692 0.24953581 -0.9110608 
-0.4702672 -0.7713867 -0.42873234 
-0.057040777 0.1579769 -0.9857939 
0.05044 0.4464747 -0.8933735 
0.1694664 0.30525964 -0.93706864 
0.34110343 0.44851482 -0.82612526 
-0.16827759 -0.12885131 -0.97728205 
0.14354777 -0.30356753 -0.94193465 
-0.4149578 -0.75583386 -0.50648314 
-0.16157235 -0.7022654 -0.69333816 
-0.3087605 -0.073963776 -0.94825965 
-0.35702708 -0.30871183 -0.8816058 
-0.27359244 -0.23988916 -0.93145066 
-0.5151754 -0.4504015 -0.7292001 
-0.09997106 -0.62521124 -0.7740263 
0.29533726 -0.59604275 -0.7466653 
0.29547983 -0.75143814 -0.58994275 
-0.5009287 -0.10181482 -0.859479 
-0.60121155 -0.4260962 -0.6760079 
-0.37591144 -0.6256454 -0.6835631 
-0.5902973 -0.5280027 -0.6105427 
0.063664615 -0.17174414 -0.98308235 
0.026135221 -0.61835116 -0.78546727 
-0.38235536 -0.04032727 -0.9231349 
-0.4895036 0.18471266 -0.85221326 
-0.32411468 -0.44923502 -0.8325488 
0.8280701 -0.5133219 -0.22539021 
0.25096267 -0.78367686 0.56821513 
-0.5166675 -0.38114908 -0.7666682 
-0.5112752 -0.21466641 -0.83217555 
-0.58465457 -0.05443731 -0.809454 
-0.37808013 0.2484314 -0.8918168 
-0.249344 0.39171907 -0.8856544 
0.48751116 -0.1584424 -0.8586203 
0.67972326 -0.28367904 -0.6763894 
-0.31720462 0.21476328 -0.92371964 
-0.19380873 0.15248771 -0.96911603 
-0.622447 -0.25896403 -0.73857796 
-0.04378045 0.13920234 -0.9892958 
-0.34005103 -0.34955862 -0.8730258 
0.20337012 -0.06339889 -0.9770472 
0.41662782 -0.14688648 -0.89713186 
0.390299 -0.7856141 -0.48008054 
0.13477208 -0.6575065 -0.7412973 
0.04736089 -0.62476695 -0.77937365 
0.51853764 -0.46928373 -0.7147668 
-0.8653007 -0.28641847 -0.41136262 
0.35407212 -0.039092463 -0.93440074 
0.8158405 0.08576917 -0.57188123 
0.5754163 -0.1019553 -0.81148094 
-0.47794586 0.0126814395 -0.8782978 
0.07698705 -0.3362021 -0.9386379 
0.12930952 -0.1791766 -0.97528195 
-0.15487099 0.3646348 -0.9181811 
-0.14492701 -0.32517675 -0.9344819 
0.10197201 -0.5827164 -0.8062527 
0.42784482 -0.3810386 -0.8196086 
0.15498903 -0.9017106 -0.4036044 
-0.1949577 -0.40651208 -0.8926027 
-0.31263137 -0.3393475 -0.8871893 
0.67086625 -0.07100802 -0.738171 
0.4053506 -0.5514056 -0.7291384 
0.23215376 -0.68012005 -0.69537145 
-0.04024315 -0.4018465 -0.9148223 
-0.076638795 0.50421405 -0.8601713 
-0.40867874 0.40604854 -0.8173776 
0.20982887 -0.5498287 -0.80849266 
0.14340095 -0.2545116 -0.95637864 
0.25389415 -0.106545 -0.9613459 
0.04980516 -0.46323594 -0.88483447 
0.594832 -0.4339483 -0.67665637 
0.009052107 -0.0063153603 -0.99993914 
-0.05495927 -0.34943074 -0.9353489 
0.26723745 -0.5255042 -0.80773115 
-0.49561104 -0.43007436 -0.7545898 
-0.346454 -0.0012746598 -0.9380661 
0.08494381 -0.27384752 -0.95801467 
0.2037497 -0.29939833 -0.9321194 
0.26364267 -0.52848136 -0.80696964 
0.474095 -0.2561179 -0.84239995 
0.6160677 -0.06633777 -0.7848949 
0.320302 0.14195444 -0.9366193 
0.43128031 0.50286484 -0.7490824 
0.4840743 -0.36686364 -0.79440737 
0.14048715 -0.12598303 -0.98203444 
-0.037338123 -0.3525144 -0.9350612 
-0.2618278 -0.62516844 -0.7352623 
0.6271314 -0.42891845 -0.6501809 
0.90924525 -0.38948426 -0.14688483 
0.4216974 0.21392871 -0.8811389 
0.23533306 -0.3203722 -0.9175947 
0.5460531 -0.34868798 -0.7617367 
-0.068040475 -0.31302932 -0.9473031 
-0.23541531 -0.249779 -0.93924975 
-0.52342576 -0.29010305 -0.8011652 
0.24879245 -0.023605522 -0.96826917 
0.090967104 -0.116261914 -0.98904413 
0.36384442 -0.21882512 -0.90539104 
-0.06252482 -0.62532187 -0.7778582 
0.04458805 -0.10884459 -0.9930584 
-0.47937292 -0.1795113 -0.85905606 
0.05160337 -0.583805 -0.8102523 
0.27840018 -0.7491547 -0.60104966 
0.11448459 -0.7539274 -0.64690554 
0.10435919 -0.36384273 -0.9255959 
-0.1948619 0.1679506 -0.96634436 
-0.34256765 -0.005664913 -0.9394761 
0.35999325 -0.85725904 -0.36811933 
-0.1668537 -0.89862174 -0.4057573 
-0.047305603 -0.45488268 -0.889294 
0.26661587 0.16816345 -0.9490191 
-0.12734407 0.24579726 -0.96092004 
-0.87911034 0.17436418 -0.44357905 
-0.29457834 0.74044335 -0.60412526 
0.34954414 -0.31979302 -0.8806539 
0.19094338 -0.65101737 -0.73465437 
0.49055016 -0.7282763 -0.47851253 
0.050064366 -0.7792191 -0.62474906 
0.3843841 -0.5017925 -0.7748892 
-0.20588799 -0.017956657 -0.97841084 
-0.11416435 0.37352997 -0.9205661 
0.35170925 -0.42087477 -0.83616096 
0.21941721 -0.37197617 -0.9019367 
0.002468234 -0.41046688 -0.91187215 
0.65562785 -0.40031335 -0.64023536 
0.6418571 -0.27898878 -0.7142722 
0.61899024 -0.067126 -0.78252494 
0.56860733 0.19234505 -0.79980564 
0.6823906 -0.19095208 -0.70560646 
0.5233713 -0.13075769 -0.8420125 
0.49197736 -0.24318123 -0.83595526 
-0.6210644 0.036907777 -0.78289 
-0.8690222 0.24209711 -0.43149677 
-0.31541976 0.054929245 -0.94736123 
-0.2930188 -0.11779896 -0.9488221 
-0.19434193 -0.24305545 -0.9503448 
0.3231412 -0.25221053 -0.91212374 
0.19234213 0.5565659 -0.8082321 
0.0063128914 0.5079459 -0.8613659 
0.08717174 0.7311501 -0.6766245 
0.310281 0.29537845 -0.90359133 
0.103300296 0.6846182 -0.7215449 
-0.6289728 0.3995686 -0.6668869 
0.7925486 -0.020784715 -0.60945445 
0.25779873 -0.33610585 -0.90585464 
0.07464879 -0.2997905 -0.9510801 
0.18015638 -0.33958945 -0.92315906 
0.082922705 -0.27452946 -0.9579966 
-0.052072443 -0.52525336 -0.84935117 
-0.1525796 -0.4194649 -0.89485687 
-0.48490986 0.18740393 -0.85424954 
-0.21902512 0.14286698 -0.96520317 
0.20536855 0.0059799454 -0.9786665 
-0.64282864 -0.33341908 -0.6896398 
-0.7496969 -0.17129333 -0.6392286 
0.38488838 0.16659229 -0.9078039 
0.4594507 0.49715504 -0.7360313 
0.017211609 0.12913495 -0.99147767 
-0.1570113 -0.03366251 -0.98702294 
0.40412456 -0.6275618 -0.6654694 
-0.26261127 -0.44707146 -0.8550805 
-0.050029144 -0.88353527 -0.46568525 
0.24358219 -0.06753087 -0.9675264 
0.2554148 -0.51180875 -0.82025313 
0.15040465 -0.46585298 -0.871986 
-0.42709148 -0.0020708803 -0.9042061 
-0.021664098 0.21714734 -0.97589844 
-0.16285303 0.55160195 -0.8180552 
-0.36513802 0.4462623 -0.8170215 
-0.5945765 0.28241423 -0.75280887 