//mumax 3.10 [linux_amd64 go1.14(gc) CUDA-11.0]
//GPU info: NVIDIA GeForce RTX 2080 Ti(11018MB), CUDA Driver 11.4, cc=7.5, using cc=75 PTX
//(c) Arne Vansteenkiste, Dynamat LAB, Ghent University, Belgium
//This is free software without any warranty. See license.txt
//********************************************************************//
//  If you use mumax in any work or publication,                      //
//  we kindly ask you to cite the references in references.bib        //
//********************************************************************//
//output directory: Example08.out/
Aex = 12e-12
Msat = 1e6
Ku1 = 0.6e6
AnisU = vector(0, 0, 1)
Dbulk = 0
Dind = 2e-3
alpha = 0.10000
SetGridsize(256, 256, 1)
SetCellsize(4e-9, 4e-9, 1e-9)
B_ext = vector(0, 0, 0)
Temp = 0.0
SetSolver(5)
m = RandomMagSeed(92238196)
B_ext = vector(0, 0, 0.3)
RunWhile(MaxTorque > 5e-3)
Snapshot(m)
B_current := 0.25
B_ext = vector(0, 0, B_current)
RunWhile(MaxTorque > 5e-3)
Snapshot(m)
minimizerStop = 5e-5
Minimize()
fcritical := 50e9
H0 := 10e-3
B_ext = vector(0, H0*sin(2*pi*fcritical*t)/(2*pi*fcritical*t), B_current)
tableautosave(10e-12)
Run(10e-9)
Snapshot(m)
//********************************************************************//
//Please cite the following references, relevant for your simulation. //
//See bibtex file in output folder for justification.                 //
//********************************************************************//
//   * Vansteenkiste et al., AIP Adv. 4, 107133 (2014).
//   * Exl et al., J. Appl. Phys. 115, 17D118 (2014).
//   * Mulkers et al., Phys. Rev. B 95, 144401 (2017).
