# OOMMF: rectangular mesh v1.0
# Segment count: 1
# Begin: Segment
# Begin: Header
# Desc: Time (s) :  7.000000000000001e-09
# Title: m
# meshtype: rectangular
# meshunit: m
# xbase: 2e-09
# ybase: 2e-09
# zbase: 5e-10
# xstepsize: 4e-09
# ystepsize: 4e-09
# zstepsize: 1e-09
# xmin: 0
# ymin: 0
# zmin: 0
# xmax: 1.024e-06
# ymax: 1.024e-06
# zmax: 1e-09
# xnodes: 256
# ynodes: 256
# znodes: 1
# ValueRangeMinMag: 1e-08
# ValueRangeMaxMag: 1
# valueunit: 
# valuemultiplier: 1
# End: Header
# Begin: Data Text
0.90652 -0.00048643234 0.42216253 
-0.08154801 0.6379344 0.76576084 
0.6266098 0.74390876 0.2322929 
0.43169463 0.11685928 0.8944181 
0.37191325 0.26341486 0.8901086 
-0.7192682 -0.20383646 0.6641566 
-0.97941273 0.03362275 0.19904824 
-0.70589477 0.60953975 0.3607962 
-0.7958267 0.32731992 0.5094326 
0.3743967 0.8103377 -0.45075494 
-0.3916064 0.4236261 0.8168143 
0.11995871 0.30336845 0.94529235 
-0.59581834 0.76413476 0.24718127 
-0.63710266 0.67012495 0.38083175 
0.2849791 0.6868967 0.6685506 
-0.102232605 0.9761069 -0.19173922 
0.29053193 0.71074873 0.6406461 
-0.6140433 0.66653734 -0.4227042 
-0.37801394 0.7542216 0.5368941 
-0.8425849 0.52209425 0.13216719 
-0.1962579 0.5880101 0.7846828 
-0.4233747 -0.42555958 0.7997831 
0.36163932 -0.50573015 0.78323317 
0.5932372 -0.21096973 0.7768922 
0.68894583 -0.33131388 0.64465874 
0.39458084 -0.5401425 0.74333847 
-0.45040327 0.4007173 0.7978487 
0.26705956 0.19547573 0.94364643 
0.42168367 -0.8146487 0.39815882 
0.8373914 -0.111526914 0.535105 
0.06727461 0.44472826 0.89313555 
0.4353684 0.6695377 0.60180867 
-0.2380779 -0.2767137 0.9309933 
-0.9553404 0.09780585 0.2788527 
0.0036708245 0.97637665 0.21604444 
-0.5209962 0.53259367 0.66701347 
0.045636814 0.82145405 0.56844586 
-0.5045451 0.7097155 0.4916688 
-0.36775476 0.67789054 0.6365696 
-0.6703843 0.61576414 0.41402847 
-0.56710744 0.71199644 0.41406566 
-0.061123464 0.55029505 0.83273005 
-0.17805123 0.3188403 0.93093437 
-0.47411853 -0.01708901 0.88029516 
-0.36891565 0.52574706 0.7664798 
0.14162444 0.22434382 0.96416414 
0.48729983 0.32275495 0.8113989 
-0.44244894 -0.024067936 0.89647067 
-0.11433312 0.88341075 0.45443755 
-0.13456236 0.8164089 0.5615779 
0.030711187 0.9654109 0.2589184 
-0.20605782 0.6511045 0.7304815 
-0.20058796 0.093680136 0.9751864 
-0.41358003 0.66427064 0.6226525 
0.29603872 -0.21985266 0.92952996 
0.6015374 0.110773206 0.7911271 
-0.030998569 0.117749825 0.9925594 
0.6376784 -0.4819307 0.60092366 
-0.031205256 0.82269293 0.56762904 
-0.14615153 0.6648989 0.73249525 
0.056071308 0.4776572 0.87675524 
-0.4800478 0.33836433 0.80936 
-0.013659671 0.6163069 0.7873876 
-0.331532 0.8761636 -0.34989148 
-0.012375022 0.9889791 0.14753759 
-0.16881977 0.9737174 -0.15288699 
-0.4502898 0.80554575 0.38514322 
-0.06817502 0.9113371 0.40597662 
-0.037248835 0.6821166 0.73029417 
-0.14167133 0.8088993 0.5706234 
0.5060372 -0.13534819 0.85182583 
0.37107602 0.6749818 0.63773215 
-0.02302795 0.9710511 -0.23775944 
-0.08062542 0.936541 0.34116042 
0.25979245 0.9415207 0.21458517 
-0.2516528 0.6993245 0.6690412 
-0.7696613 0.63262457 -0.086067565 
-0.991665 0.116425194 -0.055189513 
-0.18223597 0.91061956 0.37089348 
0.239281 0.6647266 0.707731 
0.35840416 0.72475773 0.5884495 
-0.40256548 0.21938744 0.8887127 
-0.46470925 0.28692266 0.8376878 
-0.25409997 0.6570607 0.70972145 
-0.009237288 0.9244883 0.38109848 
0.60965925 -0.36303458 0.7046429 
0.118134424 0.62772256 0.76942104 
-0.45696697 0.1942022 0.8680246 
-0.7732722 0.6027214 0.19691908 
-0.7434851 -0.17404792 0.6457069 
-0.41645345 0.49803692 0.7606088 
-0.10171676 0.102453694 0.9895236 
0.80283886 0.47790623 0.35644826 
-0.12591282 0.64648443 0.7524652 
-0.35507727 0.82743365 0.43505606 
0.29881734 0.17076574 0.93890756 
0.85670197 0.3409658 0.3870453 
0.13836913 0.51124597 0.84822255 
0.47510657 0.7088793 0.5213098 
0.8808993 0.379992 0.2821749 
0.56987685 0.18712218 0.80014104 
0.5396196 0.50373495 0.6745827 
0.37016606 0.14079782 0.9182337 
0.076856785 -0.1066101 0.9913261 
0.282059 -0.7326525 0.6194054 
0.63488436 -0.45211694 0.6265079 
0.3127744 0.8186584 0.48163316 
0.318162 0.9462757 -0.05775323 
-0.3727141 0.83759487 0.39939827 
-0.40091679 0.84688056 -0.3493696 
0.36533055 0.92661804 0.08895241 
0.107264295 0.6952617 0.71070784 
0.354111 0.30612546 0.8836813 
-0.43752307 0.8577212 0.26997784 
-0.13097928 0.93986076 0.31544614 
0.0123389475 -0.45509923 0.8903553 
0.28211635 0.6592976 0.6969484 
0.17294407 0.7185012 0.67368126 
0.31855652 0.7539031 0.5745886 
0.67576724 0.10992381 0.7288727 
0.16235942 0.59197456 0.7894338 
0.61342 0.59653413 0.5175549 
0.15070632 0.3839405 0.910976 
0.10182305 0.16959646 0.98023933 
0.14273983 0.9734545 0.17891866 
0.3213271 0.85971373 0.3970406 
0.7441175 -0.088404045 0.6621737 
0.88247633 0.12175485 0.45432514 
0.46205744 0.514804 0.7221356 
-0.41604286 -0.060146447 0.90735376 
-0.51721036 0.5219796 0.67825574 
0.3427587 0.8270407 0.44555628 
-0.03790733 0.338819 0.9400876 
0.09800744 0.6776849 0.72879195 
-0.0078111235 0.39992824 0.9165132 
0.50633603 0.7333522 0.4536721 
0.2941209 0.94638354 0.133608 
0.28767264 0.95694375 -0.038771983 
0.8401859 0.5327226 -0.10146082 
0.8842966 0.4655007 -0.03645167 
0.56420386 0.76705825 0.30544367 
0.144912 -0.34628454 0.9268698 
0.14636748 0.03278516 0.98868686 
0.4616391 0.10380539 0.88097316 
-0.01525439 0.60134214 0.7988461 
0.31170398 0.8884935 0.33677918 
-0.19333036 0.86204475 0.46851078 
-0.1406644 0.8162137 0.5603649 
0.36969844 0.44612175 0.81504506 
0.43959585 0.48860297 0.7536727 
0.089681864 0.5219419 0.8482534 
-0.28577387 0.64164805 0.7117733 
-0.044405185 0.010342223 0.99896014 
-0.51934075 0.0021492268 0.8545645 
-0.9673641 0.23009405 0.10612988 
-0.59310645 0.61859864 0.51532567 
0.11165813 0.70854604 0.6967748 
-0.41562545 0.33667204 0.84493047 
-0.15170604 -0.36349264 0.91916186 
-0.6501673 -0.09225619 0.75416934 
-0.28466943 0.005178671 0.9586117 
0.30843246 0.24447246 0.9192947 
0.04152363 0.8557674 0.5156919 
0.22140144 0.42105836 0.87959725 
0.01300272 0.35092813 0.9363122 
-0.45190358 0.13093641 0.8824052 
-0.44358644 0.023101933 0.8959338 
-0.95005596 -0.30734852 -0.05413565 
-0.9446493 -0.15688801 -0.28813878 
-0.87347126 0.089989714 -0.47848704 
-0.68922824 0.7016005 -0.18089005 
-0.18486607 0.9756296 -0.11820138 
-0.17316198 0.66987115 0.72200257 
-0.031114817 0.95668393 0.2894612 
-0.58236384 0.67406476 0.4544108 
0.43920615 0.28769648 0.8510751 
0.1257021 0.09400634 0.9876041 
0.319654 0.5501355 0.7714742 
-0.4442693 0.5673164 0.6933808 
-0.52741426 0.6906757 0.49477404 
-0.31864962 0.9025035 -0.28974092 
-0.22478582 0.9627505 0.15027606 
0.3856922 0.8707238 0.3050929 
0.32108524 0.6998948 0.63800603 
0.3446183 0.8748558 0.34039056 
-0.8285859 0.46465176 -0.31232077 
-0.4384477 0.39900067 0.80533344 
-0.08936146 0.5684026 0.8178834 
-0.49483258 0.86289114 0.10276079 
0.07891738 0.9582414 0.27485558 
0.985556 0.16850321 0.016915739 
0.9368837 0.30302024 0.17443585 
0.5326027 0.20111206 0.82212424 
0.28742388 0.6059462 0.74176604 
0.2895806 0.79381466 0.53479105 
-0.47000277 0.1095809 0.87583643 
-0.43687358 -0.45892942 0.7736442 
-0.17959829 0.23082365 0.9562766 
-0.17113435 -0.22355817 0.95954937 
-0.24295034 0.020115959 0.96983016 
0.35254392 0.120441385 0.92801225 
-0.23803338 0.22276989 0.9453643 
-0.3592906 0.40529147 0.84062433 
0.06952441 0.9573835 -0.280327 
0.4056236 0.4546632 -0.7929382 
0.63943064 0.75805366 -0.1283866 
0.4444303 0.86871517 -0.21866827 
0.68047154 0.6688895 -0.29924127 
0.7992641 0.5850565 0.13742578 
-0.18276475 0.93592745 0.3010597 
0.86229086 -0.45001316 0.23225607 
0.7280245 0.1858014 0.6598926 
-0.42129028 0.4635805 0.7794921 
-0.17837498 0.59927154 0.7804204 
-0.62634677 0.48283762 0.6120111 
0.7193855 0.41917554 0.5538741 
0.91143775 0.32879075 0.24734148 
0.96206367 0.02985058 0.27118728 
0.6315969 -0.51518106 0.5793738 
0.17176276 0.1645366 0.97130084 
0.8219574 0.56321704 0.084692486 
0.6424247 0.7494485 0.16005501 
0.5613428 0.44088107 0.7003701 
0.60693926 0.4254155 0.671302 
0.52727 0.341907 0.7778727 
0.043704662 0.104384094 0.9935763 
-0.095118366 0.45224297 0.8868083 
0.060921226 0.31675565 0.9465487 
-0.22071223 0.2709405 0.9369511 
-0.3649318 0.92335117 0.11936268 
-0.64125264 0.7637073 0.07447339 
-0.39385673 0.8953039 0.20810534 
-0.13552894 0.9835162 -0.11969921 
0.17465861 0.93133044 0.31955937 
-0.16830839 0.4531569 0.8753978 
-0.00018328786 0.12308118 0.99239665 
0.06228727 0.31421435 0.9473065 
0.34295413 0.29489762 0.89186203 
0.3134726 -0.051221665 0.9482148 
0.7762607 0.14451478 0.6136244 
0.19483575 0.23792823 0.95154047 
-0.10145164 0.7515564 0.6518209 
-0.3943915 0.78071284 0.4847091 
-0.014866871 0.17413336 0.9846099 
-0.2743019 0.73410964 0.6211616 
-0.55298823 0.73186153 0.3982245 
0.40563315 0.90858674 -0.09965874 
0.22982714 0.95190567 0.20262097 
0.36844835 0.89562464 0.24920368 
0.69257444 0.1306634 0.70941365 
0.43929392 0.030097447 0.89783907 
0.39874995 0.069144376 0.9144494 
-0.3933843 -0.12929676 0.91023684 
0.1933493 -0.85618514 0.47912765 
0.33429676 0.36210814 0.8701284 
0.29424942 0.32601783 0.898404 
-0.4350777 0.8369534 0.33198848 
-0.6367171 0.66169447 0.3959191 
-0.0019909267 0.87175006 0.4899468 
-0.65711623 0.33066723 0.6773902 
-0.7609796 0.43997005 0.47679812 
-0.15828349 0.048292283 0.986212 
-0.7578714 -0.053903952 0.6501734 
-0.6325312 0.26811984 0.72664714 
-0.9191979 -0.039590534 0.39180067 
-0.48625803 0.33424526 0.80736196 
-0.46441212 0.004270642 0.8856089 
-0.59072673 0.5660214 0.57503206 
-0.45136473 0.47714624 0.7540567 
-0.08866664 0.80824363 0.58213437 
-0.18521267 0.5437512 0.8185542 
-0.21333623 0.6353025 0.7422119 
0.14745492 0.7667808 0.6247434 
0.014737944 0.6771499 0.7356976 
-0.30806836 0.5191094 0.7972575 
0.11066083 0.4779766 0.871374 
-0.24100308 0.4184437 0.8756839 
-0.098535106 -0.35749593 0.9287021 
0.5464929 -0.05707632 0.8355166 
0.54757595 -0.16977583 0.8193515 
-0.032282185 0.9510347 0.3073939 
0.80324894 0.09275037 0.5883779 
0.4116313 -0.50483495 0.75874996 
0.33647802 -0.4729399 0.8143159 
0.93014795 0.028950717 0.3660419 
0.53025496 0.25251007 0.80936295 
0.3699877 0.18038413 0.91135657 
-0.24432904 0.42030326 0.8738699 
-0.1324294 0.3258518 0.93609995 
-0.028547268 0.4435495 0.89579517 
-0.30729538 0.79158837 0.5281643 
-0.12239045 0.9691144 0.21409777 
-0.2395253 0.8358527 0.49394137 
-0.43436724 0.9001484 0.032527618 
-0.55732924 0.5872015 0.5870081 
-0.5866794 0.10355539 0.803171 
-0.88235694 0.3176351 0.34720922 
-0.16444087 0.620765 0.76655734 
-0.46135524 0.49561262 0.73588014 
-0.95995647 0.19907261 0.19711338 
-0.21269788 0.6391867 0.73905355 
-0.24373405 0.089424394 0.9657107 
0.58081084 -0.12223981 0.80480826 
-0.24961051 -0.33184358 0.90971124 
-0.5527158 0.11973022 0.82472414 
-0.83142155 -0.30351874 0.4654187 
-0.5403988 0.10300145 0.8350808 
0.48875976 0.17311983 0.85506934 
0.2902983 0.11011692 0.9505794 
0.061555024 0.3913888 0.91816443 
0.7938928 0.10659314 0.598642 
0.41533443 -0.3059304 0.856682 
-0.13734987 0.2426665 0.96033746 
-0.049239025 0.1337786 0.9897873 
0.089204945 0.4903692 0.8669375 
-0.7322908 0.50214785 0.45999756 
-0.32053915 0.4097412 0.8540297 
-0.05873849 -0.31157202 0.9484053 
-0.40348732 0.26916292 0.8744995 
-0.41994154 0.7879922 0.45024166 
-0.45563036 0.615873 0.64272976 
-0.73153484 0.38654503 0.5616403 
-0.58444756 0.63816386 0.5011667 
-0.3488439 0.7199681 0.59996164 
-0.21619363 0.64319015 0.73455215 
-0.23919365 0.34891668 0.9061146 
0.46749425 0.4525715 0.7593603 
-0.40539312 0.8855332 0.22690828 
0.51045656 0.8596007 -0.022822121 
0.58504665 0.81098795 0.0043591866 
-0.21524341 0.89619035 0.3879604 
-0.5135698 0.623246 0.58975476 
-0.8624787 -0.1779916 0.4737612 
-0.614524 0.49086198 0.617588 
0.3353012 0.4216456 0.84248924 
0.062208846 0.55536306 0.82927805 
-0.5008625 0.3297552 0.80024904 
-0.72773665 0.46476904 0.5043701 
-0.29204625 0.1910941 0.937119 
0.42216423 0.73403406 0.5319506 
-0.13368227 0.5249056 0.84059685 
-0.07436215 0.22895876 0.97059166 
0.21843417 0.03779768 0.9751194 
-0.32972834 0.1017236 0.93857956 
-0.3962267 -0.025977133 0.91778517 
-0.3087736 -0.21136752 0.9273526 
-0.6604384 -0.22079627 0.7176839 
0.2633189 0.4656918 0.8448636 
0.23241274 0.096932806 0.967775 
0.030293137 0.4774136 0.8781564 
-0.22123252 0.4719821 0.8533986 
-0.3763614 0.53774583 0.7544412 
0.6697454 0.049935196 0.74091 
0.7196033 -0.06466439 0.69136804 
0.38097724 0.3996387 0.83375365 
0.9274182 0.32644725 -0.18255906 
0.9781707 -0.14972903 -0.14409542 
0.77264196 -0.3656013 0.51899904 
0.64170516 -0.31129122 0.70093673 
0.47194004 -0.31765008 0.82241774 
0.67070794 0.22157843 0.7078517 
0.79773796 0.37929806 0.4687721 
0.56003517 0.030064397 0.8279231 
-0.074150756 0.9864582 0.14629404 
-0.65941894 0.5687076 0.49166894 
0.09179533 0.88840824 -0.44978282 
0.5468295 0.5955684 0.5884521 
0.31999937 0.289118 0.90222573 
0.21506809 -0.3628555 0.90668714 
0.3071259 0.043224715 0.9506868 
-0.17880604 0.53292763 0.82705295 
0.4037142 -0.5441055 0.73550266 
0.4505981 0.12104182 0.88448304 
0.5094232 0.34293753 0.78922874 
0.5027249 0.56836885 0.6513252 
0.33759958 0.8589708 0.3849619 
0.7234364 0.44193673 0.53040725 
0.13018166 0.26961285 0.95412874 
0.58156794 0.016196605 0.8133367 
0.2832541 -0.26334402 0.92218065 
0.4861305 0.63093215 0.6046501 
0.7000754 0.49426696 0.5153587 
0.5372595 0.15716623 0.82864404 
0.43323922 0.4570568 0.7767901 
0.20205352 0.3324626 0.9212183 
0.25687954 0.607303 0.7517951 
-0.05045149 0.42063534 0.9058259 
0.091256514 0.6148191 0.7833708 
0.50504583 0.3529771 0.787614 
0.12953131 0.43702126 0.89007527 
0.7135735 0.19535826 0.67279124 
0.8373973 0.48301363 0.25585908 
0.4067862 0.91331655 0.019441219 
0.1805683 0.9814382 0.06460819 
0.5550663 0.8296811 0.059420988 
0.6294808 0.5162204 0.5807499 
0.4653406 0.59856313 0.6520586 
0.09364727 0.51278603 0.85339373 
0.42013887 0.17241004 0.89093107 
0.21971937 -0.20978959 0.9527391 
0.26655492 0.36414006 0.89238477 
-0.72941047 0.47955343 0.4878411 
-0.32153508 0.3503679 0.8796918 
-0.122167304 0.88158774 0.45593667 
0.4309386 0.514741 0.7411706 
0.18068834 0.5170669 0.8366563 
-0.3861989 0.6844979 0.6183147 
-0.12328545 0.44743437 0.88577837 
-0.6870274 -0.12642299 0.71554923 
-0.57087934 0.11685019 0.8126763 
-0.4849284 0.08081579 0.87081194 
0.051334977 0.97432524 0.2192147 
0.4015244 0.5611287 0.7238183 
0.47579393 0.7172591 0.5090772 
0.0855529 -0.21132658 0.97366416 
-0.25506744 -0.022661503 0.96665776 
-0.43963706 -0.23448637 0.86702675 
-0.02019543 0.36495313 0.9308068 
-0.07265684 0.54970676 0.83219194 
-0.5067037 0.48063597 0.7157098 
-0.5308706 0.10236253 0.84124804 
-0.24624746 -0.15402533 0.9568899 
-0.89437896 0.39193308 0.21558 
-0.83134985 0.49856928 -0.2455326 
-0.4883024 0.8151486 -0.31159836 
-0.2512891 0.966796 -0.04646827 
-0.5386535 0.5761385 -0.6147495 
0.24677236 0.78410023 -0.56946474 
0.29321662 0.7035222 0.6473643 
-0.09741208 0.679465 0.72721267 
0.27536985 0.4952354 0.82396203 
0.58695316 -0.053220082 0.8078698 
0.30458286 0.09389454 0.9478466 
0.14309803 0.15496631 0.9775011 
-0.74508214 0.3489116 0.56843066 
-0.51467866 0.8157112 0.2640477 
-0.3918824 0.9159661 -0.086223066 
0.55167055 0.82605946 0.11526285 
0.16922693 0.96876794 0.18124846 
0.06616949 0.4451459 0.8930099 
0.17629518 0.9180957 0.35499334 
-0.43120506 0.23337898 0.8715484 
-0.51108223 0.40770593 0.7566841 
-0.6133903 0.28483433 0.73662865 
-0.4812519 0.80689615 0.34251332 
-0.30743298 0.7342149 0.60532105 
0.58219707 0.79507357 0.17001379 
0.8512418 0.4619691 0.24894178 
0.4031297 0.85137725 0.33562398 
0.30676177 0.5531962 0.7745135 
0.21736293 0.94761354 0.2340555 
-0.10427239 0.34825194 0.9315836 
0.55973494 0.6591575 0.50220335 
-0.20182 -0.28225064 0.9378717 
-0.13236131 -0.4908739 0.8611175 
0.109567374 0.018114965 0.9938143 
0.5326902 -0.71500283 0.4527827 
0.45444077 -0.32450292 0.829567 
0.115577705 0.47120506 0.87441856 
-0.36627984 0.83716434 0.4061958 
0.21910995 0.6413545 0.73529273 
0.3284289 0.8132703 0.48033953 
0.2151796 0.95171833 0.21892929 
0.86356485 0.5033209 0.030397078 
0.957684 0.27928844 -0.06956633 
0.46429646 0.6644157 0.5856455 
0.624961 0.43885565 0.6456233 
0.5102899 0.25381643 0.8216943 
0.21264593 0.022618731 0.97686756 
-0.20002416 0.13195792 0.9708643 
-0.65312225 0.12741457 0.7464562 
0.75722426 0.35065088 0.5510494 
0.89295566 0.31841326 0.3181876 
0.83719105 0.40159887 0.37125406 
0.3291907 0.3128828 0.8909196 
0.7124506 0.5295444 0.4604313 
0.7729864 0.627546 -0.093156494 
0.31688273 0.43724716 0.84166527 
0.50668156 0.3522296 0.7868977 
0.6611288 0.47140804 0.58368075 
0.33308628 0.17194323 0.92708635 
-0.26410434 0.2165103 0.9398788 
0.35713696 0.5044422 0.7861242 
-0.64475024 0.3400342 0.68459773 
0.035632726 0.68194586 0.73053426 
-0.0591081 0.6336542 0.77135515 
-0.13103217 0.98979646 -0.055978008 
-0.12999731 0.95475173 0.26748827 
-0.41715425 0.84394616 0.3372496 
0.020351099 0.7409181 0.671287 
-0.44943085 0.78335303 0.4293834 
-0.2940266 0.8143713 0.50034755 
-0.5276178 0.16862266 0.8325778 
-0.6834835 0.0340737 0.7291704 
-0.01756952 -0.27081138 0.9624721 
0.6005717 -0.21516694 0.770076 
-0.2602771 -0.042825878 0.96458375 
-0.20174202 -0.45969754 0.8648575 
-0.39084688 0.21640639 0.8946547 
-0.7647507 -0.16939141 0.6216614 
-0.4489797 0.20564574 0.8695557 
-0.37915993 0.5347307 0.7551826 
0.025472162 0.9987203 0.0436936 
0.07839957 0.8107757 0.5800832 
0.60995865 0.7530224 -0.24679488 
0.79147565 0.45235494 0.41102487 
0.7078872 -0.03777053 0.705315 
0.43855757 -0.5448455 0.7147102 
0.3382084 -0.19311647 0.9210435 
-0.12908061 0.5217105 0.84330094 
0.44862756 0.530987 0.71887845 
-0.430748 0.4351525 0.7906318 
-0.15579665 0.6401695 0.7522703 
-0.546436 0.67722774 0.4927173 
-0.381608 0.44847628 0.8082353 
-0.08464401 0.9302384 0.3570603 
-0.2186034 0.9352606 0.2783886 
0.2521792 0.25320882 0.93396515 
-0.33558008 0.5578993 0.7590351 
-0.59017634 0.51888245 0.6184279 
-0.06992782 0.6772135 0.73245615 
-0.68906915 0.40209705 0.602911 
-0.74786645 0.008053266 0.6638005 
-0.42320675 0.76056504 0.49237865 
0.11089132 0.6808585 0.7239716 
0.16808875 0.16114211 0.9725119 
-0.1568347 0.49223712 0.85621583 
0.46250954 0.29580092 0.8358151 
0.56755084 0.5196076 0.6386658 
0.56777346 0.51138 0.6450766 
0.7070076 0.57103115 0.4172095 
0.4455258 -0.23334835 0.86432374 
-0.065497026 0.77040046 0.6341871 
0.60481703 0.11128594 0.7885505 
0.7834339 0.3379177 0.5215775 
0.05490355 0.20503211 0.9772141 
0.46174178 0.36135322 0.81007314 
0.5329193 -0.13483828 0.8353536 
0.68576366 0.15645775 0.71080893 
0.767804 0.52605766 0.3657055 
0.49458873 -0.15738536 0.8547583 
0.55770975 0.15922476 0.8146209 
0.45986027 0.7950407 0.39552367 
0.291517 0.5160103 0.80545104 
-0.3494311 -0.15555628 0.923959 
-0.38093358 0.61762536 0.68806154 
0.056881525 0.6980216 -0.713814 
0.26702 0.89280844 -0.3627582 
-0.08102561 0.9548506 -0.28582352 
-0.13183899 0.24475296 0.96058035 
-0.18898302 0.7164653 0.67153776 
0.14418446 0.6994076 0.70002854 
-0.17297311 0.35115457 0.9202015 
-0.015609555 0.47971976 0.8772829 
-0.49314258 0.27346694 0.8258489 
-0.8490824 0.17632072 0.49796617 
-0.50319976 -0.009540869 0.86411756 
-0.3388792 -0.90608865 0.25330654 
0.31816137 0.39328903 0.86261076 
0.046855714 0.34887302 0.93599796 
-0.209158 0.3509472 0.91273713 
-0.43145782 -0.1593212 0.8879532 
0.54045355 -0.44035697 0.7169349 
0.02863945 -0.24906445 0.9680634 
0.34520522 -0.25917652 0.90203154 
-0.3006582 -0.6205981 0.724198 
0.018598244 -0.07604014 0.9969313 
0.7517682 0.12477299 0.64751554 
0.2419607 -0.17614046 0.9541644 
0.12459875 -0.75731677 0.6410511 
-0.33124304 0.12027062 0.9358489 
-0.21524721 -0.40235734 0.8898186 
-0.10057876 0.4317252 0.89638007 
-0.1637973 0.020766392 0.9862755 
0.02433107 0.35052153 0.93623865 
-0.47606832 0.71697426 0.5092219 
-0.014748451 0.6818567 0.73133713 
-0.30179673 0.33855096 0.8912362 
0.05640555 0.54459053 0.8368032 
-0.23664717 0.35999236 0.90244323 
0.7292492 0.014252642 0.68409985 
0.41957563 0.5948026 0.68568665 
-0.05944555 0.39422694 0.9170886 
-0.042866662 0.8223144 0.5674166 
0.6948847 0.7181669 -0.03703616 
0.046519373 0.9427876 0.33013245 
-0.15609223 0.6864787 0.71019876 
-0.4251516 0.7550555 0.49913666 
-0.6994905 0.25192526 0.66876507 
-0.37315863 0.15014902 0.91553706 
-0.26822302 0.3994573 0.8766358 
0.26701176 0.67220074 0.690544 
-0.32102597 0.43975404 0.83878404 
-0.3258121 0.4400302 0.8367915 
-0.6627854 0.021966485 0.7484872 
-0.3160556 0.04792835 0.9475293 
-0.15031184 0.21291634 0.9654393 
-0.40131107 0.6369945 0.65816987 
-0.43550023 0.1511028 0.88741624 
-0.2500373 -0.11609473 0.961251 
0.010904917 0.040219072 0.9991314 
0.013904047 -0.34986135 0.9366983 
-0.51387817 -0.12750177 0.84833515 
-0.5985498 0.7386261 0.31011233 
0.49306393 0.2836458 0.8224555 
0.74814165 0.3939892 0.533907 
0.4912592 0.23562424 0.8385378 
0.4943295 0.21424948 0.84245807 
0.70935285 0.5580769 0.4305448 
0.84899205 -0.02164729 0.52796197 
-0.090590365 0.060032062 0.99407727 
0.30765945 0.5238427 0.79431385 
0.661742 0.0855373 0.7448363 
0.22221372 -0.19250515 0.9558048 
0.32992667 0.001740975 0.944005 
0.4168212 -0.12235681 0.90071577 
0.33058757 -0.5016176 0.7994321 
0.42360935 -0.21845263 0.87910956 
0.5005833 0.029364655 0.8651903 
-0.23857355 0.6713652 0.7016777 
-0.023739094 0.32568812 0.9451792 
-0.001263813 0.997185 0.07497065 
-0.088537574 0.86651874 0.49122965 
-0.319099 0.64347875 0.6957808 
-0.18721657 0.6173518 0.76408553 
0.14035694 -0.33640298 0.9311998 
0.09984334 -0.5441345 0.83303607 
0.6460802 -0.4508927 0.61585414 
0.8040294 0.094058104 0.587103 
-0.0032911908 -1.0327553e-05 0.9999946 
0.4288599 0.1621619 0.8886973 
0.05651594 0.67325664 0.7372459 
0.28111207 0.33128217 0.90068215 
0.31544283 -0.7642163 0.56255615 
0.45613724 0.1838284 0.87071586 
0.68025696 -0.001926199 0.7329713 
0.45980725 -0.33641255 0.82182974 
0.100928105 0.032108102 0.99437547 
0.43005213 0.106481224 0.89650255 
0.557636 0.4569717 0.69297844 
0.102857724 0.55909145 0.82270116 
-0.4214631 0.44893327 0.78792626 
-0.3431082 0.5104508 0.78849024 
-0.090136886 0.8074145 0.5830586 
0.41574132 0.6833794 0.6001265 
0.3746735 0.61822486 0.6909543 
0.40731528 0.7542351 0.5149988 
0.5382427 0.20764309 0.8168104 
0.43086097 0.45291898 0.78052753 
-0.34846607 0.90633285 0.23902337 
0.8810258 0.47005454 -0.053314798 
0.27724984 0.58312076 0.7636117 
0.3533021 0.19130094 0.9157411 
0.04339797 -0.3114437 0.94927317 
0.40884808 -0.07908718 0.90916914 
-0.4095969 0.10037528 0.90672773 
-0.20316756 0.69308436 0.69163364 
-0.13124001 0.97976583 0.15111256 
-0.05087478 0.8737188 0.48376375 
0.2730799 0.56056607 0.78178847 
-0.4964055 0.63402385 0.5929549 
0.659433 0.19217344 0.7267858 
0.13868035 0.6124018 0.77828777 
-0.059406243 0.38545012 0.92081445 
-0.32673112 -0.13763976 0.9350412 
0.071583994 -0.04659444 0.9963457 
-0.17792653 -0.009339273 0.98399955 
-0.13056546 0.51744884 0.8456946 
-0.41408396 0.14588241 0.8984725 
0.1396071 0.49795058 0.8558944 
-0.3268468 0.37432635 0.8677851 
-0.0317693 -0.032251794 0.99897474 
-0.17856257 0.2004354 0.96329695 
0.08105195 -0.10422746 0.9912453 
-0.42056432 -0.21237943 0.88205487 
-0.28084302 -0.08829922 0.9556833 
-0.13183194 0.08501451 0.9876199 
-0.27515545 -0.2033053 0.9396576 
0.030005276 0.70112896 0.71240294 
-0.21909098 0.69858366 0.68116087 
-0.48844904 0.8358097 0.25067845 
0.08578287 0.8924669 0.44288182 
-0.17503273 0.8462682 0.5031837 
0.5239569 0.84290373 0.12240297 
0.08866023 0.2788279 0.95623976 
0.062420554 0.7639259 0.6422779 
0.74698716 0.38856938 0.53946656 
0.3311784 0.5116273 0.7928169 
-0.09608122 0.5126216 0.8532219 
0.6664305 -0.13452253 0.73333085 
-0.322195 -0.14598493 0.9353495 
-0.99845695 -0.011088656 0.05441294 
-0.8301867 0.40619016 -0.38183707 
-0.076559626 0.9876727 0.13653311 
0.2814655 0.71200746 0.6432905 
0.11884125 0.68236035 0.72129136 
-0.49246535 -0.13152428 0.86033666 
-0.30788153 0.745063 0.5916841 
-0.8247405 0.4478159 0.34534627 
-0.92250633 0.31167796 -0.22768188 
-0.31417105 0.77579325 -0.5472124 
-0.0029418985 0.8305207 0.55698013 
0.5606961 0.6693709 0.48740387 
0.7553309 0.50123143 0.42218748 
0.74429107 0.584455 0.32317662 
-0.011126289 0.65988535 0.75128394 
-0.44096422 0.892944 0.090563245 
0.34449407 -0.17486013 0.92235994 
-0.46876082 0.30786684 0.8279381 
-0.067227915 0.050850213 0.99644107 
-0.0054357992 0.15407178 0.98804474 
-0.1172735 -0.42432162 0.8978854 
0.09933454 -0.2871147 0.9527318 
0.028489374 -0.18212225 0.9828631 
0.09422897 -0.02667012 0.99519324 
0.6347608 0.56176907 0.53056043 
0.6146221 0.40057105 0.6795458 
0.6447252 0.4004811 0.65111005 
-0.4462371 0.8297351 0.33527917 
0.73007375 0.16073224 0.6641969 
0.7625732 0.5123381 0.394958 
-0.099864975 0.45839757 0.8831188 
0.021171741 0.43732837 0.8990526 
-0.07243913 0.12359501 0.9896853 
-0.27232358 -0.11649791 0.95512736 
-0.52994204 -0.37336218 0.7614212 
-0.20245941 0.026609618 0.97892916 
-0.42885002 0.023010144 0.90308267 
0.0075720917 0.7476764 0.6640201 
-0.36775005 0.9002926 0.23288032 
0.6595594 0.67245704 0.33583164 
0.74952734 0.21418977 0.6263638 
0.43904886 0.08672497 0.8942678 
0.46645647 0.3954538 0.7912235 
0.5458087 0.23145206 0.8053093 
0.16022834 0.25674322 0.95310533 
0.5431234 -0.3711019 0.75319344 
-0.3576169 0.79741836 0.4860395 
0.3959923 0.75466317 0.5231382 
-0.026794767 -0.8303982 0.55652577 
-0.46073538 -0.11866208 0.8795694 
-0.16315928 0.045579154 0.98554635 
-0.826266 0.56167525 0.04248961 
-0.69746226 0.50842416 0.50502616 
-0.4648756 0.19580063 0.86345404 
0.21282408 0.8730503 0.43873608 
0.060998123 0.5998131 0.79781175 
-0.1598823 0.98659194 0.032772012 
0.015027247 0.41140097 0.91133064 
-0.4746423 0.46229112 0.74900043 
-0.3620617 0.13444634 0.9224075 
0.26410884 0.36279708 0.8936581 
0.11764127 0.097023286 0.9883051 
-0.05566895 0.08068408 0.99518394 
0.14854558 0.3126741 0.9381733 
-0.15263033 0.36621517 0.9179273 
0.3076933 -0.04516141 0.9504132 
-0.6541305 -0.1823998 0.73405963 
0.30841443 0.37880698 0.87257427 
0.2707505 0.9429919 0.19354722 
0.6834315 0.6018877 0.41310135 
0.28067577 0.9046929 0.3205497 
0.46721283 0.30729282 0.8290255 
0.12961878 0.06848926 0.98919576 
0.0872216 0.17649654 0.9804292 
0.8598398 -0.06034044 0.5069859 
0.90214163 0.28592464 0.3230909 
0.011707783 0.7668584 0.6417095 
0.6852673 0.13798863 0.71509993 
0.21100968 0.19454247 0.9579292 
0.28839877 0.38108772 0.8784067 
0.28327507 0.8154564 0.50476354 
0.19375609 0.31584388 0.9288172 
0.2924739 0.61624974 0.7312287 
0.28966686 0.80416274 0.5190525 
-0.010413141 0.7012397 0.7128496 
0.10942203 0.18541226 0.9765497 
-0.71555096 0.4569773 0.52835464 
-0.7217117 0.17825016 0.6688492 
-0.23317114 0.07381208 0.96963036 
-0.29416224 0.43922922 0.8488501 
-0.24166076 0.83212644 0.499165 
-0.54513097 0.8245592 0.15144089 
-0.3693084 0.7452352 0.5551899 
0.7807276 0.5788136 0.23545527 
-0.056126945 0.6734469 0.73710185 
0.12906861 0.7538512 0.64424354 
0.2934884 0.5279126 0.7969773 
0.30871364 0.43080294 0.8480004 
0.39331266 0.72130704 0.5701065 
0.9555875 0.22340006 0.1922111 
0.7314937 -0.16384242 0.6618706 
0.61281884 -0.30360085 0.729575 
0.11277251 -0.111640655 0.9873291 
0.83478 0.49395517 0.2432092 
0.076718695 0.8501503 0.52092093 
0.37438038 0.43483225 0.8189995 
-0.26147345 0.21620588 0.94068414 
-0.16596338 0.14234371 0.9758045 
-0.36726928 0.49922717 0.78478384 
-0.6939153 0.52823454 0.4893362 
0.24731803 0.21269947 0.9453004 
0.40772408 0.9084635 0.09195295 
0.41492417 0.8378178 0.35482284 
0.10364666 0.7498648 0.65342194 
0.33708856 0.46785814 0.8169946 
0.2230604 0.6798711 0.69858384 
0.18507268 0.90168893 0.3907751 
0.4973897 0.4363845 0.7497814 
-0.2794903 0.46880203 0.83791995 
-0.47513142 0.49299556 0.72883856 
-0.3879471 -0.551594 0.7384045 
-0.25376245 0.060173314 0.9653931 
0.35450026 0.032583058 0.93448806 
0.20582642 0.49441326 0.8445065 
-0.5404948 -0.14251114 0.8291901 
-0.760201 -0.44692335 0.47154453 
0.41052738 -0.036912646 0.9111008 
0.35836172 -0.32671073 0.8745497 
0.12868807 -0.19662532 0.97199684 
0.017724695 -0.0185033 0.9996717 
0.36960605 -0.21013321 0.9051162 
-0.46496207 -0.48648858 0.73968863 
0.3250063 -0.22290134 0.919068 
-0.1915784 -0.64159614 0.7427329 
-0.42075837 0.028617704 0.9067213 
-0.5231073 0.016832942 0.8521006 
-0.18890285 0.18607363 0.9642056 
-0.053637777 0.008920281 0.9985206 
-0.23505417 -0.2801032 0.93074805 
-0.4585446 0.32877395 0.82561773 
-0.36347014 0.6632677 0.6541907 
-0.50195205 -0.23669074 0.83187836 
-0.5736043 0.29685426 0.76344985 
-0.39360234 -0.033279546 0.9186783 
-0.16727567 -0.8634895 0.4758201 
0.58249575 0.13755135 0.8011107 
0.22762308 0.89348423 0.38713518 
-0.08327414 0.71695757 0.6921252 
-0.3022268 0.8753603 0.37736383 
0.322991 0.9136934 0.24665987 
-0.11773141 0.72645694 0.67705214 
-0.41827846 0.49147397 0.7638695 
-0.39636067 0.7287863 0.5583626 
-0.6652426 0.5437826 0.5116179 
-0.6494372 0.24936979 0.71836346 
-0.25843525 0.4246804 0.8676739 
-0.4287737 0.25289118 0.8672942 
-0.59906334 0.48746416 0.63521796 
-0.3538052 0.22044067 0.90897083 
-0.7416596 0.1009381 0.6631385 
-0.2094604 0.40379235 0.8905493 
0.005324754 0.7829706 0.62203604 
-0.58199877 0.28295293 0.76237476 
-0.6771477 -0.57180166 0.46315658 
0.19583313 -0.26352516 0.9445655 
0.31248915 -0.5405257 0.78114176 
-0.11663214 -0.8298993 0.54558605 
-0.07175468 -0.3887612 0.9185402 
-0.37614024 0.91487277 0.14671841 
0.028930232 0.6412726 0.7667677 
-0.24888685 0.3835158 0.88936555 
0.08136692 0.730883 0.67763525 
0.48114157 0.5099612 0.7130515 
0.010089641 0.60047144 0.79958254 
0.33790383 0.35680068 0.8709273 
0.37095225 -0.04877492 0.92737025 
0.43600094 0.2724586 0.8577118 
0.71408975 -0.17396687 0.67809397 
-0.30551693 -0.30221203 0.90295476 
-0.0063186744 -0.1268776 0.99189836 
0.08341139 -0.52096546 0.8494926 
-0.50706524 -0.197997 0.83885753 
0.58529633 0.440288 0.68086326 
0.34135336 0.26628113 0.9014279 
0.095592886 0.6924035 0.71514994 