# OOMMF: rectangular mesh v1.0
# Segment count: 1
# Begin: Segment
# Begin: Header
# Desc: Time (s) :  1.0000000000000002e-08
# Title: m
# meshtype: rectangular
# meshunit: m
# xbase: 2e-09
# ybase: 2e-09
# zbase: 5e-10
# xstepsize: 4e-09
# ystepsize: 4e-09
# zstepsize: 1e-09
# xmin: 0
# ymin: 0
# zmin: 0
# xmax: 1.024e-06
# ymax: 1.024e-06
# zmax: 1e-09
# xnodes: 256
# ynodes: 256
# znodes: 1
# ValueRangeMinMag: 1e-08
# ValueRangeMaxMag: 1
# valueunit: 
# valuemultiplier: 1
# End: Header
# Begin: Data Text
-0.026439039 0.051078387 0.99834466 
-0.0011431102 -0.2099755 0.977706 
0.20097552 -0.041488666 0.9787173 
0.7753405 0.55437475 0.3025157 
0.38410047 0.7835038 0.48845547 
-0.06335661 0.28877392 0.95529866 
0.90843076 0.1289785 0.39764082 
0.6607512 0.07372089 0.74697596 
-0.6080835 0.77711844 0.1622386 
-0.6656951 0.73802376 0.11032232 
-0.47570574 0.5455003 0.6900243 
0.6062063 0.7541171 0.25262937 
-0.32506377 0.8358639 0.4423407 
-0.17922033 0.87542635 0.44889724 
-0.15834872 0.9743271 0.16003904 
0.1520435 0.8163892 -0.55712783 
0.07001971 0.98909545 -0.12956698 
0.74994653 0.37385726 0.5457207 
0.009021363 0.77777535 0.62847775 
0.27811077 -0.13537784 0.9509613 
-0.22852284 0.12835519 0.9650401 
-0.28312984 0.67872304 0.67762274 
-0.10997226 0.6294474 0.76922184 
-0.106029026 0.42766404 0.89769775 
-0.722238 0.15692338 0.67360777 
-0.30515903 0.9472518 0.09793963 
-0.084866 0.6831777 0.7253041 
0.14257641 0.4081932 0.90169305 
0.10133048 0.65641457 0.7475641 
-0.56751037 0.605244 0.55822206 
-0.7208035 0.6164068 0.31699383 
-0.4859829 0.8028263 -0.34538493 
0.5786443 0.8144883 -0.042187493 
0.557693 0.5995565 0.5740301 
0.66819036 -0.12907687 0.7327079 
0.8714579 0.46689543 0.1502328 
0.71044165 0.531367 0.46143442 
0.072357774 0.7620107 0.64350915 
0.1761019 0.96561325 -0.19125707 
0.0014851157 0.91286016 0.40826967 
-0.26458696 0.90002733 0.34633029 
-0.053166572 0.8054798 0.5902335 
-0.16626234 0.817102 0.5519976 
0.32993978 0.93762374 -0.109551586 
0.1484693 0.9445936 0.29274517 
0.10534233 0.9336586 0.3423225 
-0.34190452 0.00010693193 0.9397347 
-0.015384954 -0.6630368 0.7484287 
0.22380175 0.3858783 0.8949921 
0.19724485 0.83524567 0.5132828 
-0.9418199 0.32314685 0.092473984 
-0.37651142 0.8724203 0.311644 
-0.84306103 0.27882963 0.45989376 
-0.659123 0.71869236 0.22144589 
-0.5100892 0.76492006 -0.3933274 
-0.14859399 0.79253304 0.5914484 
-0.37123093 0.9172234 -0.14453036 
-0.18757832 0.24764915 0.9505179 
0.0069114584 0.9428454 0.333159 
-0.5067644 0.8514676 0.13488053 
0.09145924 0.89603025 0.4344709 
0.03350537 0.9314642 0.3622871 
-0.1785779 0.86618525 0.466726 
-0.37868118 0.9007097 0.21289122 
0.029583534 0.9991023 0.030321488 
-0.24309541 -0.073783435 0.9671922 
-0.45004165 0.4798778 0.75311345 
-0.2652334 0.96376777 0.028338546 
0.43006223 0.6074541 0.6678668 
0.27013034 -0.18431646 0.9450169 
0.7695806 0.10520674 0.6298232 
0.582446 0.45296505 0.6749663 
0.6112572 0.6867935 0.39329302 
0.42492506 0.5840073 0.691646 
-0.399874 0.5557095 0.72889495 
0.6177687 0.27937746 0.73505795 
0.04549484 0.8471133 0.5294612 
0.16198176 0.9835167 -0.08035535 
0.83288133 0.4901238 -0.25707474 
0.5476699 0.76757675 -0.33299196 
-0.15529117 0.96703064 0.20183282 
-0.091855966 0.75696987 0.6469614 
-0.16493236 0.8644195 0.4749488 
-0.21202403 0.30941907 0.92698747 
0.1325664 -0.15398304 0.9791402 
0.4082995 -0.13765876 0.9024088 
-0.46818236 0.38096046 0.79729205 
0.11530756 0.31577876 0.9418004 
0.15122598 0.2964712 0.94299287 
-0.22613376 0.48973858 0.842033 
0.42093688 0.361417 0.8319795 
0.51534116 0.72306114 0.4600066 
0.5951334 -0.041403007 0.8025597 
0.69855654 0.34902516 0.6246601 
-0.097278655 0.97003675 -0.22263333 
0.2941823 0.6438101 0.7063749 
0.6573749 0.40126157 0.63784593 
0.697987 0.59423196 0.39962807 
0.49926937 0.078483105 0.86288494 
0.074905634 0.4487905 0.89049226 
-0.70224994 0.35097262 0.6194057 
-0.485485 -0.05994735 0.8721873 
-0.018194819 0.23777255 0.97115046 
-0.015977684 -0.22738782 0.9736733 
-0.0056689437 0.3037173 0.9527454 
0.2063593 0.73607326 0.6446798 
-0.64083743 0.61873657 0.45441455 
-0.22043133 0.9589679 0.17829947 
-0.16292046 0.7148222 0.6800634 
0.40851843 0.508845 0.757753 
0.45713177 0.535298 0.71027225 
0.12069134 0.09174376 0.9884416 
-0.42448646 -0.5874347 0.6890079 
0.5260661 0.6774242 0.51415074 
0.11479723 0.4214353 0.89956325 
-0.1014439 0.6499868 0.7531443 
-0.14331199 0.859549 0.4905481 
0.0043864697 0.32734397 0.9448951 
-0.4502794 0.2977563 0.84177774 
-0.21373954 -0.024799298 0.97657585 
-0.44911742 0.79279083 0.41203925 
0.042187113 0.9719809 0.23124316 
0.31201681 0.93069685 0.1909161 
0.04518694 0.9445708 0.32518345 
0.50743693 0.85373175 -0.116833076 
0.8219008 0.2850307 0.49319044 
0.9406511 0.3207729 -0.11081667 
0.21360496 0.9422208 0.25805607 
0.45013288 0.8441589 0.2911636 
0.8324993 0.029265665 0.55325264 
-0.22670293 0.97350544 0.029882248 
0.66421545 0.36424434 0.6527971 
0.41257298 0.5005943 0.76104474 
0.023824072 0.57299125 0.81921524 
-0.14074047 0.5812049 0.8014942 
-0.8665377 0.34278944 0.36277786 
-0.7408205 0.6615312 -0.11645344 
-0.8106578 0.44338456 -0.38241884 
0.26564935 0.8623721 0.43098125 
0.3806472 0.5352667 0.7540539 
0.03689629 0.4682379 0.88283175 
0.40148777 -0.14712809 0.90396965 
0.083007775 0.14507677 0.98593235 
-0.21925926 0.095491774 0.9709824 
0.18107662 0.8594922 0.47800055 
0.49779376 0.75740826 -0.42253286 
0.38077876 0.82543206 -0.41673654 
0.3362434 0.7441571 -0.57720935 
0.13908172 0.98723143 -0.07765531 
0.6086127 0.39901537 0.6858406 
0.5255831 0.2841049 0.80190206 
0.40213948 0.39056975 0.8280938 
0.3742259 0.23757961 0.89638776 
0.81209105 0.38164076 0.44142783 
0.57484144 -0.20994262 0.7908739 
0.50347435 0.22241597 0.83489203 
0.107833385 0.7067859 0.69916075 
-0.21150629 0.9504558 0.22781348 
0.15504962 0.98249567 -0.10325644 
0.245687 0.74252474 0.6231332 
0.056367196 0.5767699 0.8149597 
-0.08972282 0.29151943 0.95234776 
-0.3247749 0.43478787 0.839929 
-0.6161198 0.57872814 0.53429407 
-0.41711074 -0.36925328 0.8304642 
0.40709215 0.69738793 0.5898527 
-0.08232913 0.81616265 0.5719272 
0.7911914 0.59681845 0.13350645 
0.29630467 0.9425061 0.15455079 
-0.20569235 0.39020273 0.89745885 
0.3705259 0.37739462 0.84869546 
0.08093886 0.7197792 0.6894685 
0.4179317 0.77887946 0.46763217 
0.85193115 0.17233278 0.4944843 
-0.2468471 -0.15810964 0.95606905 
0.21364895 0.07343164 0.97414684 
-0.27017546 0.091601044 0.95844376 
-0.044142235 0.32988143 0.9429898 
-0.46581334 -0.032270543 0.88429445 
-0.6306836 0.37866977 0.67738277 
-0.6034244 0.7903744 0.105770394 
-0.15726884 0.96438026 0.21269044 
-0.28097454 0.43335137 0.856306 
0.08871495 0.6727054 0.73457277 
0.06543133 -0.009044505 0.9978161 
0.46218577 0.55237234 0.69373566 
0.56363213 0.21373643 0.7978946 
0.0069291354 0.76382357 0.6453878 
0.065788694 0.83772445 -0.542116 
-0.15749757 0.97466135 -0.15883929 
0.22220711 0.97449934 0.031227611 
0.629674 0.68629265 0.36402345 
-0.087477036 0.8687466 0.48747024 
0.6742275 0.4732669 0.56695306 
-0.020058922 0.012004578 0.9997268 
-0.111270964 0.29133573 0.95012754 
-0.17595637 0.21784014 0.9599923 
-0.42588606 0.4540014 0.7826262 
-0.5655802 0.31678662 0.76142323 
-0.61238986 0.766667 0.19287409 
-0.3180775 0.31674993 -0.8935861 
-0.16082306 0.94130826 -0.29677376 
0.07018233 0.45458576 -0.88793373 
-0.53495127 0.8422696 -0.06640213 
0.20541641 0.4139292 -0.8868297 
0.94452304 0.32777172 0.021021087 
-0.1379384 0.46143702 0.876384 
0.09813482 0.9899209 0.102109335 
0.70620745 0.5436434 0.45356682 
0.21950498 0.51413083 0.82914853 
-0.4923138 0.30112827 0.81666946 
-0.023060294 -0.34436446 0.9385528 
0.5126246 0.08140861 0.8547449 
-0.075708896 0.21612632 0.97342575 
-0.19921824 0.5335163 0.82199305 
0.045519873 0.27819934 0.95944417 
0.39279768 0.34149867 0.8538669 
0.017887302 0.46562597 0.8848009 
0.37145257 0.43466836 0.82041854 
0.5125098 0.5897399 0.6241318 
-0.17927378 0.7646598 0.6189963 
0.5184639 0.43713978 0.7349177 
-0.6605976 0.5059617 0.55462927 
-0.9207818 0.37344527 -0.11269257 
-0.6187362 0.40866688 0.6709374 
-0.44267803 0.82136077 0.35972577 
-0.5710059 0.7424281 0.35036093 
-0.25249064 0.9629723 -0.09451396 
0.0057959035 0.82052904 0.5715756 
-0.5885155 0.8014822 0.10618808 
-0.044475503 0.97668356 -0.2100268 
0.24918716 0.6857182 0.68388337 
-0.58353364 0.12479696 0.8024427 
0.029715931 0.48287758 0.8751835 
0.09417828 0.4414201 0.89234453 
-0.29723492 0.7447787 0.5974581 
-0.0019388229 0.5061606 0.8624371 
0.23203835 0.50373906 0.83210886 
0.6497143 0.2977744 0.69942963 
0.50223553 0.0055070254 0.86471343 
0.6753528 0.6525667 -0.34359184 
0.7730762 0.5455332 0.32364628 
0.07872476 0.6931276 0.716503 
0.3849875 0.91337216 0.13242386 
0.31295294 0.94976634 0.0021058754 
0.597633 0.7317313 0.32772586 
0.17114024 0.26111203 0.9500166 
-0.20835356 0.72374284 0.65786415 
-0.31771904 0.9223753 0.21972339 
-0.13965864 0.7951725 0.5900814 
0.15508595 0.6300178 0.7609376 
0.34120214 -0.21660522 0.914693 
0.49151975 -0.020006975 0.87063664 
-0.58429235 0.73610854 0.3416822 
-0.24971959 0.9635192 0.09628523 
-0.27969182 0.8680109 0.4102801 
0.3123413 -0.21018139 0.9264269 
-0.08044181 -0.12373856 0.9890491 
-0.3493045 -0.52696866 0.77478415 
0.5847475 0.3977134 0.70703214 
0.3650239 0.041184157 0.93008685 
-0.25671452 0.32339984 0.9107745 
0.68782353 0.09920761 0.71906656 
0.85278887 -0.17307529 0.49274355 
0.5745391 0.7865646 0.22632024 
0.5088367 0.7209794 0.4703977 
0.27659205 0.22989312 0.9330842 
-0.09767247 0.3222883 0.9415893 
-0.121289976 0.87776506 0.4634838 
0.7117657 0.55878705 0.42561328 
-0.33339018 0.9212505 0.20037116 
0.24291337 0.7213902 0.6485286 
-0.6388482 0.5575749 0.5300785 
0.047371704 0.62625873 0.7781747 
0.8837925 0.43915105 0.161423 
0.57776487 0.008819786 0.81615555 
-0.06765392 -0.014614696 0.99760187 
-0.20065755 0.3285766 0.922916 
-0.32309207 0.8614836 0.3917366 
0.021735216 0.43431392 0.9004993 
-0.3708656 0.4682548 0.80199516 
-0.21915993 0.32767877 0.9190188 
-0.33577162 0.008288967 0.94190705 
-0.17390135 0.104931556 0.9791566 
-0.2085249 0.20730549 0.9557939 
-0.34334308 0.51059633 0.7882937 
-0.7341106 0.6690561 -0.11595496 
-0.07437724 0.9972183 -0.0048794486 
0.43294573 0.89512426 0.106350645 
0.47936162 0.4956609 0.7242464 
0.6751144 0.4161642 0.6091207 
0.43592605 0.85168487 0.2908631 
0.5215298 0.47436035 0.70921713 
0.14246586 0.17980811 0.97333074 
0.11279615 0.9780443 0.1752326 
0.17536962 0.76486087 0.6198657 
0.20382807 0.3075956 0.9294294 
0.3445466 0.6565825 0.6709599 
0.26654646 0.62780994 0.73130554 
-0.061459206 0.14169878 0.98800015 
-0.5937658 0.33401892 0.73203385 
0.21141656 0.5418303 0.8134637 
-0.19041479 -0.33108053 0.9241904 
-0.36211532 -0.04577391 0.93100876 
-0.0028180256 0.43602318 0.899931 
0.20070496 0.7562687 0.6227161 
-0.439182 0.6436954 0.6267179 
-0.30834368 0.7452537 0.5912032 
-0.498985 0.68203706 0.53463954 
-0.29180825 0.9555457 0.042194135 
-0.62133855 0.7827969 0.034167096 
0.015620304 0.52424216 0.85142595 
-0.33949 0.81937706 0.46191758 
-0.2524235 0.034155767 0.96701384 
-0.25966272 0.44317764 0.85800296 
-0.6222604 0.7647491 0.16718549 
-0.21258035 0.8786668 0.42749777 
0.0030909565 0.9594913 0.28172147 
-0.9986665 0.0430625 0.028475642 
0.11172485 0.7444208 0.65829724 
0.65761054 0.3737163 0.65412885 
-0.42629632 0.17520843 0.88745344 
-0.73025167 0.32002625 0.6035857 
-0.29095808 0.16084537 0.94311833 
0.20577307 0.20921102 0.95597506 
-0.017981438 0.52878237 0.84856707 
0.015600765 0.98662513 0.16225788 
-0.12125425 0.61967516 0.77543557 
0.49761283 0.19255085 0.8457575 
0.6616434 0.42000812 0.6211452 
0.25343135 0.6475416 0.71865326 
0.22666037 0.5505038 0.8034741 
0.06560808 0.9976714 -0.0186409 
-0.6660624 0.74588203 -0.0045641237 
-0.21427429 0.970543 -0.11014945 
0.49735716 0.8608255 0.10777543 
0.10197698 0.8676928 0.48652855 
0.32864776 0.8657708 0.37740105 
-0.0722899 0.99429613 -0.07841784 
-0.2810774 0.45872062 0.8429538 
-0.35155055 0.22951283 0.9075991 
0.28513405 -0.5933516 0.75275004 
0.47036812 -0.13255991 0.87245727 
-0.15249032 -0.30283672 0.9407639 
0.15769859 0.17110062 0.9725512 
0.49067214 0.3866218 0.78087425 
0.28202462 0.6284056 0.7249611 
0.3968544 0.88707364 -0.23581155 
0.49793392 -0.60593396 0.6204079 
0.9394574 -0.29278523 0.17803581 
0.11271298 0.33514905 0.9353989 
0.37049446 0.72596824 0.57939976 
0.7789007 0.23925781 0.57971495 
0.3552629 -0.078497805 0.9314646 
-0.24688578 0.20725702 0.9466214 
-0.12938039 0.52519953 0.84108627 
0.04355627 0.5677759 0.82203 
0.09775488 -0.11608493 0.9884171 
-0.24272892 0.17529836 0.9541244 
-0.009114795 0.14638196 0.98918617 
-0.1426042 0.25662535 0.95593286 
-0.27778682 0.5956338 0.7536942 
0.2191766 0.7087846 0.67051184 
-0.075723365 0.33377963 0.93960476 
0.00982 0.72646064 0.68713796 
0.5666908 0.52073056 0.638515 
0.14262559 0.6601395 0.7374781 
0.33257592 0.41800618 0.84537804 
-0.4456517 0.6007129 0.6637309 
0.021507416 0.90829164 0.41778427 
-0.22234374 0.97083884 0.08963931 
-0.16560328 0.800394 0.5761467 
-0.19436768 0.4356575 0.87887645 
-0.586459 0.6127426 0.52972865 
-0.41317925 0.28078407 0.8662813 
0.53209853 -0.10639448 0.8399711 
0.29209113 0.43488806 0.8517954 
0.341353 0.69347644 0.63448304 
0.06387602 0.7609316 0.64568025 
0.38875327 0.5339477 0.75084674 
-0.46657044 0.391339 0.79319984 
0.41547322 0.51285315 0.75124156 
0.20555891 -0.0040177167 0.97863656 
-0.4165015 0.8005663 0.4308368 
0.08507576 0.6244006 0.77645737 
-0.48149616 0.62447166 0.61497694 
-0.21269466 0.36865243 0.9049069 
0.41049853 0.42045578 0.80914026 
0.09913616 -0.012714063 0.9949927 
0.15691558 -0.18757269 0.969636 
0.33501858 -0.29268262 0.8956 
-0.74999076 -0.08799766 0.6555687 
-0.97269535 0.06547487 0.22265856 
-0.35502583 0.93485624 0.0007182218 
-0.05588475 0.6091784 0.7910617 
0.06964172 0.6706956 0.7384562 
-0.028278157 0.4907107 0.87086356 
0.5495371 0.25203666 0.7965466 
0.2766834 0.42493057 0.8619051 
-0.15691324 0.1947166 0.9682271 
-0.37323755 0.7875758 0.4903247 
-0.36912507 0.9291906 0.018751035 
-0.091222756 0.8926796 -0.44136348 
0.5247782 0.8425329 0.12143393 
0.16221693 0.95010185 0.26644352 
-0.10346005 0.6662045 0.7385578 
0.53973436 0.15167497 0.8280589 
0.6777276 0.57478887 0.45858815 
0.95168525 0.20942867 0.224577 
0.91848314 0.33379784 0.21205641 
0.8539058 0.1265216 0.50481397 
0.8241276 0.22368073 0.52036595 
0.44751954 0.62212473 0.6424073 
0.34050336 0.7113814 0.61481225 
0.32347247 0.8436301 0.42854854 
-0.12534657 0.9174559 0.37757513 
-0.05022415 0.75547564 0.653249 
-0.21621297 0.21517032 0.9523412 
-0.3736706 0.44714704 0.81266826 
0.035651766 0.32505074 0.9450243 
-0.15681817 -0.43672904 0.8858194 
-0.3248064 0.22439155 0.918776 
-0.033836156 0.5855254 0.8099476 
-0.23520233 0.8707421 0.43184277 
-0.4419626 0.39833573 0.8037398 
-0.47495976 0.40484264 0.7813551 
0.029235998 0.63516957 0.77181923 
0.29663375 0.639252 0.70948243 
0.3339116 0.54708755 0.76759255 
0.24210684 0.48461044 0.84055763 
-0.13823426 0.13464016 0.9812051 
0.106660165 0.1335997 0.985279 
-0.25545016 0.37538713 0.89097124 
-0.11127957 -0.05752787 0.99212277 
0.26754147 0.015864557 0.96341574 
-0.054825585 -0.3397565 0.9389142 
0.18343179 0.6349869 0.7504295 
0.6225427 0.3513543 0.69927883 
0.019141622 0.21178415 0.977129 
-0.027230859 0.12986085 0.9911583 
0.2291083 0.53016514 0.8163543 
-0.18711174 0.35165092 0.917241 
-0.05761532 0.61530215 0.78618306 
0.48086274 0.30150366 0.8233266 
0.17594704 0.984399 -0.001140178 
0.39508983 0.7091664 0.583941 
-0.05960057 0.907869 0.41499606 
-0.29294893 0.5930653 0.74996966 
0.19669844 0.9656838 0.16960144 
0.6336583 0.5230332 0.57001185 
0.37054592 -0.32611397 0.86968124 
-0.10845684 0.041932512 0.9932164 
0.31315732 0.14899528 0.93794084 
-0.7868634 0.21544787 0.5782978 
0.19529028 0.5396572 0.8189211 
-0.4717896 0.3423723 0.8125244 
-0.49990192 0.81134534 -0.30301312 
-0.30048126 0.8024087 0.51560783 
-0.37649363 0.832123 0.40721494 
-0.33541104 0.75032187 0.56966364 
0.17141499 0.90215 0.3959071 
0.5086097 0.32908982 0.79562306 
0.34792617 0.077213176 0.9343369 
0.7401413 0.5457568 0.39286202 
0.5536196 -0.08107735 0.8288135 
0.6342974 -0.2601729 0.7279952 
-0.06491504 -0.029110571 0.99746615 
0.39255387 -0.27719393 0.8769635 
-0.05662377 -0.29216498 0.9546902 
0.052366633 0.38183612 0.9227454 
-0.045227434 0.6354673 0.7708021 
0.34766972 0.5026652 0.7914882 
0.6266835 -0.07876178 0.77528346 
0.21994069 -0.0278015 0.97511697 
-0.47529927 -0.117053874 0.8720029 
-0.17835324 0.010564996 0.98390985 
0.5063676 0.47683233 0.7184865 
0.4415308 -0.042428467 0.89624244 
0.13326323 -0.20844397 0.96891284 
-0.6039577 0.4469665 0.65989095 
-0.72654504 0.02914985 0.68650025 
-0.14427263 0.8350874 0.5308619 
0.18930314 0.6348667 0.74907184 
-0.0633718 0.7015828 0.7097645 
-0.41129574 0.8013221 -0.43441755 
0.029896237 0.9523448 0.3035551 
-0.84198785 0.5084793 0.18029287 
-0.0769811 0.28516507 0.95538205 
-0.7382003 0.055376865 0.6723048 
0.31791374 -0.16711432 0.9332758 
0.4107781 0.54870665 0.7281363 
0.058204226 0.5233425 0.85013235 
-0.07221925 0.49905783 0.86355406 
0.5379254 0.44353718 0.716876 
0.52551734 0.027388873 0.8503419 
0.92853016 0.35293815 0.115180545 
0.6876481 0.6147534 0.38628796 
0.25124186 0.81296796 0.52531976 
-0.10059095 0.44995868 0.88736624 
-0.60282093 0.55770206 0.57059216 
-0.1462552 0.9849936 0.091635585 
0.7251972 0.4306727 0.53722453 
0.7830183 0.48797297 0.38570043 
0.6470132 0.59107983 0.48166236 
-0.71431524 0.10969072 0.69117415 
0.09825678 0.988151 0.11791195 
-0.015065646 0.6906322 0.7230493 
-0.17231764 0.7128961 0.6797689 
0.55307233 0.37280768 0.7450675 
0.025995495 0.26695684 0.9633578 
-0.50632465 0.4350087 0.74458236 
0.22391811 0.5003958 0.83634007 
0.8359611 0.15423182 0.52667034 
0.0829246 0.06828745 0.99421346 
-0.3363524 -0.3113224 0.8887887 
-0.19728298 0.58002734 0.7903467 
0.14450796 0.0030754975 0.98949885 
-0.41986 -0.612798 0.66947466 
0.5387525 -0.54282355 0.64427364 
0.42903563 -0.52381444 0.7358987 
0.18607038 -0.085954174 0.9787695 
0.5199458 0.24683909 0.8177573 
-0.041836318 0.23026544 0.97222817 
-0.394787 -0.101185 0.9131839 
-0.16554148 0.4891063 0.856371 
-0.6325065 0.44120833 0.63660884 
0.00015993163 0.51053405 0.8598575 
-0.21784225 0.80172694 0.5565778 
-0.33624485 0.49550903 0.80088097 
0.40054044 0.45321688 0.7963428 
0.591542 0.5469306 0.5924062 
0.47951058 -0.21316583 0.851252 
0.06763508 0.16565622 0.9838616 
0.46625626 0.30073982 0.8319619 
-0.33896384 0.025145205 0.9404633 
-0.3309613 -0.36367825 0.87074846 
-0.62286085 0.03610036 0.7814993 
0.37253386 0.36870405 0.8516313 
0.16404146 0.038408075 0.9857055 
-0.109563336 0.32292405 0.9400617 
-0.32783976 0.37049562 0.8690536 
-0.3160405 -0.036720727 0.9480349 
0.23206492 0.67220825 0.7030519 
0.08093938 0.9485495 -0.30610877 
0.51529837 0.82740635 0.22330764 
0.8196965 0.53227913 0.21160474 
0.61290723 0.2260875 0.757119 
0.68135786 0.695668 0.22759077 
0.10595352 0.16774124 0.9801208 
-0.22753398 -0.030838752 0.9732817 
0.5317473 -0.053270686 0.84522605 
0.21672007 0.33506078 0.9169333 
0.7073719 0.14684694 0.69141954 
0.385413 0.51608497 0.76492697 
-0.061490845 0.5934236 0.80253816 
-0.043149307 -0.34584397 0.93729943 
0.016844353 0.13232596 0.9910631 
-0.046522155 0.58527124 0.8095019 
-0.3023288 0.22880006 0.9253367 
-0.25495225 -0.3127538 0.9149778 
0.0520093 0.116010666 0.9918854 
-0.3384577 0.49268124 0.8016929 
-0.17665249 0.9824277 -0.060246337 
0.026512789 0.9856848 -0.16650091 
-0.4088451 0.8953428 0.17665511 
-0.5422123 -0.30325833 0.7836072 
-0.9755138 0.20313771 0.0843078 
0.10003344 0.31215683 0.9447495 
-0.093502104 0.3126434 0.94525737 
-0.25553676 0.6228145 0.7394614 
-0.3613069 0.4456051 0.8190808 
-0.29807547 0.49013504 0.81909627 
0.42187414 0.47217175 0.77400005 
0.10216149 0.9693415 0.22347309 
-0.532722 0.51832104 0.6689923 
-0.092059 -0.40779456 0.9084211 
-0.4356011 0.1309561 0.8905629 
-0.1587086 -0.31949607 0.93420225 
-0.15613091 0.16777039 0.97338396 
0.6821775 0.5029198 0.5307595 
0.33724234 -0.11691702 0.93412966 
0.5717825 0.64031976 0.5128892 
-0.14051418 0.5589181 0.8172308 
0.12457637 -0.23247732 0.9645906 
0.27015364 0.18805884 0.9442727 
0.14944881 0.32894164 0.9324498 
-0.30698436 0.58910716 0.74747133 
-0.51193637 0.85656923 0.064886734 
-0.42105064 0.88404006 -0.20295182 
-0.5411878 0.82355154 0.16993748 
0.13695191 0.9729781 0.18589759 
0.010208777 0.7736264 0.6335598 
-0.21780607 0.4737133 0.8533208 
0.056059785 0.8832371 0.4655635 
-0.26996619 0.50368637 0.8206208 
-0.832053 0.54717577 0.091030374 
-0.23411371 0.012721706 0.972126 
0.0670471 -0.40637982 0.91124105 
-0.062079597 0.18792719 0.9802191 
-0.016884869 -0.80377066 0.5946998 
0.11670231 -0.2725051 0.9550505 
-0.40630063 -0.10543884 0.9076356 
-0.19046175 0.14213526 0.9713506 
0.10249078 0.91461915 0.39111075 
0.88281864 -0.2643576 0.38826072 
0.51218164 0.6687008 0.5389891 
0.09737619 0.63484174 0.7664815 
-0.09470512 0.4937432 0.8644354 
0.35952133 0.5586997 0.7473949 
0.5999155 0.7420226 0.2991721 
0.7163244 -0.1316314 0.6852391 
0.6846482 -0.14140503 0.7150255 
0.09643243 -0.042293284 0.9944406 
0.4905644 0.17125195 0.85441166 
0.033257093 0.3920769 0.9193311 
-0.15372138 -0.06610637 0.98590046 
-0.07413726 0.06198363 0.99531996 
-0.27141392 0.36348495 0.8911864 
-0.5743802 0.5808197 0.57683265 
-0.47750202 0.46523944 0.7453484 
-0.13183124 0.87312436 0.469334 
0.4376058 0.20172793 0.876246 
-0.336441 0.55440944 0.761208 
-0.07157453 0.74160427 0.6670084 
-0.32985085 0.6133746 0.7176142 
-0.20873581 0.49703455 0.8422506 
-0.7098908 0.38004586 0.59297585 
0.23134105 0.6119153 0.75633395 
0.09574639 0.755336 0.64830565 
-0.22114058 -0.1652978 0.9611314 
0.19400312 0.07065001 0.97845364 
0.16383888 -0.40862456 0.89787686 
-0.14947525 0.31722182 0.93649745 
0.034221444 0.25149482 0.96725357 
0.08063158 0.9932631 0.08322843 
0.3505069 0.63717425 0.68640655 
-0.36512777 0.5282081 0.7666015 
-0.17567582 0.9213886 0.34667137 
-0.51232654 0.56957215 0.64273566 
-0.43377 0.7763222 0.45734844 
0.13340734 0.71502435 0.68625265 
0.47581953 0.3933731 0.78667235 
-0.11731815 0.53174764 0.8387378 
0.5178438 -0.012449239 0.8553846 
-0.009953843 -0.17978996 0.98365474 
-0.4035635 -0.3031299 0.86327803 
-0.1909383 -0.003942269 0.9815942 
-0.8871925 0.46054116 -0.028132413 
-0.52570814 0.743661 0.4130367 
-0.4531232 0.33332187 0.8267866 
-0.33426273 0.49475855 0.80217355 
-0.49268925 0.54584295 0.67772627 
0.2649897 0.4967785 0.82643306 
0.50530213 -0.10686306 0.8563003 
0.23688696 0.28766954 0.9279714 
-0.3030836 0.046239767 0.95184153 
-0.6776267 0.123080805 0.7250333 
-0.38999176 0.75128376 -0.5324275 
0.06309936 0.8827573 -0.46557286 
0.514332 0.8348224 -0.1963013 
0.6314378 0.63880503 0.43956184 
0.14913362 0.7109821 0.68721443 
0.3088247 -0.643785 0.7001201 
0.9194133 -0.39231595 0.027702995 
0.8650883 0.4887976 0.11269132 
0.84392625 0.5038291 0.1842409 
0.7314996 0.515644 0.44611624 
0.61148006 0.30820158 0.7287688 
0.43450648 0.027407208 0.9002517 
0.38863552 0.03948678 0.9205451 
0.32453164 -0.09536898 0.9410547 
0.4243762 0.49913475 0.75549287 
-0.0069794394 0.5662499 0.82420415 
-0.56808305 0.49931878 0.6541884 
-0.0141604 0.47654244 0.8790375 
-0.32814503 -0.10483819 0.9387917 
-0.13481683 -0.33024073 0.9342192 
0.0010041097 -0.31046835 0.9505833 
-0.09881459 0.12060542 0.9877703 
-0.38893595 -0.3950794 0.83225065 
-0.3245615 0.4468336 0.8336663 
0.8611241 0.13158195 0.49107188 
0.5845653 0.4923027 0.6449199 
-0.07172303 0.8172164 0.5718507 
-0.4566061 -0.14672415 0.8774868 
-0.07302477 0.08424653 0.99376553 
0.3284699 -0.27059233 0.904924 
0.2650325 -0.0072492776 0.9642123 
0.01821973 0.14454612 0.98933035 
0.33343917 -0.55832094 0.7596684 
-0.41801313 0.057105567 0.90664434 
0.16000581 0.97083783 0.17852761 
0.07686318 0.84942234 0.522086 
-0.031441197 0.71550065 0.6979042 
0.35478973 0.04432179 0.93389505 
-0.67057467 -0.12798183 0.7307191 
0.14559984 0.8205129 0.5527743 
-0.33245546 0.48255572 0.81031686 
0.004634357 0.49363446 0.86965716 
0.21542424 0.7133402 0.666887 
-0.046138305 0.48289296 0.87446314 
-0.09344873 0.708575 0.69942045 
-0.503974 0.7742006 0.38291466 
-0.06312838 0.65352416 0.75426847 
0.32818896 0.4518435 0.8295358 
0.3048082 -0.3811076 0.87283957 
-0.09331128 -0.05347111 0.9942001 
0.07648148 0.19424413 0.9779672 
-0.1377853 0.12733662 0.9822427 
-0.11589138 -0.18228187 0.9763927 
0.2815299 -0.00711635 0.9595261 
-0.34972894 0.5578436 0.7526621 
-0.41194525 0.8100559 0.4172655 
-0.77993613 0.5393228 0.31753826 
0.16077629 0.8885567 0.4296721 
-0.010918814 0.72956884 0.68382037 
0.15424164 -0.2206893 0.963071 
0.49199182 -0.051163625 0.86909515 
0.3822589 -0.4945007 0.780607 
0.8406114 -0.18255942 0.50994563 
0.34288082 -0.023531048 0.93908423 
0.18649009 -0.77322036 0.6060955 
-0.103722714 -0.66873103 0.73623395 
0.09778246 -0.43714175 0.8940614 
0.15933514 -0.37599176 0.91282123 
-0.5325506 0.22953384 0.81468046 
-0.88524663 -0.2890073 0.36443534 
-0.5685471 -0.4133276 0.71127665 
0.65365213 -0.032024708 0.7561173 
0.16194576 -0.53387946 0.8299074 
0.31494358 0.054427374 0.94754857 
0.39291254 -0.39640725 0.8297476 
0.22097015 -0.4397214 0.87052715 
-0.537379 0.12906638 0.83340615 
-0.5224173 0.34202585 0.7810881 
-0.7199041 0.19510056 0.66608846 
-0.67512715 0.45844862 0.5779518 
-0.50460744 0.6929995 0.51490116 
0.046672657 0.62786907 0.7769183 
-0.87607706 0.48211282 0.007514613 
-0.19321805 0.9585088 0.20958975 
-0.53038913 0.77092063 0.35265952 
-0.6390472 0.76881593 0.023257207 
-0.023581566 0.18762691 0.9819573 
-0.012127518 0.88715535 0.4613117 
-0.16403945 0.13729987 0.976852 
-0.755386 -0.08785645 0.6493638 
0.79055125 0.4156333 0.44975302 
0.2574333 0.47757933 0.8400276 
-0.19078264 0.79054546 0.5819279 
0.03653057 0.7207846 0.6921959 
-0.3050449 0.52080405 0.7973148 
0.15704294 0.69600457 0.7006535 
0.193776 0.39651805 0.89734304 
-0.41729975 0.42564294 0.8029253 
-0.73323077 0.65006536 -0.19946839 
-0.21987635 0.9386887 -0.26555213 
-0.08707597 0.41397065 0.906116 
0.13480067 0.56377083 0.81485665 
0.38273916 0.82402724 0.41772 
-0.08417083 0.45222062 0.8879256 
-0.32848406 0.40131432 0.85501176 
0.114512205 0.294981 0.9486165 
0.0446837 -0.15199956 0.9873701 
0.32360005 0.2290936 0.918041 
-0.01024348 0.8630101 0.505083 
0.06457394 0.4839749 0.8726962 
-0.083508916 0.67613 0.73203456 
0.47981 -0.09022739 0.8727208 
0.016567897 -0.073701225 0.9971428 
0.115650065 -0.5811747 0.80551916 
-0.5083116 -0.4434289 0.73823446 
-0.81169415 -0.58097595 -0.060163535 
-0.41455024 0.9100028 -0.006571205 
0.75355965 -0.05115491 0.65538615 
0.9233369 0.03465902 0.38242373 
0.6033162 -0.13999458 0.7851185 
-0.16926283 -0.41082206 0.89586574 
-0.053676702 -0.25075078 0.9665624 
0.41742063 0.009905818 0.9086595 
-0.16768564 0.6018578 0.7808001 
-0.7623281 -0.25686327 0.59403473 
-0.41083223 0.57900727 0.7042497 
-0.6662346 0.018420279 0.7455147 
0.13893896 0.97608817 0.16717634 
-0.10929238 0.7683224 0.63066316 
0.053060025 0.8248544 0.56284994 
-0.08559787 0.7855016 0.61291134 
0.32145533 0.69036543 0.648122 
0.51980054 0.4320689 0.73696935 
-0.021848649 0.8225148 0.568324 
-0.406643 0.8632097 -0.29918304 
-0.38606626 0.4454168 0.8078099 
0.21542801 0.26676363 0.9393764 
0.74887407 -0.44143346 0.4942917 
0.2984875 0.19973594 0.93327963 
0.11055703 0.41067946 0.90505224 
0.799623 0.054026503 0.5980671 
0.41428256 0.6055845 0.6794391 
0.49998984 0.8331325 -0.23643255 
0.8735294 0.4830276 0.060256213 
0.7761317 0.49683636 0.3882953 
-0.090327315 0.19005936 0.97760856 
0.17855774 0.7053978 0.6859527 
-0.2893347 0.4475452 0.8461612 
0.06467746 0.019517772 0.9977154 
0.31736457 -0.131332 0.9391655 
-0.66806024 0.19855694 0.7171267 
0.3830461 0.47764057 0.7906549 
0.5785373 0.12902908 0.80538577 
-0.08462396 0.7443995 0.6623506 
0.1774633 0.36001602 0.9159122 
-0.3532322 0.43725505 0.8270642 
-0.465429 0.3158794 0.8267986 
-0.1118495 0.76790565 0.63072234 
-0.6508601 0.07174597 0.75580007 
-0.90997416 0.1310174 -0.39342287 
-0.6195962 0.7765149 0.114565596 
0.21621041 0.8953123 0.38944706 
-0.34379688 0.89955 0.26946875 
0.14161949 0.33562508 0.9312893 
0.23128556 -0.029921379 0.97242576 
-0.4049115 0.56068474 0.72227377 
-0.39054856 0.30499563 0.8685905 
-0.25600952 -0.40059993 0.87976074 
-0.63970155 0.33896288 0.6898451 
-0.40820673 0.6130993 0.67637014 
0.07206815 -0.08700761 0.99359745 
-0.101473205 0.3222497 0.9412005 
-0.33296776 0.6914591 0.641106 
-0.32185888 0.8441019 0.42883432 
-0.04453036 0.72256273 0.6898697 
-0.5878486 0.1968205 0.7846629 
0.09739263 -0.24167675 0.9654569 
-0.23365119 0.051311396 0.9709656 
0.30476233 -0.11539982 0.94541144 
0.3272569 0.008690097 0.9448955 
0.64492935 0.17754044 0.7433341 
-0.2685389 0.19553147 0.94321495 
0.27322403 -0.70294094 0.6566755 
0.4563813 -0.4923905 0.741126 
0.05356227 -0.12384032 0.9908555 
-0.09841741 0.24096106 0.96553195 
-0.36611322 0.8257464 0.4290734 
0.08754362 0.9664477 0.24148493 
-0.29618478 0.68823415 0.66227514 
0.16350733 0.98635757 -0.019082762 
0.10236005 0.9317298 0.348428 
-0.0050554816 0.821743 0.5698359 
0.0037341272 0.99993366 -0.010894596 
-0.36824173 0.61728716 0.69523716 
0.060987968 0.91490734 0.3990302 
-0.5304673 0.0810544 0.8438214 
-0.07265845 -0.5975748 0.7985143 
0.22084413 -0.097530276 0.9704204 
0.0198805 -0.029676598 0.9993619 
-0.25473258 -0.15481867 0.9545378 
0.19890071 0.1716442 0.96487135 
0.35094208 0.59608454 0.72216547 
0.5091096 0.4253211 0.748271 
0.5064687 -0.33932486 0.7926841 
-0.11542073 0.50131494 0.8575322 
0.25720927 0.043836027 0.96536106 
0.16580158 0.4102498 0.89677477 
0.17500408 0.6638699 0.72708344 
0.24557722 0.8952873 -0.37168896 
0.9579623 0.25941575 0.122522615 
0.6320702 0.43655154 0.6402423 
0.12119118 0.2242824 0.96695924 
0.2847263 -0.08694997 0.9546573 
0.61606616 0.27952752 0.7364285 
-0.35330382 -0.15005466 0.923396 
-0.28715163 -0.09830558 0.9528274 
0.09526631 -0.23858082 0.96643865 
0.27817473 0.33973846 0.8984412 
0.26979116 0.468266 0.8413916 