# OOMMF: rectangular mesh v1.0
# Segment count: 1
# Begin: Segment
# Begin: Header
# Desc: Time (s) :  2.2000000000000002e-08
# Title: m
# meshtype: rectangular
# meshunit: m
# xbase: 2e-09
# ybase: 2e-09
# zbase: 5e-10
# xstepsize: 4e-09
# ystepsize: 4e-09
# zstepsize: 1e-09
# xmin: 0
# ymin: 0
# zmin: 0
# xmax: 1.024e-06
# ymax: 1.024e-06
# zmax: 1e-09
# xnodes: 256
# ynodes: 256
# znodes: 1
# ValueRangeMinMag: 1e-08
# ValueRangeMaxMag: 1
# valueunit: 
# valuemultiplier: 1
# End: Header
# Begin: Data Text
-0.20379366 0.7199266 0.663456 
-0.039449856 0.6338652 0.7724369 
0.52904856 0.44681868 0.7214297 
0.29675633 0.46026886 0.83671284 
0.44691154 0.5422494 0.7115025 
0.7836233 0.49547887 0.37474722 
0.116107374 -0.096192285 0.9885677 
0.12684344 0.08268558 0.98847055 
0.8328881 -0.013727105 0.5532713 
0.33802286 0.30351293 0.8908538 
0.06923599 0.30794024 0.9488832 
0.14155564 0.6190512 0.772488 
-0.017545478 0.3107779 0.95032066 
-0.271606 0.5629265 0.7806049 
-0.9505762 0.21851376 -0.2205829 
0.20363325 0.97207046 0.116673484 
0.07961382 0.81363934 0.57589287 
-0.20572138 0.5899479 0.78079456 
-0.118326105 0.35395226 0.9277483 
0.15110806 0.74329805 0.65167046 
0.54731125 0.8193526 0.17062183 
0.5932907 0.7712432 0.23063 
-0.107545264 0.9754502 0.19217451 
-0.14903711 0.9390122 0.30990985 
0.0078004817 0.99996537 0.0028981613 
-0.17136684 0.5842986 0.7932393 
-0.6634228 0.52843636 0.52974075 
-0.7198702 0.4925211 0.48909095 
0.32732517 0.5909325 0.73733103 
-0.13795938 0.92300117 0.35921592 
-0.15868291 0.65349877 0.74010754 
0.37521508 0.3438514 0.860802 
0.84735036 0.0634827 0.52722603 
0.2280043 -0.014808016 0.9735475 
0.2409901 0.47937092 0.8438764 
0.29071072 -0.13612016 0.94707906 
0.31681684 -0.72734267 0.6087691 
0.10229885 -0.08391299 0.99120814 
0.17519534 0.058514435 0.9827934 
-0.6711784 0.67327523 0.31019372 
0.5295143 0.76872647 0.35871217 
-0.596607 0.67993337 0.42632228 
-0.67622805 0.51175785 0.5299242 
0.041660566 0.7288784 0.6833746 
-0.27417186 0.4701163 0.83894014 
-0.060292516 0.7895337 0.61073846 
-0.5936426 0.76371306 -0.2536356 
-0.29238194 0.9529743 -0.079704694 
-0.29414374 0.8498917 0.43722263 
-0.70262843 0.19585462 -0.6840719 
-0.31721812 0.25252542 -0.9141136 
0.103714116 0.8906271 -0.44274917 
0.1716805 0.98458034 -0.033577166 
0.2230366 0.9586609 -0.17670289 
0.45621404 0.38190237 0.8037534 
0.4020071 -0.09842838 0.9103308 
0.52995175 -0.273068 0.8028606 
0.2517242 0.33163285 0.9092055 
-0.21049201 0.10862448 0.97154206 
-0.27067247 0.120307624 0.9551243 
-0.24467066 -0.158821 0.9565105 
-0.010843917 0.4219205 0.90656805 
-0.7279069 0.04229984 0.68437004 
-0.73824245 0.4825565 0.47131455 
-0.83340895 0.369043 0.41138393 
-0.252973 0.28235012 0.92535573 
-0.6376064 0.7585977 0.1341183 
-0.9429591 -0.055790525 0.3282007 
-0.9642301 -0.12119194 0.23573896 
0.25982338 0.508719 0.8207904 
-0.011859965 0.960207 0.27903754 
-0.10521634 0.84057194 0.5313835 
-0.37112728 0.90869063 0.19116992 
-0.0577313 0.7096111 0.70222443 
-0.14451472 0.97793114 0.15088478 
-0.25319389 0.7641567 0.59326005 
-0.5178656 0.75688285 -0.39867747 
-0.7023189 0.6960247 0.1493246 
-0.45161557 0.89213645 0.011664484 
0.055110775 0.7150177 0.6969309 
0.26890337 0.96251744 0.03537403 
0.3787744 0.49580318 -0.78147876 
0.58802027 0.6835694 -0.43239477 
0.64504904 0.60423696 0.4677709 
0.32557678 0.33109352 0.8856506 
0.23807439 -0.021578627 0.97100717 
0.11927583 0.62325376 0.77287 
-0.081657924 0.43460763 0.8969104 
-0.57188624 0.51166296 0.64120764 
-0.1139279 0.9908004 0.073041596 
0.4197291 0.16977176 0.8916306 
0.28819537 0.9132669 -0.28790107 
0.61449367 0.78395903 0.08835071 
0.6413293 0.48873538 -0.5914682 
-0.34161502 0.6159038 -0.70990264 
0.88650745 0.4476168 0.11723405 
0.71314305 0.33426055 0.6161955 
0.99307454 0.104453124 -0.053783726 
0.91485655 0.18488643 0.35896325 
0.7766797 0.4210892 0.4684577 
0.12012958 -0.32423264 0.9383188 
0.7533543 -0.4973486 0.4302344 
0.62763596 -0.5678462 0.5325636 
0.55070233 -0.2770673 0.7873759 
0.54887074 0.56402177 0.6169445 
0.8252858 0.09121133 0.5573005 
0.64846236 -0.24317856 0.7213604 
0.111361705 0.0480972 0.9926154 
-0.29142845 -0.07608485 0.9535621 
-0.5703915 0.15966 0.805706 
-0.51836884 -0.07685302 0.8516968 
-0.87900805 0.18191619 0.44073972 
-0.40388313 0.90752774 -0.11520371 
0.8506368 0.45308796 0.26669908 
0.6580568 0.7342147 0.16700321 
0.5677968 0.79438156 0.21578856 
0.43101665 0.2617817 0.8635363 
0.064678445 0.22529456 0.9721415 
0.45908943 0.24462397 0.8540469 
0.2944453 0.620228 0.7270621 
0.95481825 -0.19334678 0.22569712 
0.7639178 0.63524806 0.11353146 
0.4627879 0.7011252 0.54244894 
0.779281 0.6209807 0.08428607 
0.72835255 0.095381744 0.67853147 
-0.46545035 -0.292752 0.83525586 
-0.16357008 -0.37271944 0.91341406 
0.32270744 -0.15511148 0.93370247 
0.21346742 -0.30017447 0.929692 
-0.17831342 0.25074863 0.9514881 
-0.21213622 0.14337778 0.96666497 
0.06276159 0.33427224 0.9403845 
-0.24322097 -0.1061455 0.9641456 
-0.15089235 0.6919053 0.70604426 
-0.16540632 0.26061228 0.9511688 
-0.28056702 0.19539648 0.93973535 
-0.282298 -0.24441072 0.9276698 
-0.5598468 0.7633093 0.32238263 
0.5163742 0.62691736 0.58338016 
0.2766595 0.70647717 0.65142125 
0.07172305 0.73747736 0.67155266 
-0.36973158 0.7086899 0.60088044 
0.5970867 0.31623983 0.73721087 
0.072355494 0.79492193 0.6023818 
0.27120212 0.96252245 -0.00026486683 
-0.4595543 0.5396618 0.70539 
-0.36273256 0.42971885 0.82690203 
0.017999157 0.9894713 0.14360565 
0.37724987 0.92244303 0.08234959 
0.5847121 0.62803686 0.5134994 
0.72413754 0.07032289 0.68606097 
0.03043012 0.16198921 0.9863233 
0.43185756 0.25737423 0.86444074 
0.21991032 -0.0063076518 0.9754998 
0.46876127 0.07605922 0.8800443 
0.11673456 -0.122271456 0.98560786 
-0.69799083 0.033695903 0.7153135 
-0.43815097 0.64223576 0.6289332 
-0.31132543 0.19010162 0.93109506 
-0.6922239 0.4207735 0.5863239 
0.322097 -0.09700665 0.9417236 
0.6998168 -0.09977164 0.7073204 
0.72649 0.48163724 0.4901407 
0.13156618 0.95223504 0.27557012 
-0.1562348 0.90758127 0.38972706 
-0.22013238 -0.07162484 0.972837 
0.27744976 0.6350248 0.72094744 
0.014973275 -0.4787092 0.8778459 
-0.7576029 0.14599237 0.6361794 
-0.82072496 -0.46685195 0.32933262 
-0.6482162 0.20996381 0.7319365 
-0.33960837 -0.3223084 0.8836196 
-0.38004395 -0.7236681 0.5760826 
-0.87496763 -0.4331749 -0.21631303 
-0.8466519 0.5105978 0.14990126 
-0.46980885 0.20443566 0.85876995 
0.18235432 0.7248876 0.6642929 
0.07945609 0.72507125 0.6840749 
0.52537346 0.7353645 0.4280442 
0.06330828 0.7038526 0.70751935 
-0.21713553 0.59424484 0.7744193 
0.009237179 0.73125076 0.68204623 
-0.009902081 0.45798656 0.88890404 
0.41005865 0.18842582 0.8923831 
0.06171178 0.5702725 0.8191343 
-0.8528911 0.52164817 0.021447713 
0.40498146 0.8218175 -0.40075696 
0.62643147 0.47393307 -0.6188466 
0.47335762 0.8802178 0.03390159 
0.8173877 0.5743148 0.04516516 
0.09673229 0.7622638 0.6399975 
-0.13043125 0.76830894 0.6266491 
0.2573677 0.7327131 0.62999475 
0.027258156 0.5758275 0.81711674 
-0.9019863 0.18340814 0.3908736 
-0.6858316 0.056683615 0.7255495 
-0.4872551 0.48497376 0.7262114 
-0.5926546 0.47789398 0.64836556 
-0.67269367 0.5616695 0.48167488 
-0.8295135 0.5245555 -0.19170013 
-0.55578655 0.82259107 0.120188884 
-0.0040356447 0.9793588 0.20208949 
0.44665873 0.39950007 -0.80055964 
0.35575548 0.7485528 -0.55955946 
0.77699476 0.5808246 -0.24273829 
0.23650663 0.78020304 -0.5790923 
0.7073632 0.57830954 -0.4064425 
0.7830798 0.58254474 -0.21777916 
0.1674359 0.44017783 0.8821614 
-0.50744843 0.36074153 0.78253543 
0.2435731 0.96975935 0.015459026 
-0.19551945 0.8924799 -0.40651187 
0.39514598 0.8247012 0.40463257 
0.3991639 0.55480665 0.72997105 
-0.10802239 0.98985106 0.09233734 
-0.19548309 0.47092894 0.8602397 
0.03252115 0.99892396 0.03306758 
0.14146611 0.7836816 0.6048394 
0.5011491 0.8157942 0.28866845 
0.31655884 0.5164001 0.7956893 
-0.2325389 -0.13138895 0.9636715 
0.1505174 0.9117947 0.38206673 
0.74800926 0.5738469 0.3334395 
0.6655837 -0.19138505 0.7213669 
0.5902326 0.52345824 0.6145055 
0.28121668 0.93472105 0.21728733 
0.8622771 0.38594 0.32791582 
0.64006144 0.06909949 0.7652102 
0.42760077 0.3444456 0.83577204 
0.017280847 0.68060744 0.73244447 
-0.40323088 0.89788216 0.17667094 
0.6153144 0.6561772 0.4368292 
-0.33622444 0.85261315 0.40000525 
0.18150958 0.7609436 0.6229118 
0.5593491 0.513869 0.65043616 
0.06379614 0.047956277 0.99681 
0.30125475 0.015543542 0.95341706 
-0.19599532 -0.24123241 0.95046985 
0.017167052 0.46774042 0.8836992 
-0.5363355 -0.17243111 0.8262033 
-0.38986498 0.38443923 0.8367867 
-0.025946716 0.68564516 0.72747344 
-0.9641515 0.2610984 0.047325756 
-0.64164954 0.76595384 -0.04000873 
0.03265194 0.65592396 0.7541204 
-0.030977754 0.59883887 0.8002702 
-0.24977379 0.8653544 0.43448237 
-0.40456447 0.82199657 0.4008108 
-0.029017037 0.8836586 0.46723196 
-0.5715732 -0.02605134 0.8201374 
0.8901391 -0.15937634 0.42690942 
-0.2337878 0.52407515 0.81895584 
-0.45044884 0.4859195 0.74898475 
-0.3411668 0.66790336 0.6614456 
-0.20204563 0.6150733 0.7621434 
-0.32935494 0.034817293 0.9435641 
0.28724828 0.29179582 0.9123287 
0.32025564 -0.003215042 0.9473257 
0.4445423 0.83924186 0.31313798 
0.13984554 0.05637537 0.98856723 
0.38588154 0.49931297 0.7757461 
0.6421886 0.50883025 0.57331115 
0.06926382 0.4715852 0.8790961 
-0.42859918 0.2301393 0.8736926 
0.5615479 -0.23272447 0.79404247 
0.68697685 0.41668135 0.5953482 
0.86611694 0.49867374 0.034148633 
0.46127298 0.009868113 0.88720345 
-0.13633828 -0.059598032 0.98886806 
0.080176376 0.7764179 0.6250975 
-0.41238642 0.58542216 0.6980104 
0.06414839 0.7482984 0.6602534 
-0.6351974 0.6900123 0.34699765 
0.21959159 -0.05404358 0.97409385 
-0.04487034 0.034804292 0.9983864 
0.18953265 0.84538746 0.4993971 
-0.64718753 0.6734183 0.35729006 
-0.23335783 0.52980864 0.8153815 
0.109303504 0.6195383 0.77731913 
-0.17878036 0.65976983 0.7298914 
-0.076328024 0.9773149 0.19755952 
0.2436259 0.6301933 0.7372265 
-0.14952001 0.8610216 0.4860923 
-0.7653901 0.48952395 0.417785 
0.026926436 0.8703431 0.4917093 
0.07559512 0.6001134 0.796335 
-0.13911757 0.9390753 0.31429908 
0.5063549 0.4188915 0.7537471 
0.86282855 0.060089674 0.5019125 
0.5302968 0.49109724 0.6910925 
0.19656585 0.6868489 0.69971466 
-0.26372167 0.15865192 0.9514623 
0.13280925 -0.69886833 0.7028121 
0.7399494 -0.21216278 0.6383274 
0.80174595 -0.07461934 0.59298855 
-0.47585422 0.16546226 0.86382014 
0.09567353 0.68727624 0.72006804 
-0.12450222 0.76451796 0.6324647 
-0.2540024 0.5070166 0.8236607 
0.045957524 0.6640588 0.7462666 
-0.17486708 0.49039477 0.8537766 
-0.6167638 0.13069339 0.77622265 
-0.52181333 0.73048973 0.44056287 
0.092852056 0.84425735 0.52783334 
-0.5634876 0.40795735 0.718368 
-0.484635 0.86333525 -0.14064585 
0.24616413 0.45296818 -0.8568682 
0.24034409 0.8326774 -0.49888188 
0.13612512 0.9903078 -0.027575394 
0.41346854 0.87638587 -0.24696499 
0.7495755 0.22122735 0.623855 
0.39903975 -0.098954946 0.91157854 
0.07192983 -0.44430918 0.89298135 
0.44918165 0.5902177 0.67073023 
-0.18103679 -0.14164276 0.973223 
-0.4330359 0.5386626 0.7227189 
-0.004883687 0.25255564 0.96757007 
0.23140758 0.5938459 0.7705826 
-0.2765055 -0.13891044 0.9509199 
-0.60057515 0.1844498 0.7780024 
-0.79791516 0.3990141 0.4517957 
-0.4313964 0.61739653 0.65781355 
-0.21241854 0.8306049 0.51475626 
-0.42378736 0.70000803 0.5747982 
-0.6462931 0.19273089 0.7383496 
-0.31936735 0.41423482 0.8522993 
-0.5950498 0.34817573 0.72435457 
0.5052937 0.40943334 0.7596333 
0.80573875 0.4772859 0.35068992 
0.36038405 0.6046668 0.7102826 
0.14133254 0.91657853 0.37404406 
0.35611212 0.6792462 0.6417234 
-0.9280567 0.32739213 0.17755365 
-0.08066917 0.89804465 0.43244457 
0.026635736 0.87663984 0.48040923 
-0.25263283 0.8681966 0.42709655 
0.06361078 0.93809575 0.34048507 
-0.30476093 0.7795492 0.54719645 
0.5603575 0.65951353 0.5010403 
0.3719082 -0.38036558 0.8467623 
0.017893154 0.5923409 0.8054887 
-0.15703388 0.4274946 0.8902745 
0.3960166 0.44880995 0.8010871 
0.6904592 0.13873911 0.709942 
0.19911031 -0.30364472 0.93174833 
-0.33239692 0.18050326 0.9257056 
0.259656 0.34089577 0.9035314 
0.3391256 0.8287402 0.445178 
-0.06282585 0.9972259 -0.039919067 
0.34928355 0.7971573 -0.4924849 
0.801076 0.37861544 -0.46360308 
0.13216473 0.9112765 -0.3900097 
0.82948136 0.17111017 0.5316785 
0.8293897 0.45372945 0.3259484 
0.39737082 0.6998631 0.59353876 
0.743945 0.17016011 0.6462131 
0.67562395 0.46593884 0.5713434 
0.66519046 -0.30790275 0.68023354 
0.7652743 -0.17964436 0.6181289 
0.3185943 -0.20205986 0.92610455 
0.55405164 0.56066966 0.6153669 
0.19854315 -0.35470438 0.91365504 
0.63281345 -0.23644093 0.73732144 
0.27214566 -0.4046053 0.8730586 
-0.26114416 -0.13325278 0.9560584 
-0.38356608 -0.03695464 0.9227738 
-0.29975277 -0.32531652 0.89683753 
-0.1405049 0.76307005 0.6308584 
-0.68827164 0.62718964 0.36457565 
0.21809168 0.8840866 0.41331217 
0.09380121 0.8500292 0.5183162 
0.45684567 0.62204933 0.6358827 
0.44720384 0.29450572 0.8445562 
-0.17723104 0.7300258 0.660039 
-0.065363094 0.6349596 0.76977533 
-0.21640928 0.81250244 0.5413011 
0.81508183 0.5787458 0.026365183 
0.59324986 0.4891567 0.63935935 
0.12443934 0.87087446 0.47549188 
0.5617424 0.22598732 0.7958488 
0.69293207 -0.26149112 0.6719133 
0.4252521 0.6173187 0.66187495 
-0.16214077 -0.18071151 0.97007924 
-0.070201434 -0.8233184 0.56322163 
-0.12908316 -0.18446437 0.9743257 
-0.20006615 -0.11574188 0.97292215 
-0.016111953 0.09094049 0.995726 
0.21887004 -0.074316315 0.9729199 
-0.040328916 0.10675244 0.99346745 
-0.80864334 0.19684774 0.5543889 
-0.036935937 -0.058849864 0.9975834 
-0.07426091 -0.09218089 0.9929693 
0.11967221 0.20899972 0.97056574 
-0.43845472 0.5161284 0.73577785 
0.0006599787 0.8886003 0.4586819 
0.2116622 0.8724826 0.44042388 
-0.111069724 0.40168753 0.9090163 
-0.094174415 0.3570063 0.92934257 
0.8302786 0.22137196 0.5114998 
0.1859328 -0.032677118 0.982019 
0.14037758 0.6467458 0.749676 
-0.031039648 0.6477994 0.76117843 
-0.25339362 0.8836608 0.3936182 
-0.22342417 0.9056997 0.36026356 
0.3999117 0.57361394 0.7148691 
0.7271711 0.65045744 0.21937948 
0.7511121 0.20135397 0.6287187 
0.56609094 -0.24805221 0.78613687 
0.7057155 0.3766059 0.6001114 
0.28495717 -0.022246873 0.9582821 
0.08476034 0.4253106 0.9010697 
0.79653853 0.49086508 0.35295582 
0.5282183 0.6306547 0.56855977 
-0.25789404 0.7924539 0.5527275 
-0.419423 0.6659186 0.6169577 
0.22360936 0.3579384 0.90657544 
-0.54756796 -0.045340106 0.835532 
0.12286218 -0.52420527 0.8426825 
-0.15091076 0.6199826 0.76996595 
-0.35653287 0.7639569 0.53782374 
-0.11445136 0.89298695 0.43528768 
-0.6048632 0.39937764 0.68893987 
-0.52046895 0.23632696 0.82052517 
-0.080905445 0.030076286 0.996268 
-0.22354291 0.27341184 0.9355612 
-0.44107112 0.0751115 0.89432347 
-0.3550554 0.54093695 0.7624453 
-0.6002816 -0.05604255 0.7978229 
-0.49090588 0.86936116 0.056767344 
-0.26432925 0.8548091 -0.44657758 
-0.22564577 0.7746899 0.59071106 
-0.3359974 -0.52497435 0.78198963 
-0.652538 0.61260164 0.44599727 
-0.045972724 0.9915496 0.12130878 
0.0780965 0.9852161 0.15248063 
-0.06887353 0.4458741 0.89244205 
-0.61495346 0.23688106 0.75214344 
-0.091099665 0.47129625 0.8772576 
0.31613544 0.1813093 0.9312279 
0.7565486 0.4482528 0.47613427 
-0.051909998 0.6404675 0.7662289 
-0.57015115 0.47942874 0.66714007 
-0.06259809 0.8525599 0.51886714 
-0.30272195 0.94994134 -0.07727122 
0.36683962 0.8545079 0.3677566 
0.89101297 0.39942843 0.21576115 
0.62314975 0.65350395 0.4296709 
-0.13489042 0.9901491 0.03754215 
0.30833778 0.9377529 -0.15983534 
0.10901935 0.47733855 0.8719305 
-0.079323344 0.55793285 0.8260864 
-0.58798194 0.19826438 0.7841994 
-0.57416296 0.69327945 0.43554622 
-0.43995234 0.48916727 0.7530984 
-0.37595567 0.83688986 0.3978352 
-0.47838637 0.7693377 0.42339832 
-0.9552667 0.15370366 0.25266737 
-0.5944261 0.8019753 0.05910435 
-0.32004932 0.83304304 -0.45122936 
0.37056857 0.86114043 -0.34801728 
0.92556185 0.37177432 -0.07154904 
0.6424087 0.7341594 -0.21982063 
0.497523 0.8376613 0.22537635 
0.55575913 0.79528874 0.24217288 
0.41625243 0.8900806 0.18571629 
0.34189427 0.90773463 0.24315886 
-0.16653207 0.9810306 0.099227294 
0.62076914 0.4708034 0.6268891 
0.34506947 0.6566453 0.6706296 
-0.115429126 0.52562135 0.8428514 
0.17740798 0.90966976 0.37553617 
0.46864876 0.8712494 0.14592104 
0.24537897 0.9337787 0.2604737 
0.12225712 0.8923149 0.43454275 
0.27178082 0.70155114 0.6587574 
-0.37782034 0.362436 0.85199296 
-0.31321374 0.27440906 0.9091738 
0.17981432 0.9589872 0.21911299 
0.36749578 0.19852917 0.90858847 
0.78665423 0.12435231 0.6047411 
0.5701974 0.4848797 0.663149 
-0.092250094 0.6020551 0.7931076 
0.5169604 0.71514 0.4704539 
0.06855591 0.5899549 0.80452055 
-0.07876126 0.3174571 0.9449961 
-0.1790921 -0.13888168 0.9739805 
-0.47464952 -0.051307626 0.87867826 
0.39147234 0.55787927 0.7317925 
-0.293827 0.8297289 0.47456908 
-0.31231478 0.7189886 0.6208985 
0.39472672 0.024073223 0.9184832 
0.14963411 -0.67091596 0.72627926 
-0.19584955 -0.036944 0.9799378 
-0.5842524 0.4027305 0.7045973 
-0.70016557 0.21212754 0.6817405 
-0.67705977 -0.46034598 0.57417053 
-0.9684956 -0.012105484 0.24873659 
-0.45726618 0.6863355 0.565554 
-0.6512021 0.5407775 0.532443 
-0.44378084 0.768176 0.46148068 
0.4660822 0.5355244 0.70425916 
-0.08092469 0.3493552 0.9334893 
-0.42238155 0.753083 0.5044402 
0.11528212 0.9589961 0.25891387 
0.15208842 0.9771965 0.14817633 
0.5772468 0.7919639 0.19894591 
0.42635134 -0.5402986 0.7254667 
0.24841219 0.200064 0.9477689 
0.25810704 0.54637146 0.7967805 
-0.3653022 0.09908564 0.9256005 
-0.64666593 -0.058829043 0.7605013 
-0.6498407 0.33885807 0.6803546 
0.30630407 0.072355404 0.94918 
-0.5364771 0.23441936 0.8107034 
0.00907321 0.43926117 0.89831364 
-0.052466992 0.27643147 0.95960045 
0.28006622 0.34093738 0.8973989 
0.26020786 0.28461415 0.922652 
0.059351236 0.008279268 0.99820286 
0.100967616 -0.45318088 0.88568205 
0.56129456 -0.38559633 0.7323005 
0.59862024 0.22421052 0.76901466 
0.31084487 0.16103545 0.9367193 
-0.33737823 -0.25781506 0.9053769 
-0.03766886 -0.24699931 0.96828324 
-0.5896347 0.12692451 0.7976348 
-0.06260473 0.6707265 0.73905796 
-0.2814502 0.7845532 0.5525054 
-0.093886785 0.25343403 0.9627858 
-0.44094077 0.38504076 0.8107497 
-0.6286331 0.30058596 0.71726465 
-0.043348335 0.56375587 0.8248033 
-0.35929206 0.7092069 0.6065764 
-0.184351 0.789903 0.58486587 
-0.12026345 0.2876458 0.95015615 
0.20663136 0.7361224 0.64453644 
0.207733 0.89773136 0.38849115 
0.17872562 -0.03416289 0.98330575 
-0.67076373 0.061888836 0.7390844 
-0.415561 0.25786197 0.8722478 
-0.27274758 0.5652006 0.77856094 
-0.5007139 0.6152506 0.6088944 
0.1260996 0.74477994 0.65528756 
-0.4282347 0.3788104 0.82043767 
0.8174355 0.56370306 0.11848242 
0.75378764 0.15045162 0.6396629 
-0.5828514 0.6662744 0.46514797 
0.31747392 0.48592323 0.8143028 
0.52603257 -0.4435105 0.72566396 
0.6077658 -0.074540965 0.7906102 
0.79664314 -0.021897586 0.60405326 
-0.14014842 0.96772724 0.2094339 
-0.0192721 0.80885875 0.5876872 
-0.1568582 0.78073984 0.6048478 
0.11293088 0.39437583 0.9119837 
-0.36677715 0.12205194 0.9222678 
-0.58935314 -0.38186646 0.7119276 
-0.45610046 -0.24238278 0.8562844 
-0.23102534 0.9202305 0.31591618 
0.5367512 -0.22935411 0.8119698 
-0.62605006 0.57825744 0.523144 
-0.63580817 0.55070686 0.54080504 
0.23251607 0.8431048 0.48488218 
0.23572844 0.8796518 0.41309172 
0.29666752 0.95142883 0.08228938 
0.25855976 0.8562808 0.44713554 
0.584661 0.67541754 0.44942492 
0.23759072 -0.06308696 0.9693146 
0.51851696 0.12932189 0.8452314 
0.43531567 0.13881896 0.8895109 
0.059047125 -0.16079374 0.9852202 
-0.82753205 0.014663551 0.5612271 
-0.6290635 0.3281388 0.7047014 
-0.30790585 -0.249538 0.9181094 
-0.34481844 0.12959546 0.92968017 
-0.43410224 0.018629381 0.90067106 
-0.74623376 0.38748714 0.54128456 
-0.087905146 0.59270513 0.80060816 
0.33324787 0.86120605 0.3837577 
0.17997833 0.96421885 0.1946534 
0.29748002 0.95367247 0.044883136 
0.2447697 0.9392414 -0.24065194 
-0.2618127 0.5570392 0.7881379 
0.5541588 0.57224494 0.60451955 
0.14558254 0.31391442 0.9382236 
-0.025119288 0.086290166 0.9959534 
0.49785236 0.39698216 0.7710695 
-0.105598696 0.43734637 0.8930718 
-0.44482717 0.86226285 0.24213983 
-0.38256633 0.5895098 0.7114221 
-0.17972456 0.93117374 0.31719825 
0.08325295 0.98834646 0.1274373 
0.09220414 0.5726878 0.81457186 
0.010293871 0.30316985 0.95288104 
-0.107606776 0.14501068 0.9835613 
0.33384284 -0.090830594 0.93824244 
0.29062837 0.36106142 0.8860981 
-0.21726494 -0.335267 0.91672903 
-0.046028838 0.38397127 0.9221971 
0.40361908 0.6361161 0.65760785 
-0.80431724 0.3835008 0.4538735 
-0.50195974 0.24871752 0.8283574 
-0.46261188 0.8664558 0.1877358 
-0.33131364 0.7542273 0.56689715 
-0.086375564 0.5951049 0.7989929 
0.3032771 0.50216264 0.8098492 
0.4259962 0.5388004 0.72678846 
0.79847395 0.3468707 0.492057 
0.43844956 -0.12656581 0.8897995 
0.5881397 -0.14242066 0.7961206 
0.39535475 0.17845072 0.90102726 
0.4072664 0.81970644 0.4027599 
0.2490178 0.8710244 0.42344615 
0.98914254 -0.101376 0.10639496 
0.115910195 -0.45139712 0.884763 
-0.09193557 -0.20964159 0.9734466 
0.061382554 0.44791046 0.89196885 
0.51730627 -0.5535407 0.6526768 
0.49331114 -0.2502182 0.8330877 
0.52330476 -0.5103094 0.6824489 
0.068435565 0.09944108 0.99268734 
-0.06685807 -0.45488757 0.8880357 
0.004815609 0.4175998 0.9086183 
-0.104036875 0.33633357 0.93597865 
-0.35078627 0.08331018 0.9327424 
-0.5740784 -0.057403732 0.8167858 
-0.42748493 0.17576078 0.8867721 
0.26579013 0.5511336 0.79095346 
0.44512045 0.5432534 0.71185917 
-0.12902167 0.24923399 0.9598104 
-0.49514297 0.61649865 0.6121788 
-0.3921208 0.91679764 0.07565398 
-0.33479083 0.37412074 0.8648403 
0.62322783 0.40055403 0.6716723 
0.64249057 0.40918034 0.64790237 
0.6492828 0.10642974 0.7530635 
-0.29758668 -0.033501178 0.9541069 
0.1841591 0.36665687 0.9119475 
-0.3751731 -0.53941214 0.7538434 
-0.32615685 -0.69302213 0.6429169 
0.31530622 0.57686174 0.75353336 
0.9154806 -0.19769625 0.35044485 
0.7965736 0.46335685 0.38829246 
0.09743329 -0.23568618 0.9669327 
-0.15697311 0.29390666 0.94285643 
-0.39586714 -0.18724811 0.89901465 
0.013385972 -0.15085232 0.9884657 
0.08136366 -0.3707326 0.9251688 
-0.14224495 0.17781697 0.97372866 
0.24697481 0.22340368 0.94291794 
-0.62089866 0.3378114 0.7073672 
-0.8304308 0.17652409 0.5284166 
-0.49358785 0.51392317 0.7016082 
0.6763673 0.34722376 0.64958674 
0.62811816 0.22459838 0.7449989 
-0.19599777 0.37517664 0.9059953 
0.035735004 0.5393698 0.8413105 
0.08397693 0.61571044 0.783485 
-0.13896835 0.66169417 0.7367827 
0.27541673 -0.20183821 0.93989736 
0.6461208 -0.2653412 0.7156271 
0.20963737 0.5448444 0.8119094 
0.24508467 0.731142 0.63668275 
0.63410467 0.49082085 0.59749997 
0.6967178 0.606331 0.38333693 
0.98644894 -0.10892368 0.12269558 
0.34595948 -0.07183222 0.9354957 
0.14036293 -0.0120456265 0.9900269 
-0.48979056 0.6259022 0.6069198 
-0.75315535 0.31267485 0.5787844 
-0.46779326 0.054462567 0.88215834 
-0.49496117 0.15822874 0.85438704 
0.1655211 0.190108 0.96770954 
0.23121001 0.45496255 0.8599716 
-0.17124201 0.481288 0.8596733 
0.13401033 0.94932413 0.28429732 
-0.048192803 0.89542377 0.442599 
0.4231498 0.7201189 0.54988456 
0.0109205255 0.35806206 0.933634 
-0.037623193 0.3731394 0.92701215 
-0.46666807 -0.3279116 0.82139826 
0.09661188 -0.0038720272 0.9953146 
-0.4347232 0.5543321 0.7097407 
-0.4746149 0.8660043 0.15740824 
-0.40232942 0.7133629 0.5737983 
-0.28178102 0.35321578 0.8920976 
0.10073637 0.50584984 0.85671943 
0.54635346 -0.09616177 0.83201617 
-0.6343044 0.7290819 0.2570945 
-0.19343843 0.9390006 -0.28435796 
0.1599844 0.6820076 0.7136321 
0.85511744 0.49653628 0.14908391 
-0.008184063 0.19602844 0.9805641 
-0.3142041 0.5998709 0.73581976 
0.1197294 0.66508627 0.7371059 
0.45499462 0.42893445 0.78038144 
0.22615787 0.5962207 0.77030754 
0.49540263 0.44418758 0.74650764 
0.0610551 0.27841687 0.95851785 
0.09623806 0.8102384 0.57814527 
-0.2871569 0.7514905 0.5939722 
0.7168241 0.6966307 0.029477848 
0.6189281 0.3871219 0.6834214 
0.076929286 0.5158187 0.8532368 
0.29088986 0.73689395 0.6102216 
-0.1077809 0.20362663 0.9730979 
-0.022862643 0.20075609 0.9793745 
-0.0992111 0.31055427 0.94536406 
-0.18781249 0.6835807 0.70529705 
0.6210586 0.48267624 0.617503 
-0.7828061 0.057946317 0.6195618 
-0.49561772 0.14249597 0.8567719 
-0.74708164 0.27582645 0.60480475 
-0.14408872 0.9523611 0.26878768 
0.21813764 0.92456484 -0.31240353 
0.59360105 0.76634055 -0.24568295 
0.809988 0.4986742 0.30861536 
0.8243927 0.5639164 -0.048734657 
0.50886315 0.8599932 -0.038339574 
0.30245504 0.44372317 0.84358215 
0.116851985 0.43512824 0.8927536 
0.31008068 0.67123765 0.67326814 
-0.029496547 0.70117074 0.71238303 
0.14703642 0.4471265 0.88230276 
0.09577711 0.06356269 0.9933713 
-0.65308666 8.972195e-05 0.75728333 
-0.81747514 0.573416 0.054115567 
-0.32009166 0.93717813 -0.13870293 
0.45009086 0.7985435 0.3996829 
0.43286386 0.20912428 0.8768672 
0.44698632 0.66860336 0.59428346 
0.25899705 0.5897546 0.76492494 
0.2497174 0.5910297 0.76702356 
-0.027348397 0.898529 0.43806145 
0.87271327 0.049517635 0.48571554 
0.6107027 0.66397274 0.43148872 
-0.30229107 0.58605826 0.7517685 
-0.52483267 0.58484805 0.61846864 
-0.3528369 0.1334456 0.9261201 
-0.5821578 0.2524 0.77290785 
0.35055056 0.5041917 0.7892434 
-0.14798205 -0.18041183 0.9723955 
0.03995144 0.4515116 0.8913705 
-0.090672575 0.71316373 0.6951087 
-0.38125658 0.5846181 0.7161461 
-0.29318574 0.42154452 0.85810405 
0.009341783 0.09846134 0.9950971 
0.6386892 0.58878905 0.49538228 
0.45237008 0.17458452 0.8745751 
-0.3330256 0.79372555 0.50901246 
-0.20408729 0.5560759 0.8056849 
-0.6598625 -0.10778565 0.7436153 
-0.3925116 0.27817285 0.8766725 
-0.25557068 0.79301184 0.5530063 
-0.50974846 0.57021356 0.64421505 
0.0141334245 0.5613542 0.827455 
-0.3608125 0.651532 0.6673234 
0.21391015 0.3580069 0.90888596 
-0.07364298 0.57758415 0.8130027 
-0.25295824 0.72993207 0.63498926 
0.14035581 0.9109647 0.3878706 
-0.45654747 -0.18864998 0.8694686 
0.09196766 -0.46270558 0.8817287 
-0.12927516 0.29172412 0.9477263 
0.2793013 0.09913919 0.9550719 
-0.5114803 0.0599799 0.8571992 
-0.57279074 0.10735253 0.8126415 
-0.48538607 -0.013446361 0.8741966 
0.019906215 -0.9967036 0.07864892 
0.69864035 0.0027142542 0.715468 
0.9412652 -0.3233257 0.09736701 
0.3100027 -0.12766792 0.9421249 
-0.23626958 0.14708397 0.9604911 
-0.04078414 -0.12282466 0.9915901 
0.13265306 -0.20778246 0.9691386 
-0.09101958 0.15073925 0.9843745 
0.468549 0.09591997 0.87821484 
0.5290805 -0.27850395 0.80156684 
-0.63608426 -0.4574546 0.62139535 
-0.7461463 -0.49313462 0.44730738 
-0.6614757 -0.13251187 0.73816705 
-0.7657372 -0.48882228 0.41797057 
-0.084375285 0.18284495 0.9795145 
0.43572402 0.6196294 0.6528431 
0.11281892 0.5418304 0.8328816 
-0.26988375 -0.08809034 0.958855 
-0.5835264 -0.60794026 0.53842884 
-0.19442026 -0.3901262 0.90000135 
-0.2175087 -0.51917017 0.8265303 
-0.4639554 -0.39127588 0.79476327 
-0.42427513 0.24565403 0.8715761 
0.031444658 0.18071446 0.9830329 
0.58939815 0.24767588 0.7689386 
-0.13336751 0.5899152 0.7963751 
-0.266478 0.4464248 0.85422146 
-0.16663264 -0.263484 0.95016307 
-0.035819374 0.7146638 0.6985504 
-0.17736748 0.38110965 0.9073568 
-0.68906885 0.4303698 0.5830661 
-0.28450492 0.39764366 0.87231684 
0.29381263 0.82017004 0.49091277 
0.7119529 0.19104779 0.6757395 
0.49311998 0.34722805 0.79766244 
0.18288441 0.44333756 0.8774994 
-0.12191514 0.8995967 0.41935977 
-0.25325373 0.7157239 0.6508471 
-0.51228374 0.35018104 0.7841803 
-0.29810566 0.7741099 0.55846846 
0.17778549 0.23166901 0.9564109 
-0.74329174 -0.4280393 0.5141011 
0.21182917 0.0986539 0.9723148 
-0.33042502 0.14789683 0.93217266 
-0.6409951 -0.76716435 -0.024173973 
-0.123216435 -0.40936247 0.90401334 
0.0037324557 -0.13911311 0.9902695 
0.06253267 0.13286202 0.98916 
-0.38261145 0.30282357 0.8728726 
-0.546491 0.48944125 0.67955494 
0.07250641 0.52258235 0.8495001 
-0.4570845 0.5345712 0.7108499 
0.086577445 0.8057273 0.58592486 
0.062333923 0.09925504 0.9931078 
0.6530391 0.4037124 0.6407468 
0.6109796 0.05871508 0.78946596 
-0.15035471 0.0829322 0.98514754 
-0.17851382 -0.1243207 0.97605187 
0.09218324 0.52633554 0.8452652 
-0.31902608 0.38284448 0.86697894 
-0.13033666 -0.22246134 0.9661901 
-0.078833625 0.18289599 0.9799665 
-0.4215633 0.002499552 0.90679556 
-0.07762765 0.44581434 0.8917531 
-0.79365414 0.05467483 0.6059074 
0.24517599 0.52003634 0.8181998 
0.35494825 0.5490707 0.7566592 
-0.1038485 0.5301696 0.84150803 
0.24727319 0.50213027 0.8286865 
-0.099923305 0.7748713 0.6241713 
0.05889182 0.38030928 0.9229825 
0.363091 0.13487138 0.9219407 
0.42664275 0.004444561 0.9044094 
0.6093926 -0.18029682 0.77209705 
0.38408956 -0.11062473 0.91664463 
0.32236132 0.6687345 0.66998315 
-0.7178606 0.69268686 0.069722176 
-0.65632963 0.65338755 0.37724823 
-0.37718335 0.90914756 0.17658828 
-0.12147751 0.7235413 0.67950803 
0.36597848 0.7118053 0.59949404 
0.48048553 -0.40641418 0.77714944 
0.59818834 -0.19604155 0.77700603 
-0.22809274 0.25365067 0.94001865 
0.37697548 0.054694105 0.924607 
0.2838262 -0.45156515 0.8458911 
-0.13003069 0.042874385 0.9905826 
0.071683146 0.55665386 0.8276461 
-0.44177705 0.14732477 0.88494545 
-0.50113446 0.5867313 0.6360902 
-0.006000197 0.40170482 0.91574955 
-0.5157875 0.35396284 0.7801753 
-0.1172886 0.8093811 0.5754525 
-0.8857631 0.33531216 0.3209199 
-0.5733046 0.3162848 0.7558346 
0.38659972 -0.085031986 0.9183192 
0.26009014 0.02351828 0.96529794 
0.683409 0.15905769 0.7124976 
0.48329166 -0.40856293 0.77427745 
0.4653625 0.34739327 0.8140981 
-0.23187827 -0.22314961 0.9468034 
-0.006825023 -0.68394655 0.7295003 
-0.08522995 -0.2433547 0.96618545 
-0.4885997 -0.042648043 0.8714652 
0.46499684 -0.21795902 0.85806286 
-0.14781164 -0.5804544 0.800765 
0.40849724 -0.2803781 0.8686301 