# OOMMF: rectangular mesh v1.0
# Segment count: 1
# Begin: Segment
# Begin: Header
# Desc: Time (s) :  2.5000000000000002e-08
# Title: m
# meshtype: rectangular
# meshunit: m
# xbase: 2e-09
# ybase: 2e-09
# zbase: 5e-10
# xstepsize: 4e-09
# ystepsize: 4e-09
# zstepsize: 1e-09
# xmin: 0
# ymin: 0
# zmin: 0
# xmax: 1.024e-06
# ymax: 1.024e-06
# zmax: 1e-09
# xnodes: 256
# ynodes: 256
# znodes: 1
# ValueRangeMinMag: 1e-08
# ValueRangeMaxMag: 1
# valueunit: 
# valuemultiplier: 1
# End: Header
# Begin: Data Text
0.72123796 -0.13740674 0.6789222 
0.18650922 0.27260095 0.9438767 
0.45345575 0.75775576 0.46923774 
-0.24303281 0.71321213 0.6574676 
0.10169255 0.7071845 0.6996776 
-0.16744128 0.81134653 0.5600716 
-0.58904773 0.08841511 0.8032469 
-0.32112783 0.6757557 0.66349924 
0.26339218 0.6644499 0.699379 
-0.020862227 0.38984787 0.920643 
-0.2931388 0.79889697 0.52519834 
-0.49597153 0.61780614 0.6101867 
-0.22541484 0.619107 0.7522597 
-0.2066565 0.56331265 0.7999825 
-0.05194706 0.5196692 0.85278696 
-0.05281327 0.9153704 0.39913365 
-0.12619212 0.8029048 0.58259726 
0.048326887 0.90381193 0.42519242 
-0.6517074 0.6277834 0.4256354 
-0.7069241 0.37482944 0.59980106 
0.65089923 0.11825145 0.7498979 
0.288862 0.56301475 0.77432114 
-0.2050247 0.84420264 0.4952645 
-0.043961454 0.99770975 -0.05140769 
0.086002916 0.79506475 0.60039634 
-0.4628401 0.7634137 0.4505315 
-0.066936865 0.9950733 0.07313476 
-0.69974065 0.66082853 0.27142 
-0.30139595 0.5237965 0.79674196 
-0.33188206 -0.085124165 0.9394724 
-0.27312014 -0.281692 0.91981256 
-0.44357228 0.4207513 0.79133564 
-0.08532344 0.38217527 0.92014235 
-0.40296435 0.27918682 0.8715931 
-0.04962576 0.40499684 0.9129704 
-0.3092951 0.2652843 0.9132146 
-0.25116545 0.2308183 0.94002074 
0.5574304 -0.27198467 0.7844079 
0.4812502 -0.3765373 0.7915922 
0.22844504 0.6663068 0.70982265 
-0.113435134 -0.5861726 0.8022059 
-0.3849464 0.5589045 0.73446715 
-0.26718605 0.22934295 0.935956 
-0.1196272 0.46006754 0.8797881 
0.49302006 0.3071076 0.8140124 
0.7325658 -0.12957564 0.66824967 
0.74261266 0.1621542 0.6497942 
0.48277202 -0.1885601 0.8552054 
0.03611209 -0.05503154 0.9978314 
0.08239293 0.42118508 0.9032246 
-0.53619754 0.6279316 0.56408703 
-0.24953713 0.21509121 0.94417536 
-0.6507119 -0.03484088 0.7585251 
0.81659275 0.14700276 0.5581814 
0.31788296 0.05761627 0.9463778 
-0.49986407 -0.30532858 0.8105001 
0.32135966 0.12787111 0.93828404 
0.2312301 0.6032279 0.76331437 
-0.34528384 0.47608826 0.80877626 
0.1762284 0.3896356 0.90395117 
0.13944614 0.21084888 0.9675213 
-0.14655271 0.15639006 0.97676224 
0.19641015 0.18726328 0.96247375 
0.43230996 -0.37430274 0.8203691 
-0.40432593 -0.33325464 0.8517406 
0.24637091 0.54342234 0.8024921 
-0.114042915 0.8330923 0.54124993 
-0.47065857 0.0071440693 0.8822866 
-0.08288456 0.7241019 0.6846946 
-0.36231932 0.9318375 0.020089826 
-0.7928915 0.5792833 0.18908748 
-0.42694482 0.86847544 -0.25193006 
0.28939718 0.9555777 -0.05586356 
0.49808496 0.6574033 0.56544876 
0.074355066 0.65837055 0.7490125 
-0.2512546 0.8758775 0.41195855 
-0.5320659 0.71436805 0.45451543 
0.45920095 0.45196778 0.7647611 
-0.093711376 0.37722617 0.9213678 
-0.8409445 0.1345348 0.5241305 
-0.06701961 0.1632191 0.9843109 
0.117721625 0.42601684 0.8970236 
0.15423931 0.47269043 0.8676255 
0.02555698 0.48092583 0.8763888 
0.44545975 0.5152091 0.7322058 
-0.25705072 0.41074273 0.8747659 
-0.79418194 -0.16016085 0.58619404 
-0.39364958 0.82207006 -0.411389 
0.1925049 0.5459235 0.81541985 
-0.11615885 0.14111812 0.98315454 
-0.70500517 0.26480138 0.65791184 
-0.76714563 0.30410954 -0.5648054 
-0.8544206 0.2095388 0.4754565 
-0.6440744 0.37079564 0.6690881 
-0.3495158 -0.73987454 0.57482564 
-0.31006607 0.948475 -0.06522495 
-0.7306433 0.6818485 -0.035257656 
-0.37091374 0.9248544 0.08406791 
-0.1474096 0.3818443 0.9123954 
0.037083317 0.7176688 0.6953966 
-0.30403537 0.7411421 0.59855735 
0.5153228 0.6614945 0.5448555 
-0.43267536 0.7860554 -0.44148496 
0.082694866 0.77415437 0.62757206 
-0.124891534 0.6977438 0.7053763 
0.13193527 0.9911978 0.010950425 
-0.17761195 0.8642084 0.47074184 
-0.43238327 0.8922935 0.12983455 
0.25083536 0.90587854 -0.34127086 
0.098393224 0.9777537 -0.18524761 
-0.25755307 0.96065956 0.10392106 
-0.20027515 0.95871794 0.2018662 
-0.06224692 -0.12006652 0.99081254 
0.49848604 -0.26562157 0.82520115 
-0.21272147 0.06596995 0.9748833 
0.021989197 0.5011641 0.8650729 
-0.12593018 -0.9022242 0.4124721 
-0.1734418 -0.5640091 0.8073486 
-0.24898793 -0.22192585 0.94273746 
0.458801 0.43904164 0.7724921 
0.14720844 0.66414684 0.73296565 
0.4374642 0.87631124 0.20175184 
0.46821943 0.50179946 0.7273018 
0.11074931 0.90917236 0.4014228 
-0.0784419 0.9755084 0.2055002 
-0.61854464 0.7523248 -0.22673795 
-0.22749977 0.6974032 -0.67961216 
0.1091106 0.90925926 0.40167463 
-0.14291917 0.90019685 0.4113632 
0.23463789 0.9419142 -0.24029708 
0.6826356 0.5185649 -0.51487774 
0.31982148 0.93164605 0.17248131 
0.26218575 0.82668537 -0.4978453 
0.75018466 0.6521229 -0.10935678 
-0.15762623 0.6071601 0.77878803 
-0.19334239 0.41963282 0.8868636 
-0.728852 0.018883899 0.6844108 
-0.30230215 0.6219309 0.72236794 
-0.51172584 0.34213355 0.7880871 
-0.599945 0.503447 0.6217774 
-0.7972446 0.31433874 0.5153565 
-0.28679076 0.2523991 0.924146 
-0.20659156 0.24838936 0.9463735 
-0.21092644 0.69335145 0.6890384 
-0.14683223 0.97560185 0.16322196 
0.0023422192 0.66112036 0.7502762 
-0.54843146 0.81387013 0.19193372 
0.21927737 0.9596117 -0.17624676 
0.25846764 0.5425615 -0.7992631 
0.22567737 0.97417486 -0.0072959694 
0.27144313 0.4016427 0.8746439 
0.28143242 0.016748192 0.9594349 
-0.4882828 0.7131426 0.5029986 
0.010773134 0.9986468 0.05087877 
0.38731226 0.21941504 0.8954588 
-0.11571488 -0.064487115 0.9911869 
0.29119408 0.6614589 0.6911427 
0.47100633 0.5929428 0.65312475 
0.11121675 0.96582603 0.23411773 
0.81457233 0.27561042 -0.51040274 
-0.100229666 0.9763355 -0.19163264 
0.58558744 0.53621817 0.6079124 
0.21448003 0.94499815 0.24693485 
-0.058572568 0.48709896 0.87138057 
-0.4024047 0.5412739 0.7383042 
-0.54323447 0.2632322 0.7972486 
-0.71658784 -0.3785151 0.5858569 
-0.7733877 -0.18333806 0.6068433 
-0.17486715 -0.008269417 0.9845574 
0.04100416 0.9497475 0.3103199 
0.09017428 0.93903077 -0.33179796 
0.14048855 0.98165673 0.12889218 
0.48478058 0.8222588 -0.29812467 
0.48608407 -0.0016948972 0.8739104 
0.59520125 0.13749243 0.79172677 
-0.29322445 0.5531603 0.7797647 
-0.47504136 0.31537607 0.821507 
-0.73435074 0.013492522 0.67863613 
-0.3616153 0.5303004 0.7668219 
-0.3331649 0.23316927 0.9135826 
-0.6790526 0.40181753 0.61435354 
-0.5547447 0.019951945 0.8317814 
-0.61324084 0.15496609 0.77454585 
0.15903266 0.55412227 0.81710297 
0.23277238 0.69146806 -0.68387794 
-0.20761232 0.8685201 0.45007795 
0.11389167 0.48259163 0.8684089 
-0.10540008 -0.4213987 0.9007297 
0.14036779 -0.033950407 0.98951715 
-0.65992975 0.7035646 0.2636089 
-0.18296899 -0.11559946 0.97629875 
-0.5600725 -0.2910892 0.77561975 
-0.52746093 0.43031627 0.73253876 
-0.36591896 0.8900492 0.27187458 
0.6154967 0.32690802 0.7171437 
0.181106 0.67044127 0.7195201 
-0.076830246 0.5185346 0.8515979 
0.37473202 0.4232566 0.82488173 
0.28871205 0.854347 0.4321305 
0.036439933 0.1484813 0.9882437 
-0.27127284 0.2615591 0.9262818 
-0.7095912 0.681652 0.17841236 
-0.6290057 0.0032644037 0.777394 
-0.12701355 0.9631993 -0.23688543 
0.01974911 0.96681607 0.2547089 
0.61943734 0.7180558 0.31732213 
-0.2682579 0.955859 0.11988047 
-0.023492532 0.9898078 -0.14045925 
-0.18904741 0.8832431 0.42911848 
-0.7430137 0.57573456 0.3412629 
-0.29415223 0.928359 -0.2272098 
0.16000396 0.8824604 0.44233733 
0.5218898 0.28648332 -0.8034665 
-0.017815238 0.7898855 -0.61299556 
0.63691926 0.4907454 0.5945611 
0.3594464 0.8090087 0.46508405 
0.22923158 0.4117227 0.8820076 
-0.5095622 0.123139985 0.8515768 
0.045118757 0.4657282 0.88377696 
-0.08125858 0.8652489 0.49471363 
-0.07687843 0.72233486 0.68725693 
0.21085542 0.6577611 0.7231116 
0.2848736 0.75395983 0.59193885 
-0.0662362 0.9286696 0.36494622 
-0.47418928 0.3231941 0.8189568 
-0.5725472 0.72822416 0.37666887 
-0.4515285 0.15636483 0.8784487 
-0.62485117 0.10900508 0.773097 
-0.31528243 0.23502706 0.9194343 
-0.41567066 0.8377484 0.35411227 
-0.51829386 0.84211195 -0.14906073 
-0.21790016 0.85738415 0.46627465 
0.45666483 0.88115937 0.12253773 
0.17020482 0.8230344 0.54189 
0.45636111 0.8894227 0.025724849 
0.25915685 0.7098672 0.65492463 
0.68965423 0.64657474 0.32606483 
0.3961938 0.05662611 0.9164191 
0.43280733 0.01816575 0.90130347 
-0.08891911 -0.24475734 0.9654985 
0.44349048 -0.086800404 0.8920661 
0.64726955 0.75904757 0.069921955 
0.4800218 0.6104328 0.6300405 
0.14936732 0.69566166 0.7026694 
0.31337357 0.82071275 -0.47773176 
0.5269979 0.57556665 0.62529695 
0.91491055 0.40272048 -0.027476972 
0.81453985 -0.0018039407 0.58010477 
0.3405343 -0.42558932 0.8383973 
-0.3006073 0.6531926 0.6949638 
-0.33724037 0.8545259 -0.39503738 
-0.39759845 0.62023807 -0.6761806 
-0.9564574 0.25800344 0.13646807 
-0.6043646 0.68520397 0.4064961 
-0.8105029 0.5006414 0.30404502 
-0.5905377 0.78749937 0.17638029 
0.5841583 -0.54090124 0.6051322 
0.8042 0.38808057 0.45017317 
0.70203626 0.2297605 0.6740588 
-0.037508488 0.61234474 0.7897007 
-0.47411278 0.70673037 0.5251184 
-0.31771976 0.76814485 0.55588466 
-0.020241454 0.8561539 0.5163243 
-0.48415816 0.60887134 0.6283841 
0.12030836 0.26434094 0.956896 
-0.40875933 0.084590204 0.9087136 
-0.21023603 0.22294715 0.9518904 
-0.68064904 0.51846004 0.5176062 
-0.19866607 0.21723168 0.95568943 
-0.58937407 0.044760063 0.80661947 
0.16258132 0.18308972 0.9695595 
-0.18593617 0.5528657 0.81226075 
-0.5915862 0.1653723 0.7890994 
-0.57256293 0.32294226 0.7535781 
-0.5063154 0.5347773 0.6765043 
-0.5529908 0.49294972 0.6717155 
0.4873526 0.8406631 0.23616306 
0.5657875 0.81882715 0.096987374 
-0.074369416 0.16935475 0.9827453 
-0.2818505 0.6188568 0.7331962 
0.61409074 0.69071656 0.38184202 
-0.06804284 0.98058814 0.18389443 
-0.28442842 0.58286005 0.7611667 
-0.3573349 0.358402 0.8624731 
-0.3481365 -0.50332534 0.7908633 
-0.60687166 -0.1695461 0.77650565 
-0.5041775 -0.29275012 0.8124669 
-0.3153781 0.2621544 0.9120372 
-0.15808089 -0.7110521 0.685139 
-0.5761796 0.12101895 0.808314 
-0.8008936 0.35077786 0.48530856 
-0.42868888 0.11302083 0.896355 
0.19024147 0.16116163 0.9684189 
0.6430486 -0.08141484 0.76148546 
0.30900788 0.44435254 0.84087163 
0.5478358 0.32750657 0.7698152 
0.30377358 0.47850862 0.82386357 
-0.3027007 0.30647817 0.9024652 
-0.4475424 0.42671034 0.78589076 
-0.347584 -0.082352184 0.9340254 
-0.16159417 0.23765366 0.9578143 
0.52564263 -0.22565371 0.8202318 
-0.276886 -0.1663581 0.9463928 
-0.13287593 -0.41748708 0.89891523 
0.5803362 0.03496634 0.813626 
0.4761713 0.068784826 0.8766582 
-0.123019755 0.11895714 0.9852489 
0.30215445 0.6899894 0.6577366 
-0.1348206 0.27658615 0.9514849 
0.048743695 -0.5158425 0.85529566 
0.8096956 -0.023312466 0.586387 
-0.16186336 -0.758159 0.6316608 
-0.10186233 -0.37142575 0.92285806 
0.11306664 0.64807963 0.7531327 
0.18422504 0.73315114 0.65463775 
-0.14510037 0.63789403 0.7563313 
-0.3102147 0.2860816 0.9066004 
-0.36837664 0.071266495 0.92694116 
-0.35465768 -0.32785007 0.87563264 
0.3317534 0.28673396 0.8987343 
0.086403094 -0.17239502 0.9812311 
0.69114286 0.25840953 0.67494154 
-0.23957002 0.817045 0.5244463 
-0.016656537 -0.1210381 0.9925082 
-0.06403084 0.22469036 0.97232425 
-0.3383044 0.77293915 0.5367638 
-0.49345252 0.8419986 0.21804343 
-0.06457992 0.07561087 0.995044 
0.47881147 0.69602287 0.53506243 
0.40814847 0.44360435 0.7978911 
0.72736615 0.6786965 0.10153647 
-0.18470007 0.8271218 0.5308065 
-0.57997423 0.11435915 0.806568 
0.24020219 0.13854441 0.96078527 
0.17896225 0.23878448 0.95443934 
-0.35147172 0.88162005 0.31498212 
0.66875106 0.08127614 0.73903066 
0.068291984 0.24911457 0.9660632 
-0.48305756 0.5985529 0.63905394 
-0.39890513 0.31174225 0.8623755 
-0.26172557 -0.026184963 0.96478707 
0.025519697 -0.035475634 0.99904466 
0.26066884 -0.024443107 0.9651188 
-0.12389349 0.37360075 0.9192785 
0.5384233 0.67401433 0.5057719 
-0.5493944 0.57369417 0.60748726 
-0.5376173 0.77602607 0.3297746 
-0.88900864 0.13360745 0.43796426 
-0.55482906 -0.1848443 0.81117034 
-0.5218986 -0.010043508 0.8529485 
-0.8773892 0.3241203 0.35374308 
-0.38427085 0.75644064 0.5292765 
-0.35670257 0.8653143 0.35212857 
0.045989692 0.6267166 0.77788895 
-0.34034982 0.37908703 0.860497 
-0.12064466 0.5066703 0.85365695 
0.6880226 0.11843892 0.7159589 
0.28951183 0.40224358 0.86855227 
-0.27855703 0.95387083 0.11196619 
0.121116795 0.99148655 -0.047804262 
-0.68687886 0.56255686 0.46013823 
0.061421994 0.83748156 0.54300284 
-0.07575605 0.7499446 0.6571485 
0.08769253 0.75247943 0.65275174 
0.16567475 0.72832817 0.66489846 
0.15083572 0.77892864 0.6087026 
-0.7601168 0.64236146 -0.0979507 
-0.56017125 0.7297649 0.391984 
0.4618204 0.19436812 0.86541504 
0.44564056 0.5038314 0.739972 
0.10667409 0.47030556 0.8760328 
0.2693681 -0.038902003 0.96225125 
-0.6045514 -0.4017177 0.6878522 
-0.64685744 -0.35122463 0.67691714 
0.13397907 -0.8179505 0.55946994 
0.22065207 0.028695965 0.97493035 
0.003336004 0.75604725 0.65450865 
0.46463746 0.058234066 0.88358414 
0.083419316 0.581821 0.8090276 
0.21405448 0.75334215 0.621817 
-0.4503629 0.8202996 0.35253638 
0.036392234 0.99731493 0.06354937 
-0.7046606 0.705819 -0.07261588 
0.03309097 0.9993632 -0.013355546 
0.07486387 0.9954951 0.058181264 
0.3756277 0.9159864 0.14097095 
0.85659593 0.3684382 0.36124343 
0.47210357 0.8204642 0.32242358 
0.52719986 0.7013252 0.47979507 
-0.26881906 0.5745111 0.7730934 
-0.42975193 0.554986 0.71225274 
-0.47402024 0.03675664 0.8797465 
-0.6605979 -0.58675385 0.4683273 
-0.06637882 0.5601216 0.8257468 
-0.6644249 -0.12185283 0.7373544 
-0.6353727 0.03407752 0.77145344 
-0.14049934 0.08360243 0.9865448 
-0.19369908 0.41245884 0.8901451 
-0.0006457965 -0.014923715 0.9998884 
-0.41188204 0.7370577 0.53581643 
-0.40228376 0.8960938 0.18757364 
0.61536866 0.5397731 0.5744271 
0.16678411 0.61137086 0.77356887 
-0.24259302 0.5560652 0.7949466 
0.4004371 0.8239824 0.40087813 
0.24683899 0.9600105 -0.13210025 
0.39543384 -0.043617394 0.9174583 
0.073833674 -0.36482197 0.9281453 
-0.26290777 0.13466273 0.95537716 
0.13711725 0.19112033 0.97194237 
0.25784865 0.6384501 0.7251865 
0.86587435 0.20716362 0.45535153 
0.3307331 0.26526216 0.9056775 
0.12366904 0.29306978 0.94805914 
0.108422376 0.9136761 0.39171514 
-0.32909155 0.83199894 0.44662791 
0.00418907 0.81716746 0.5763852 
0.2753418 0.39632738 0.875849 
0.80846906 0.5043488 0.30333182 
0.098893195 0.6477032 0.7554473 
-0.21128236 -0.14125499 0.96716434 
-0.50294554 0.4294887 0.75005686 
-0.7732027 0.13756008 0.6190596 
-0.37570724 0.9214138 -0.0992014 
-0.54664797 0.77297497 0.3220026 
-0.06398032 0.9962915 -0.057531383 
0.65220547 0.7338854 0.18984276 
0.89238375 0.033698786 0.45001745 
0.709497 0.013433104 0.70458055 
0.20910974 -0.57355124 0.79203045 
0.6054323 -0.11825526 0.7870625 
0.52010876 -0.07730941 0.85059404 
0.09302611 0.44908097 0.88863516 
-0.4216431 0.4263927 0.800254 
-0.024226164 0.96814805 0.2492039 
0.08223556 -0.08934201 0.99260026 
0.49526325 -0.047192756 0.8674602 
0.42420942 -0.377767 0.82300586 
-0.54057413 0.53084564 0.6526735 
-0.26146543 0.75556314 0.6006333 
-0.6857463 0.5460843 0.48119032 
-0.63900983 0.4727746 0.6067541 
0.34516189 0.116520375 0.9312821 
0.5091183 0.31485328 0.80104053 
0.43916303 0.03629217 0.897674 
0.10725556 0.76976603 0.62925076 
0.0334919 0.4821206 0.8754645 
-0.5589797 -0.071220696 0.826117 
-0.72075874 0.39890125 0.5669081 
-0.7985004 0.335097 0.5001072 
-0.23289968 0.3987486 0.88699335 
-0.30292204 0.21518208 0.92840457 
0.1484824 0.90586096 0.39669746 
0.52323544 0.2329019 0.8197447 
-0.3187642 0.3000647 0.8990832 
-0.74329776 0.48364377 0.46216577 
-0.6561129 0.070526496 0.75136 
-0.13504125 0.73557156 0.66385126 
-0.37479585 0.6448067 0.6661475 
-0.086778924 0.9762543 -0.1984869 
0.21846522 0.8778442 -0.42621896 
0.38606927 0.88748914 -0.25162214 
-0.49851876 0.8625978 0.08604668 
-0.051322754 0.70023346 0.7120668 
-0.13387485 0.91712284 0.37545097 
0.042941254 0.85944015 0.5094299 
-0.1624046 0.78543496 0.5972577 
0.06601736 0.85162294 0.51998097 
0.19340847 0.78717893 0.5856131 
0.41634387 0.8925437 0.17327335 
0.2463269 0.9574369 0.15045841 
0.8884993 0.34284082 0.305007 
0.18099885 0.15246038 0.97159415 
-0.1390075 0.51581997 0.8453442 
0.5823939 0.040329445 0.81190574 
0.183455 0.4602358 0.86863524 
0.4535164 0.12172522 0.8828963 
0.17450933 0.326598 0.92891353 
0.29659864 0.11293041 0.9483016 
0.3470934 0.55834943 0.75350654 
0.46118996 0.13940902 0.8762814 
0.09439461 0.37231764 0.9232927 
-0.5057553 -0.13003397 0.85282046 
-0.5546725 0.3852374 0.7375166 
0.07436577 0.45331824 0.8882412 
-0.52765447 0.7772498 0.34272933 
-0.5345817 0.8365194 -0.12024021 
-0.532022 0.8434889 0.07402188 
-0.5396512 0.54345495 0.6429879 
-0.026304225 0.19064263 0.981307 
-0.36655927 0.55761814 0.74477935 
-0.26224265 0.45068306 0.85329574 
0.10733551 0.42737323 0.8976811 
0.2767297 0.0066739353 0.9609247 
0.31728935 0.1407382 0.93782747 
0.61495465 -0.3209916 0.7202744 
-0.006204759 0.2674185 0.9635605 
0.024566183 0.99785596 0.06066432 
0.5374667 0.76462626 0.3556351 
0.24992323 0.39576015 0.8836925 
0.8884595 0.13187891 0.43959954 
0.56655157 0.20448719 0.79825073 
0.5859986 -0.42440206 0.69028157 
0.7924375 -0.49837872 0.35165542 
-0.4655077 -0.45234182 0.7607164 
-0.78542316 0.19340873 0.5879657 
-0.83079255 0.52987266 0.17034873 
-0.5284774 0.5849404 0.6152695 
-0.41856998 0.5807537 0.69822943 
-0.3373858 0.8013912 0.49390602 
-0.75546944 0.34225094 0.55868626 
-0.49199206 0.8042583 0.3333352 
0.3670121 -0.17846972 0.91293526 
0.3959483 0.31767288 0.86157346 
0.2808669 0.20806096 0.93692297 
-0.036951914 0.5177254 0.85474855 
0.24733901 0.88878775 0.38584962 
0.3116486 0.74907607 0.5846026 
-0.4832336 -0.09991127 0.8697719 
0.113695934 0.91376203 0.39001587 
-0.24765411 0.74514616 0.61921304 
-0.25956777 -0.09849403 0.9606891 
-0.22537445 0.5244634 0.82106316 
-0.68327516 0.1655499 0.71114576 
0.32258177 0.18214913 0.9288503 
-0.40824038 0.39694548 0.82205474 
-0.18279804 -0.28443107 0.94110775 
-0.3375749 0.2588557 0.90500665 
-0.6898671 0.16534026 0.7048022 
0.09135477 0.048857566 0.9946192 
-0.294557 -0.44132945 0.8476228 
0.30412635 0.14016373 0.9422639 
0.53370905 0.79762924 0.28096667 
0.8837139 0.46802744 -0.000366799 
0.17622098 0.80893075 0.560872 
0.20806658 0.41062465 0.88774765 
0.23923044 0.27360675 0.9316159 
0.3149421 0.33468238 0.8881437 
-0.04994086 0.85334337 0.5189519 
0.23494796 -0.016645415 0.9718655 
-0.4866142 -0.016340127 0.8734642 
-0.4213922 -0.34782067 0.8375258 
-0.29438287 -0.015851976 0.9555561 
-0.5952764 0.11925838 0.7946216 
-0.0029787237 -0.16392645 0.9864681 
0.17357765 0.4792707 0.86033165 
-0.45457527 0.60040885 0.65792906 
-0.48519844 -0.32853344 0.8103383 
-0.764023 0.025748603 0.644675 
0.05909304 0.32868314 0.9425897 
0.031711485 0.063271135 0.99749243 
0.5843325 -0.15017444 0.7974981 
0.3880467 -0.006211412 0.9216188 
-0.4112288 -0.23395312 0.8809977 
-0.5305361 -0.05653945 0.8457747 
-0.7314196 -0.19323194 0.6539777 
-0.6017159 -0.15530576 0.7834654 
-0.0016672284 0.60350114 0.79736036 
-0.36467996 0.046674483 0.92996246 
-0.16655609 -0.53443 0.8286397 
0.19520785 -0.48950255 0.84987134 
0.6395135 -0.21285625 0.73872507 
-0.09229233 -0.30223623 0.94875467 
0.30851954 0.55298156 0.7739684 
-0.008615 -0.43992284 0.8979943 
-0.1227307 -0.59981245 0.79067194 
0.28025353 -0.24013449 0.92940485 
-0.14521754 -0.82293713 0.54925996 
0.03141365 -0.59146696 0.80571705 
0.24848332 0.74051887 0.62441 
0.37248823 0.45812854 0.8070755 
0.8381367 0.33309552 0.4319426 
0.35200563 0.17614491 0.9192743 
0.3443427 0.17745684 0.92192036 
-0.29676685 0.31257477 0.90234494 
0.22945979 0.8388886 0.4935729 
-0.4046434 -0.31975728 0.8567492 
0.23322672 -0.06426987 0.97029626 
0.6213811 0.07498303 0.77991223 
-0.3447331 -0.51138455 0.78717524 
0.011287982 -0.43761167 0.8990933 
-0.14618988 0.66946125 0.7283201 
-0.7110922 0.6395088 0.29219243 
-0.20973149 -0.11897341 0.9704938 
0.277755 -0.13621187 0.9509462 
0.4407077 0.17061341 0.8812876 
0.5321882 0.316259 0.7853382 
-0.3730229 -0.41179377 0.8314325 
-0.029841427 -0.2983672 0.9539846 
-0.020008544 -0.67705953 0.73565626 
-0.318787 -0.11528584 0.94078916 
-0.48693505 0.019469226 0.87322116 
-0.47569138 -0.4073826 0.77958786 
-0.6179092 -0.05426518 0.7843746 
-0.5534845 -0.53036106 0.64216214 
-0.29012516 0.07845825 0.9537671 
-0.51305664 -0.24221087 0.8234725 
-0.04336446 -0.21429418 0.9758061 
0.33722025 -0.430658 0.83714765 
0.038498737 -0.04937591 0.99803805 
0.50652665 0.16697264 0.8459024 
-0.34742248 0.41036275 0.8431489 
-0.59209085 0.38272226 0.70919126 
-0.56095785 0.188028 0.8062084 
-0.07136865 -0.62024623 0.78115374 
-0.49503753 -0.17653398 0.8507489 
-0.20425442 -0.1092785 0.9727993 
0.41916347 0.5221535 0.7427367 
-0.17936252 0.45236087 0.87361246 
-0.85245305 0.4338196 0.29176092 
0.60096824 0.6202481 0.5041126 
0.3101215 0.17532791 0.93439007 
0.5626955 0.3090413 0.766725 
-0.010731984 0.8990748 0.43766364 
0.008232113 0.66727954 0.7447619 
-0.40148434 0.8240524 0.39968506 
-0.5293222 0.6740749 0.51520985 
-0.3457697 -0.09375325 0.93362397 
-0.099422045 0.54743004 0.8309246 
-0.18376188 0.01609814 0.98283905 
0.087937534 0.7928111 0.6030902 
-0.5610029 0.4892725 0.66774863 
-0.6600174 0.7369679 0.14579214 
-0.3889953 0.8005745 0.4558106 
0.47236744 0.5442975 0.69325995 
0.3878922 0.51046884 0.7674382 
0.7282392 0.009464285 0.68525785 
-0.32011572 -0.7943277 0.5163037 
-0.049374435 -0.5401696 0.84010655 
-0.113743894 -0.24217102 0.9635433 
0.06783644 0.03212783 0.99717903 
0.29839453 -0.6601578 0.689313 
-0.50784814 0.6629505 0.55007905 
0.27706465 0.8497798 0.44845235 
0.23459218 0.3017369 0.9240787 
-0.07950931 0.4670194 0.88066524 
-0.12030641 0.99237645 -0.02674814 
-0.28043053 0.5252032 0.8034428 
0.2584958 0.56181526 0.78583944 
-0.5910663 0.62592036 0.5087873 
-0.6043947 0.79205155 -0.08579929 
0.050092887 0.50085235 0.86408204 
0.0033634908 0.7396605 0.67297184 
-0.0036395662 0.91975814 0.3924689 
-0.08685273 0.86150664 0.50026304 
-0.31590778 0.5982346 0.7364223 
-0.28539145 0.24429366 0.9267537 
-0.36040598 -0.15307727 0.9201494 
-0.44859233 -0.61465377 0.6488188 
-0.39752364 0.37871975 0.8357909 
-0.794981 0.44162923 0.41589534 
-0.74096113 -0.21966702 0.63460475 
-0.5542091 0.19002917 0.8103958 
-0.2213455 0.124709554 0.96718866 
-0.011141547 0.8120084 0.5835395 
-0.3749796 0.0944316 0.922211 
-0.21501587 0.81666785 0.53555745 
0.75074625 0.37899962 0.54105395 
0.18953934 -0.10460072 0.9762856 
-0.2823488 0.3842489 0.87899494 
-0.052046806 0.9772692 0.20551421 
0.11540983 0.48343134 0.8677411 
-0.11453229 0.39779776 0.9102964 
0.3313373 0.3669889 0.86921513 
0.4611274 0.6866213 0.56206125 
0.22741662 0.70929676 0.66721797 
0.21888998 0.80791974 0.5471315 
0.122836195 0.20921743 0.97012347 
0.00577366 -0.23351994 0.9723349 
0.27346128 -0.14931117 0.95022374 
0.23399398 -0.21686736 0.9477423 
0.7360566 0.37734872 0.5619863 
0.7799847 0.44310135 0.4419109 
0.22290044 0.7501785 0.6225334 
0.44541186 0.5032139 0.7405296 
-0.39307347 0.7277651 0.5620064 
-0.41609168 0.8802917 0.22793463 
-0.24941304 0.27617735 0.9281806 
-0.40458086 0.7572777 0.51268405 
0.14944656 0.85850406 0.4905472 
0.07063008 0.8584133 0.50807303 
-0.19152997 0.87641615 0.4418271 
-0.22655942 0.96407056 0.13870443 
0.4465643 0.8945034 0.021069696 
0.50885546 0.15780394 0.8462647 
0.42949942 0.51907355 0.73898107 
0.52148575 0.18401428 0.8331815 
0.048821926 -0.038559765 0.99806297 
0.31871998 -0.19803196 0.92693096 
-0.3122107 -0.101396054 0.94458634 
-0.42689878 -0.0040778145 0.90429026 
0.048930295 -0.26961866 0.9617233 
-0.1795323 -0.23581015 0.9550716 
0.12111967 -0.08681381 0.98883444 
-0.33684912 0.34190702 0.8772869 
-0.38196135 0.25338775 0.88876325 
-0.62480545 0.53597504 0.56775796 
0.43336463 0.6951938 0.5734986 
0.7813616 0.28811446 0.55359215 
-0.22758435 0.19410239 0.9542168 
0.38681313 0.32880098 0.8615483 
0.056355532 0.79367006 0.6057326 
-0.16984977 0.7837719 0.5973715 
0.34731016 0.108134225 0.9314949 
-0.0073969914 0.56054246 0.82809275 
-0.077067316 0.6073511 0.7906866 
-0.33370936 0.48172802 0.8102939 
-0.13017155 0.05173637 0.9901408 
0.1298653 0.2670089 0.9549039 
-0.4344796 -0.0790787 0.8972035 
0.1776143 0.74970347 0.6374935 
-0.7048349 0.7010847 0.108111925 
-0.8258394 -0.45332783 0.33538532 
-0.9136818 0.16141167 0.37300408 
0.0063913846 0.59416 0.8043215 
-0.42153996 0.8939277 0.15230727 
0.39064044 0.9150106 -0.10077555 
0.44278267 0.8430534 -0.3052944 
-0.26369512 0.954888 0.13657954 
0.52184963 0.7399338 0.4244656 
0.7408974 0.6261496 0.24291529 
0.37003675 0.91995525 -0.12944192 
0.82619756 0.13480693 0.54701436 
0.7698799 0.6343876 0.06955212 
0.48330638 0.46264136 0.74322134 
0.09266298 0.7279388 0.67935175 
-0.08317556 0.87383604 0.47905362 
0.3477038 -0.046585523 0.9364464 
0.03559349 -0.023070583 0.9991001 
0.029750507 0.08919411 0.9955699 
-0.2918242 0.14854598 0.9448666 
0.5272625 0.29471818 0.79695386 
0.4090219 0.436084 0.8015809 
0.39620346 0.44972375 0.80048203 
0.29159784 -0.1442353 0.9456041 
0.26379234 -0.3795267 0.88677686 
-0.14654697 -0.5750144 0.8049115 
-0.38294193 0.120206535 0.9159181 
-0.38422036 -0.18721813 0.9040598 
0.31518933 -0.061608482 0.94702697 
-0.13181819 0.0036269878 0.9912673 
-0.062687986 0.19375525 0.97904503 
-0.2152813 0.7400134 0.63720804 
-0.9139769 0.38202643 0.13675591 
-0.4051785 0.44087523 0.80091166 
0.37038925 0.5726576 0.7313516 
-0.82568884 0.4725357 0.30813637 
0.39373747 0.05857436 0.9173548 
-0.58153546 0.32846087 0.7442648 
0.16629843 0.24727274 0.95456856 
0.23466578 -0.4560494 0.8584585 
0.10946576 -0.5309979 0.8402729 
-0.2514691 0.49078292 0.8342034 
-0.1509256 0.8543555 0.497291 
0.46252924 0.7813757 -0.41894987 
0.68640786 -0.016903166 0.7270204 
0.64092034 0.5766382 0.50666517 
0.74630314 -0.108372286 0.6567245 
0.26166436 -0.84566903 0.4651621 
0.47988355 -0.7566402 0.4440803 
-0.25456113 -0.514377 0.8189109 
-0.51403815 -0.34213144 0.7865818 
-0.54110193 0.39429614 0.7427916 
-0.4849925 0.41860527 0.7678229 
-0.30895832 0.3829056 0.8705906 
-0.7059483 0.36404094 0.6075452 
0.09759118 -0.17238961 0.9801826 
-0.17381816 0.25073433 0.95232326 
-0.5809189 -0.19885185 0.78929794 
0.10388829 -0.14182869 0.98442465 
0.5620491 0.6909831 0.4545803 
0.19767271 0.20611048 0.9583549 
0.051152177 0.99606323 -0.07239815 
0.4884849 0.31188992 0.81492776 
0.67377275 -0.24953456 0.69553065 
0.62250173 0.5474951 0.55923223 
0.6015042 0.78127384 0.16674516 
0.3668914 0.7348018 0.57048845 
0.04619874 0.59551513 0.8020147 
0.38012353 0.8086747 0.44894478 
0.1821295 0.09729755 0.97844887 
0.34405306 -0.27310497 0.8983547 
-0.16659503 -0.2993564 0.93948495 
-0.39708817 -0.27307656 0.8762136 
-0.2561753 -0.17115809 0.9513565 
-0.42084917 0.68169475 0.59848005 
-0.47617567 -0.01750765 0.87917584 
-0.46057454 0.6048095 0.64967424 
0.35778242 0.83662826 0.41478312 
0.13433623 0.9823969 -0.12980808 
0.18325287 0.9694538 0.16302736 
0.61484337 0.74069357 0.27081493 
-0.3372251 0.6128227 0.71465206 
0.6818226 0.16520232 0.7126193 
0.7393169 0.38034928 0.5556483 
-0.057221435 -0.007719266 0.99833167 
-0.27641016 -0.10932204 0.9548016 
-0.37943542 0.08179368 0.9215957 
-0.050366536 0.39547136 0.91709626 
-0.46748242 0.19664887 0.86185235 
-0.5275825 0.12584022 0.8401315 
0.10673624 0.08328809 0.99079293 
-0.30060357 0.2966709 0.9064347 
-0.60535127 0.18592477 0.77393925 
-0.8317613 0.43102396 0.34984517 
0.34110138 0.020782407 0.9397968 
0.17993777 0.18439598 0.96624047 
0.3816324 0.18058264 0.9065024 
0.45091897 0.50449103 0.7363158 
-0.5569373 0.3162443 0.76799124 
-0.60735005 0.46322855 0.64540315 
-0.612958 0.156737 0.7744134 
-0.15791756 0.3438741 0.92564183 
0.43416995 0.48384413 0.7598627 
0.20090269 -0.11917892 0.9723346 
0.7820602 -0.44550765 0.4357806 
0.6792382 -0.3178717 0.66150826 
0.7456448 -0.24380389 0.62013996 
0.27555138 -0.55688965 0.7835466 
0.21213914 0.02931914 0.9767996 
0.4984778 -0.8107636 0.30689147 
0.06282572 -0.7861307 0.61485887 
-0.40287155 -0.3908737 0.8275943 
0.25548023 -0.7113582 0.6547515 
0.8291217 -0.32484406 0.45500934 
0.46676987 0.55057085 0.69209653 
0.62177426 -0.2368578 0.7465221 
0.42401212 0.61256796 0.6670639 
0.56726 0.12805672 0.81352174 
-0.49721223 0.27144822 0.8240727 
-0.37773788 0.32403767 0.8673602 
-0.03702627 0.36640525 0.92971843 
-0.015810374 -0.017224852 0.99972665 
0.6293094 -0.022646666 0.7768249 
-0.036990043 0.036387924 0.99865294 
0.05697995 -0.17602772 0.9827348 
0.40284738 -0.49790466 0.76798755 
0.6396897 -0.012144634 0.7685373 
-0.58081645 0.51930976 0.626873 
0.68194216 -0.09172944 0.7256313 
0.16565439 -0.21870822 0.96162647 
0.5452801 -0.020413263 0.8380054 
-0.3260731 -0.07833035 0.9420938 
-0.09334429 -0.7434055 0.6622954 
-0.22105384 -0.22951116 0.9478712 
-0.033853874 -0.5058216 0.8619736 
0.22134484 -0.64273244 0.73341775 
0.1801984 -0.1952517 0.9640567 
0.1422174 -0.42538399 0.8937688 
-0.2812689 -0.19705889 0.93917817 
-0.15559384 -0.41000906 0.8987119 
-0.26215217 0.13891383 0.9549761 
-0.03431942 -0.49790522 0.8665522 
0.16939902 -0.92999566 0.32620856 
-0.007772011 -0.27913308 0.96022105 
0.61275536 0.06365829 0.78770465 
0.6507542 0.017453855 0.7590878 
0.12060838 0.110334076 0.98654956 
-0.2939642 0.40165386 0.86732876 
-0.89503604 0.031254325 0.44489738 
-0.5251798 0.43135244 0.73356754 
-0.8144483 0.36579707 0.4504072 
-0.9445888 -0.02617315 0.32721102 
-0.814989 0.36856335 0.44716212 
-0.74857455 0.6611514 0.050149817 
-0.26690322 0.88047653 0.39182112 
0.17418464 0.68862385 0.70388705 
0.26176164 0.78878003 0.5561539 
0.48314348 0.2250304 0.8461287 
0.6159231 0.25884855 0.74406743 
0.22113338 0.20730731 0.95295525 
-0.36721468 0.017345764 0.9299745 
0.5140413 0.08104596 0.853928 