# OOMMF: rectangular mesh v1.0
# Segment count: 1
# Begin: Segment
# Begin: Header
# Desc: Time (s) :  3.700000000000001e-08
# Title: m
# meshtype: rectangular
# meshunit: m
# xbase: 2e-09
# ybase: 2e-09
# zbase: 5e-10
# xstepsize: 4e-09
# ystepsize: 4e-09
# zstepsize: 1e-09
# xmin: 0
# ymin: 0
# zmin: 0
# xmax: 1.024e-06
# ymax: 1.024e-06
# zmax: 1e-09
# xnodes: 256
# ynodes: 256
# znodes: 1
# ValueRangeMinMag: 1e-08
# ValueRangeMaxMag: 1
# valueunit: 
# valuemultiplier: 1
# End: Header
# Begin: Data Text
-0.029221635 0.870509 0.49128443 
-0.37998438 0.76427746 0.52104867 
0.49044493 0.8566758 -0.15990771 
0.8205546 0.5442532 -0.17458114 
0.28797114 0.8262151 -0.48419145 
0.5796032 0.7570687 0.3015081 
0.8151686 0.08588059 0.5728218 
-0.28898627 0.74850094 0.59685284 
-0.19088419 0.7750921 0.60232496 
-0.24523869 0.55384797 0.7956824 
0.3184975 0.08691282 0.9439309 
0.04415412 0.896779 0.44027025 
0.6124777 0.593463 0.52218086 
-0.28117678 0.51796037 0.80787176 
-0.135718 0.6293349 0.7651916 
-0.47879264 0.45714423 0.7495178 
-0.095545374 0.91089964 0.40141356 
0.048749097 0.85890704 0.50980616 
0.4760442 -0.047709133 0.87812626 
0.2662725 -0.007582957 0.963868 
0.73810637 0.14836332 0.65816975 
0.6991794 -0.16835167 0.6948424 
0.3275372 0.21760093 0.9194396 
0.49287438 -0.20448145 0.8457318 
0.05128262 -0.38271555 0.92244184 
-0.5049419 0.2605389 0.8228932 
0.047557723 0.94518834 0.32304382 
0.061495513 0.7180764 0.69324213 
-0.90665275 0.23950706 -0.34729987 
-0.47670782 0.87302613 0.102834724 
-0.38936657 0.7294554 0.5623954 
0.9296193 0.259064 -0.26209512 
0.30009785 0.7301008 0.61391705 
0.3231976 0.69226575 0.645222 
-0.01078703 0.7573874 0.6528767 
-0.008233947 0.4251153 0.9051018 
0.31509674 -0.37617034 0.87132657 
0.03904933 0.23714335 0.97068954 
0.114217944 0.6051001 0.78791386 
-0.21864457 0.590953 0.77651083 
-0.14374155 0.4919368 0.8586831 
-0.29326397 0.4551909 0.84071255 
-0.7458703 0.4330689 0.5060917 
-0.5541739 0.5311881 0.6408827 
-0.6589382 0.2869708 0.6953044 
-0.04558911 -0.3655895 0.9296591 
0.7278404 -0.29039595 0.6212235 
0.43656617 0.7373396 0.5155001 
-0.27135822 0.3922244 0.87893385 
-0.9020311 0.25490817 0.34837 
-0.68824494 0.61075664 0.39152938 
-0.69110334 0.08522134 0.71771413 
-0.84206516 0.44437322 0.30571038 
-0.5960012 0.73220587 0.3296319 
0.37623718 0.882775 -0.2813431 
0.029036311 0.68556803 -0.72742933 
-0.73685026 0.65156907 0.18030405 
-0.9738504 0.21762381 -0.06523253 
-0.57665235 0.6783106 -0.4553756 
-0.29186943 0.7594534 -0.5814146 
0.74410427 0.44502577 -0.49825802 
0.98683745 0.061693113 0.14948596 
0.50080645 0.25636128 0.82672364 
0.51801395 -0.21788284 0.82715696 
0.43725872 0.8488975 0.29694754 
0.35069743 0.89646035 0.27086967 
0.36419013 0.53429025 0.76282334 
-0.29317695 -0.14175339 0.9454911 
-0.09450588 0.17077519 0.98076737 
0.01712918 0.3295158 0.94399476 
-0.31741545 0.8674784 0.3830518 
-0.17842564 0.8724585 0.45495093 
-0.23389426 0.57912266 0.78096765 
0.11827281 0.48407316 0.8669975 
-0.46986333 -0.23710509 0.8502998 
-0.13034877 -0.6568838 0.74263924 
-0.55192584 -0.685249 0.47519657 
0.76062894 0.19226633 0.62006235 
0.6532636 0.62217826 0.4314405 
-0.9045673 0.36681548 0.21726571 
-0.6243705 0.77415925 -0.104110114 
-0.16641305 0.7883602 0.59227943 
-0.15393603 0.7336043 0.6619128 
0.39501947 0.7864529 0.4748172 
0.7158865 0.373514 -0.58991003 
0.6853796 0.6629135 0.3013314 
0.16749321 0.85974157 0.48248363 
-0.3711626 0.17025961 0.91282535 
0.09335763 0.3843512 0.91845447 
-0.29942995 -0.367272 0.8805981 
-0.6746179 0.28380752 0.681428 
-0.5103422 0.59122 0.62450767 
-0.33041027 0.9437937 0.009082765 
-0.5246092 0.8486566 -0.06757993 
-0.5741852 0.7884299 0.2206575 
-0.7169349 0.69698524 -0.014696704 
-0.06440524 0.78496873 -0.61617875 
-0.07729221 0.91585916 -0.3939899 
0.33301923 0.85627496 0.39483085 
-0.2693098 0.9622983 -0.038137067 
-0.23211747 0.96938175 0.08012855 
0.023730898 0.9803353 0.19590746 
0.7297537 0.27021417 0.62804776 
0.44789213 0.81804883 0.36081672 
0.19607918 0.45365143 0.8693407 
-0.28561565 0.7074658 0.64646417 
-0.1700779 0.63515764 0.75342435 
-0.675001 -0.10100209 0.7308709 
0.043872617 0.6884201 0.7239841 
-0.44923985 0.4709638 0.75919473 
-0.17609176 0.5550894 0.8129376 
0.3494947 0.4712495 0.8098009 
-0.17128478 0.37772107 0.9099387 
-0.16595034 0.6212515 0.76583755 
-0.44218585 0.83036447 0.3390675 
0.16645245 0.96077085 0.22184004 
0.34136474 0.93081313 0.13060287 
0.6840361 0.7276126 -0.051716123 
0.5839527 0.7961125 0.1587581 
0.6497189 0.64099056 0.40865213 
0.5219236 0.8512085 -0.05513624 
0.77476805 0.557331 0.29852405 
0.34741518 0.20584224 0.91483974 
-0.53075117 0.6288809 0.5681655 
-0.58544034 -0.6026194 0.5423187 
-0.69819736 0.19317758 0.6893496 
-0.19549356 -0.043378413 0.97974515 
0.0063649323 -0.2500083 0.96822274 
0.43127203 0.8988558 0.077864066 
0.6345576 0.7000987 -0.32741186 
0.8001187 0.5955903 -0.071291655 
0.8912149 0.2797418 0.35704416 
0.3854198 0.42661148 0.81820184 
0.16501078 0.8944573 0.4155932 
-0.3561331 0.8013382 0.48065206 
-0.37807 0.9248088 -0.042330153 
-0.73250735 0.4269643 0.53022116 
-0.16048998 0.9462625 0.2807674 
0.30837685 0.8546405 0.4177241 
0.088890806 0.7017171 0.70688874 
-0.066682704 0.44819772 0.891444 
0.33394325 -0.0021345054 0.9425908 
0.69737893 0.5855878 0.41321865 
0.69162863 0.41139263 0.59363794 
-0.35952544 0.86661285 0.34601125 
0.14087488 0.98784673 0.06567546 
0.034016117 0.8460733 0.53198004 
0.054382946 0.7564505 0.6517862 
0.3259997 0.6898095 0.64644194 
0.08219644 0.49468976 0.8651739 
-0.2133082 -0.10327675 0.971511 
-0.5908474 -0.25023362 0.7669958 
-0.040271882 -0.037319046 0.99849164 
0.40521255 0.17906393 0.8965149 
0.02138201 0.01418105 0.99967086 
0.07125794 0.845911 0.52854234 
-0.3885467 0.71639925 0.5794856 
-0.72209734 0.18409401 0.666847 
-0.6977096 0.32040274 0.6407366 
-0.37277696 0.91530216 -0.15251014 
0.49500284 0.7776452 -0.38760832 
0.5841648 0.6308849 -0.51062304 
0.68040705 0.5243393 0.5119713 
0.63495165 -0.19771588 0.7468232 
-0.29684407 0.27323255 0.91500145 
-0.08584724 -0.0463856 0.99522793 
-0.53849244 -0.20562522 0.81715614 
-0.4646558 -0.20892161 0.8604922 
0.0043094 -0.21692196 0.97617954 
0.53088397 0.27326757 0.8021764 
0.4469487 -0.6257106 0.63931465 
0.3761195 0.5626622 0.7361695 
0.58797055 -0.021063365 0.8086081 
-0.15739112 0.15511523 0.97527814 
0.16353466 -0.14072467 0.97644925 
-0.657277 -0.42017993 0.6256483 
0.094797835 0.11806255 0.98847085 
0.7809747 0.36717585 0.5052333 
0.90297824 0.30615827 -0.3014922 
0.5855124 0.24906099 0.77145576 
0.33547476 0.92505544 0.17812674 
-0.14913759 0.83328825 0.5323427 
0.8661418 0.1593077 -0.47372934 
0.5730809 0.47961548 -0.6644903 
0.9328506 0.27725613 0.23004131 
0.7234389 0.08920882 0.6846006 
0.6224788 0.104506515 0.7756278 
-0.6802206 0.5490288 0.48566172 
-0.017596854 0.9198739 0.39181957 
-0.57578844 0.7328366 0.3625167 
-0.7161013 0.64818597 0.25894785 
-0.36063838 0.7173194 0.5961483 
-0.86092794 0.32927027 0.3877941 
-0.49481812 0.52960557 0.6889652 
-0.561687 0.3566095 0.7465503 
0.31966048 0.40033147 0.85880846 
-0.2487573 0.59608483 0.76341516 
0.116972 0.4937562 0.86169744 
-0.123282135 -0.34754404 0.92952394 
-0.18863733 -0.5058585 0.8417382 
-0.80815005 -0.45586652 0.37293327 
-0.81206423 -0.45374337 0.3669723 
-0.74135005 -0.012463004 0.6710028 
-0.6051114 0.7961284 -0.00445134 
-0.57185614 0.6977876 0.43136203 
-0.68954104 0.6597778 0.298708 
-0.121257074 0.7478292 0.6527237 
0.24223197 0.9506419 -0.19391714 
0.8782793 0.25140926 0.4067174 
0.41228008 0.18134838 0.8928259 
-0.30578625 -0.22227366 0.92579114 
-0.0076247305 0.859664 0.51080304 
-0.5758953 0.7819256 -0.23861441 
0.34601662 0.76142144 0.5481878 
0.16159868 0.055832222 0.9852759 
0.39907 -0.26420504 0.87803125 
0.16128996 0.65603113 0.7372983 
0.46376285 -0.1209116 0.87766993 
0.13124487 0.3915499 0.91074896 
-0.34035432 0.47325265 0.81252134 
0.057576023 0.62819374 0.7759237 
0.2750176 0.32756522 0.9039173 
0.35980088 0.5563489 0.74901223 
0.22312073 -0.15414087 0.96252674 
0.45021215 -0.35107744 0.82100767 
-0.1548544 0.95595086 0.24935551 
0.3145561 0.93419635 0.16831997 
0.5858596 0.74782914 0.31228223 
0.44180843 -0.22907898 0.86736846 
-0.10936862 -0.13106096 0.98532313 
0.023388844 0.36535457 0.9305746 
-0.0012857765 -0.7360954 0.67687654 
0.58939314 -0.4537247 0.66839343 
0.37822318 0.87798464 0.2934115 
0.987531 0.07787177 0.13681561 
0.43544874 -0.6002691 0.6708662 
0.5222989 -0.14126045 0.84098125 
0.0097324075 0.6855114 0.7279969 
0.43841898 0.6019892 0.6673813 
0.5573191 0.36921027 0.74369305 
0.91755646 0.3959196 0.03657496 
0.4714967 0.74505746 0.4717843 
0.37258032 0.9028375 0.21463525 
0.6692819 0.7266437 0.15508303 
0.0615686 0.5938105 0.802246 
-0.012172557 0.746307 0.6654906 
0.3232977 0.46969315 0.8215028 
0.20066711 0.7034727 0.6818056 
-0.26607773 0.45955443 0.84735614 
-0.42586738 -0.071200565 0.9019798 
-0.13149297 0.242683 0.96115273 
-0.5582928 0.1217216 0.82066625 
-0.34382826 0.46292704 0.8169949 
-0.9235348 0.27805367 0.26413974 
-0.6223179 0.17771623 -0.7623237 
-0.47336063 0.3060497 -0.82599235 
0.19295597 0.8146832 0.54686326 
0.15910019 0.7710139 0.61662364 
0.2915917 0.73015755 0.6179355 
0.4470996 0.76231825 0.46794528 
0.8234159 0.44776005 0.34856454 
0.0576097 0.7280191 0.68313205 
0.6224374 0.5397511 0.5667808 
0.12366645 0.6687114 0.7331655 
0.014033187 0.3066404 0.951722 
-0.19707215 0.26594272 0.94362974 
0.1947479 0.854921 0.48081532 
-0.024258466 0.51868474 0.8546214 
-0.17730848 0.4711175 0.86406606 
-0.15647233 0.63176394 0.75920403 
-0.15778348 0.21758473 0.9632037 
0.33776814 0.49055323 0.8032872 
0.24397652 0.045184303 0.96872795 
0.11176004 0.7350693 0.6687173 
0.58120537 0.31235427 0.7514221 
0.22592463 0.2789369 0.93335545 
0.6870954 0.08702084 0.72133726 
0.29416528 0.20117648 0.93434197 
0.819866 -0.29612148 0.49003252 
0.5652442 0.09062873 0.81993014 
0.38513258 -0.05077607 0.9214634 
0.16581388 0.4423346 0.88138855 
0.28737816 0.4768707 0.8306674 
-0.24968441 0.6269084 0.7379997 
0.40680942 0.75332767 -0.51672393 
0.20578578 0.9781483 0.02963715 
0.030759452 0.8350219 0.54935634 
0.013374382 0.5266155 0.8499985 
0.07417757 0.28799412 0.954755 
0.14988072 0.4321548 0.8892571 
0.33134001 0.5418474 0.7724088 
-0.08826368 0.1826466 0.9792087 
-0.10534097 0.08047536 0.9911746 
-0.38884303 0.29766238 0.8718936 
-0.5464871 0.05731949 0.8355037 
-0.6570868 0.15396173 0.7379247 
-0.57129633 0.12861344 0.81060416 
-0.0059084273 -0.021083994 0.9997603 
-0.70710343 0.1288828 0.6952654 
-0.1754512 0.07014272 0.98198617 
-0.49610654 0.29393485 0.8169949 
0.9282757 -0.29313973 0.22885232 
0.30579063 0.045984026 0.95098776 
0.04163497 0.2617469 0.96423805 
-0.193753 0.3092136 0.93104607 
-0.64307076 0.032728538 0.7651072 
-0.89248276 0.24336073 0.3798027 
-0.98939645 -0.034330025 0.14112493 
-0.98718846 -0.031643644 0.15638933 
-0.18777536 0.6551246 0.7318143 
-0.16594297 0.89748514 0.40863615 
-0.52096236 0.33029222 0.78708655 
-0.7074194 0.27936175 0.64924175 
-0.6149866 0.78779 -0.034329645 
-0.30649754 0.91450065 -0.26409808 
0.46492735 0.73175335 -0.49837708 
0.41341665 0.6965674 0.5864133 
0.6180695 0.71722287 0.32184082 
0.16567177 0.9066576 0.38797545 
0.45014584 0.40862733 0.7939727 
-0.39040774 0.5808055 0.7143156 
-0.088747844 0.5460379 0.83304644 
0.17777564 0.5320124 0.82786393 
-0.17930342 0.5066959 0.8432732 
0.38227803 0.014309064 0.92393655 
-0.14851509 0.49936107 0.8535701 
0.18960893 -0.043133628 0.9809118 
-0.32094547 0.5490306 0.771725 
-0.18201931 0.81089354 0.55616593 
0.5293826 0.122055925 0.8395573 
-0.01530695 -0.036616236 0.99921215 
-0.5475438 -0.25212458 0.7978903 
0.0010573323 -0.2391257 0.9709881 
0.11783984 -0.06788427 0.9907096 
0.29530302 0.1133742 0.948653 
-0.51758045 0.4307943 0.7392745 
-0.6289123 0.4769656 0.6139814 
-0.29382032 0.689869 0.6616272 
-0.11005409 0.68078583 0.7241677 
0.13485274 0.80962986 0.5712392 
-0.16856307 0.2059724 0.9639304 
0.114033684 0.7948243 0.596029 
0.5843075 0.18858597 0.78931624 
-0.39956406 0.047351785 0.91548157 
0.20170887 -0.18546844 0.961725 
-0.38187042 0.2600765 0.88686824 
-0.13305263 0.22098519 0.9661587 
0.01863566 0.51124394 0.8592336 
0.14883329 0.2155814 0.96507686 
-0.50425786 0.7637339 0.4030318 
-0.59139806 0.6630923 0.4588649 
-0.5350131 0.80854857 -0.24496996 
0.056652 0.9627349 -0.2644468 
-0.07002189 0.6272481 -0.77566534 
0.043436214 0.829646 0.5565976 
-0.035522074 0.9859243 0.16337554 
-0.4380553 0.8078696 0.39427692 
0.6054128 0.7864679 0.12224434 
0.4083572 0.7724745 0.48634103 
0.38054746 0.80435765 0.45628113 
0.112762384 0.623305 0.7738058 
-0.47826314 0.05384772 0.87656426 
-0.38906187 0.112341166 0.914336 
-0.38232332 0.78475094 0.48784724 
0.39528105 -0.07319178 0.91563964 
-0.32961032 0.69862294 0.63504577 
0.17855808 0.82149523 0.5415374 
0.33144036 0.546646 0.768977 
0.5134355 0.7987746 0.31359726 
0.19652164 0.67922664 0.7071284 
-0.087416954 0.98154247 0.17009622 
0.23024793 0.84988344 0.47400856 
-0.033516966 0.93050617 0.36473948 
0.38888538 0.8351494 0.38896483 
0.49002147 0.6058851 0.62672347 
0.44860208 0.8817173 0.14605051 
0.675914 0.71782094 0.16695331 
0.555061 0.82281005 -0.12202888 
0.42170638 0.38931832 0.8188988 
-0.70604044 0.2555801 0.6604436 
-0.63376164 0.06431724 0.7708498 
-0.46607 0.5321068 0.7068531 
-0.4637391 -0.33158776 0.8215811 
-0.40651882 0.62741655 0.6641468 
-0.40440038 0.9092369 0.09873562 
0.5811414 0.7935341 -0.18049479 
0.06693327 0.9421409 0.32846722 
0.6399924 0.34466103 0.6867449 
0.99281436 0.11940384 0.0078980625 
-0.33316836 0.9385561 0.0900633 
-0.20572186 0.7188888 0.663986 
-0.47250596 0.8282207 0.30131158 
-0.2543815 0.9667362 -0.026666565 
-0.22318926 0.5336421 0.81572837 
-0.39247215 0.8047971 0.445272 
0.3458309 0.3546828 0.86867785 
0.18065587 0.3563828 0.91670865 
0.55070007 -0.28603393 0.78416455 
0.58426744 0.74353296 0.3252543 
0.27599213 0.88695794 0.37031603 
-0.13055642 0.49456736 0.8592778 
0.038977668 0.6623494 0.74818057 
-0.50855273 0.77665585 0.3717255 
-0.07469465 0.5308361 0.8441764 
0.15920918 -0.10697904 0.98143166 
0.5226311 0.31903335 0.79061645 
0.116074726 0.09756268 0.98843724 
-0.67547613 -0.20437334 0.7084939 
-0.743266 -0.015543876 0.6688155 
-0.21693642 -0.05574399 0.9745929 
-0.00032319064 0.035582863 0.9993667 
-0.32400474 0.7930663 0.51581645 
-0.122582555 0.9839214 0.12989299 
0.3042978 0.7011872 0.64477867 
-0.88573426 0.025867006 0.46347153 
-0.6076759 0.5587293 0.56440383 
0.1389768 0.6451644 0.7512979 
0.032356594 0.98135453 0.18946354 
-0.12529592 0.9045573 0.40752557 
-0.60642815 0.15162778 0.78054726 
-0.58397025 -0.014003247 0.81165427 
-0.24195921 0.195599 0.9503667 
-0.39146656 -0.11279991 0.9132525 
-0.16097756 -0.20878796 0.9646211 
0.15650845 -0.57016814 0.8064822 
0.17395155 0.013632669 0.98465985 
-0.11131144 -0.34903857 0.930474 
0.26444834 0.09282468 0.9599223 
0.2356433 0.1167306 0.96480376 
-0.23746482 -0.31484187 0.91895866 
-0.11790519 -0.76374775 0.6346558 
0.1601847 -0.9620967 0.22070539 
0.46837386 0.27538213 0.8395181 
0.5646376 0.097037554 0.8196146 
0.17373481 0.796393 0.579288 
-0.13803177 0.4433721 0.8856458 
0.24655862 0.2810763 0.92747235 
0.15224501 0.052469 0.9869491 
0.6582573 0.22775714 0.7175124 
0.87583494 0.4598921 -0.14633046 
0.89743024 0.28865492 0.3336125 
0.5138603 0.8527887 -0.09326958 
0.9198094 0.39226478 -0.008890322 
-0.38075632 0.57577574 0.72353786 
-0.33069304 0.83210033 0.445254 
-0.08799449 0.7869646 0.6106911 
-0.346421 0.91173816 0.22073966 
-0.33605605 0.6867337 0.64456433 
-0.12940449 0.42035484 0.8980849 
-0.6134909 -0.2664183 0.74340457 
-0.6109262 0.120107256 0.78252375 
-0.06285089 -0.1433131 0.9876797 
-0.35274294 -0.100140825 0.9303463 
0.1825637 0.38739735 0.90365577 
-0.013028276 -0.1882319 0.98203826 
-0.13815111 -0.4535216 0.8804729 
-0.7152987 -0.38313916 0.58442473 
-0.46119708 -0.24417311 0.8530398 
-0.9071533 -0.39246187 0.15181121 
-0.59285986 0.57817566 0.56056243 
-0.035629574 0.51988053 0.8534957 
-0.15559722 -0.12313686 0.9801158 
-0.34026715 0.13011916 0.9312826 
0.58666456 0.44716635 0.6751792 
0.7837726 0.09420028 0.6138622 
0.5953146 0.22593889 0.77107215 
0.5359418 -0.08091791 0.8403683 
0.43954194 0.8981053 0.014483834 
-0.04509708 0.9795145 0.19625923 
0.0551399 0.3950321 0.917011 
0.14532585 0.14276297 0.9790297 
0.6558929 -0.14658922 0.74048376 
0.3983466 -0.2492596 0.8827172 
0.2940533 0.40212888 0.8670785 
0.3832798 0.5176186 0.7649625 
-0.37818012 -0.13879338 0.9152684 
-0.50951666 -0.48104 0.7134377 
0.23524892 -0.028008895 0.97153157 
-0.0010198138 0.54790086 0.83654267 
0.58859324 -0.17494483 0.7892734 
0.646185 0.12426978 0.7529954 
-0.15420505 0.9788607 0.13436048 
-0.09821896 0.9337482 0.3441911 
0.2369818 0.8794422 0.4128209 
0.5969252 0.32137778 0.73511684 
0.21980357 0.10671328 0.9696901 
0.44680116 -0.4962385 0.7443898 
0.42116845 -0.30134743 0.85545707 
0.26345238 -0.693879 0.6701678 
0.86445814 -0.42744437 0.26458144 
0.80474085 0.22820309 0.5480105 
0.35574606 -0.3278649 0.8751853 
0.14166641 -0.052350476 0.9885293 
0.41129485 0.20358342 0.88847643 
0.541125 0.033344768 0.8402809 
0.28604457 -0.25298688 0.9242165 
0.16939646 -0.57614166 0.7996035 
-0.2113909 0.13084546 0.9686039 
-0.0799177 0.86597985 0.4936518 
0.043279793 0.4516481 0.8911459 
-0.68435997 -0.043608777 0.7278392 
-0.36789235 0.29120615 0.88309366 
-0.30779067 0.62078047 0.7210386 
-0.33317748 0.7150957 0.61451685 
-0.28132975 0.37772846 0.88214225 
-0.005052166 0.16970225 0.98548245 
-0.2660725 0.35780734 0.8950862 
-0.10593944 0.26281232 0.95901334 
0.11180364 0.3100789 0.94411397 
-0.70239884 0.5619768 0.43682733 
-0.87222064 0.26374602 -0.41190928 
-0.4424357 0.45256436 -0.7742326 
0.67750585 0.50121677 0.53830063 
0.22173642 0.7381719 0.6371305 
-0.68181807 0.44758365 0.578613 
-0.064324 0.35488972 0.9326927 
0.10809506 0.49415633 0.8626269 
-0.19846977 0.25829113 0.94546056 
-0.57300127 0.59628093 0.56224436 
-0.26203683 0.64214826 0.72040427 
-0.650799 0.6201164 0.43808275 
0.3409637 0.63236785 0.6955967 
0.46261808 0.7680693 0.44278005 
0.13808876 0.60585225 0.78350157 
-0.47120607 0.74068207 0.4789103 
0.20659244 0.70980424 0.6734223 
0.62530917 0.54169095 0.5617467 
-0.16903588 0.6995162 0.6943372 
-0.23967606 -0.14127283 0.9605193 
0.10122017 -0.26862863 0.95791084 
-0.23994046 -0.37933287 0.89360803 
0.21163113 -0.055653945 0.97576374 
-0.068448804 0.15856066 0.98497385 
0.09214054 0.14686882 0.98485523 
0.9020117 0.0930938 0.42155492 
0.5997496 0.644116 0.47477886 
0.29106915 0.8423517 0.4535664 
0.10464329 0.047171578 0.9933905 
-0.2993662 0.253776 0.9197705 
0.29171783 0.14830454 0.94493735 
-0.13905792 0.85596025 0.49799088 
0.46885684 0.7829146 0.4089231 
0.048305996 0.5044847 0.86206836 
-0.24574642 0.5317742 0.8104474 
-0.10479855 -0.15520263 0.98230827 
-0.08362331 0.33353034 0.9390233 
0.55245364 0.054049544 0.8317895 
0.3803397 0.529015 0.7586072 
0.76311994 -0.039780576 0.64503133 
-0.75539017 0.371773 0.53960216 
-0.24911161 -0.14718801 0.9572248 
0.018644532 0.21266171 0.976948 
-0.0787669 0.026749426 0.9965341 
-0.41866702 -0.41188923 0.80936104 
-0.50635695 0.118776456 0.85410476 
-0.5521685 0.31811845 0.7706561 
-0.26867077 0.09517878 0.95851815 
-0.40942895 0.5769574 0.70674473 
-0.19426762 -0.47998554 0.85549647 
-0.5921446 -0.27405947 0.75779706 
-0.24274755 0.43401283 0.86758655 
-0.83855325 -0.3481972 0.41903132 
-0.33889616 0.5008157 0.7964504 
-0.78835166 0.32685095 0.52121985 
-0.23814751 0.7187528 0.6532076 
-0.45145616 0.26513296 0.85199296 
-0.50148314 0.7279443 0.4675594 
-0.59325516 0.79111546 -0.14894487 
-0.76095146 0.4944938 0.42003423 
-0.16119087 0.98213816 -0.097067825 
0.5451804 0.8291552 0.123612665 
0.19146062 0.8908319 0.412021 
0.6603008 0.21978632 0.71812046 
-0.77804816 -0.5130984 0.36245164 
0.24431802 0.70999247 0.6604691 
0.33672225 0.060478643 0.9396598 
0.16915512 -0.051310565 0.9842529 
0.33928293 -0.33306688 0.8797464 
0.7888631 -0.22021727 0.573759 
0.467243 -0.26141194 0.8445991 
0.4166905 -0.26682302 0.8690078 
0.6452632 0.52148825 0.55828804 
0.5177293 0.18237886 0.8358794 
0.1971408 -0.18035598 0.9636427 
0.147952 0.069566414 0.9865449 
0.81494814 -0.301664 0.49483162 
0.6834897 -0.17313142 0.70913154 
-0.43097094 -0.21068193 0.87742656 
-0.39679644 -0.2815089 0.8736735 
0.062038183 -0.30280876 0.95103 
-0.18434696 0.34814304 0.9191369 
-0.55300874 0.04865509 0.8317536 
-0.463592 0.16681688 0.8702038 
-0.033155028 0.91900057 0.39285973 
0.4000858 0.73375165 0.54912657 
-0.10802339 0.6649075 0.73907304 
0.2409245 0.7293559 0.64030886 
0.012755995 0.7707879 0.6369641 
0.22184703 0.26510745 0.9383507 
-0.16757248 0.2688282 0.9484993 
-0.17090553 0.2020225 0.96435386 
-0.564896 -0.3912303 0.7265201 
-0.1639461 -0.55758935 0.8137664 
0.07740614 0.035945073 0.9963515 
-0.0781899 0.29600474 0.9519808 
-0.4436449 0.6751632 0.58935034 
-0.1470364 0.97719437 -0.15320468 
-0.27333376 0.9554498 0.11137534 
-0.15961084 0.9248369 0.3452552 
-0.1575847 0.97605795 0.14992686 
0.28923935 0.9116138 0.29206312 
-0.17362176 0.7699952 0.61397296 
0.0039560706 0.980867 0.1946388 
0.304 0.751842 0.58507913 
0.7915171 0.34475198 0.50462544 
-0.46303824 0.21072358 0.86092466 
-0.8783349 0.36796424 0.30517238 
-0.34463164 0.56868905 0.74687475 
-0.5890013 0.16487466 0.79113466 
0.33470675 0.15688734 0.92917055 
0.17208365 -0.21813214 0.96062773 
-0.24773216 0.44818717 0.85892785 
-0.10118435 0.9323178 0.34719628 
-0.3018784 0.77284926 0.55818766 
-5.6398832e-05 0.36733404 0.93008906 
0.16349396 0.56791764 0.80668426 
-0.060339566 0.6823439 0.7285369 
-0.030914964 0.71547645 0.6979525 
0.7649119 0.48225456 0.4270134 
0.88687503 0.42070526 0.19094448 
0.7896589 0.49432933 0.3634247 
-0.067578666 0.47873613 0.8753541 
0.24833511 0.6845149 0.6853971 
-0.25885895 0.8886349 0.3785763 
0.2551433 0.763657 0.5930683 
-0.7639551 0.5594171 0.3215979 
-0.23118606 0.57320106 0.78612566 
0.60603184 0.78103125 0.15071754 
-0.107939936 0.09782205 0.98933303 
0.17298298 0.34075797 0.92410016 
0.16271152 -0.1029132 0.98129195 
-0.44660118 0.37839124 0.8107821 
-0.13437398 0.3853725 0.9129249 
-0.15174754 0.30342165 0.9406955 
0.22689505 0.55286646 0.8017839 
-0.18838269 0.91304654 0.3617432 
-0.2464633 0.8541569 0.4578995 
0.3658272 0.8344524 0.41214034 
0.022322157 0.45563427 0.88988715 
-0.051870517 0.6906833 0.7212947 
-0.13959417 0.8783399 0.45720065 
0.039057042 0.42520976 0.90425175 
0.51336926 0.17169335 0.84081715 
-0.10332428 -0.35099185 0.9306605 
0.4366769 0.6865354 0.58136255 
0.40600502 0.5667731 0.7168879 
0.3411865 0.25192901 0.90560675 
-0.042492934 0.6229481 0.78110814 
-0.37874895 0.50761294 0.77387226 
-0.09253284 -0.06262985 0.99373806 
0.2959213 0.40329581 0.8659003 
-0.06138473 0.12844689 0.98981476 
-0.0709263 0.109304264 0.9914747 
0.039694533 0.58590025 0.8094105 
-0.5628804 0.53171813 0.6328045 
-0.10845253 0.6181228 0.77856433 
-0.26723439 0.30526507 0.9140017 
-0.6179843 0.69985515 0.35818735 
-0.18575715 0.85088676 0.4914124 
-0.3125306 0.71027684 0.63073885 
-0.21228644 0.8460209 0.48906368 
0.3250151 0.5261305 0.78584474 
0.16217174 0.63810265 0.7526788 
-0.13327454 0.5048913 0.85283214 
-0.16272599 0.69873047 0.69663185 
-0.026488977 0.3153686 0.9485995 
0.2974973 -0.27295846 0.91487104 
0.069898434 -0.15811247 0.984944 
0.28920868 -0.41380152 0.8632073 
-0.07828665 -0.1798378 0.9805762 
-0.44796294 -0.40418702 0.7974724 
0.69503486 0.31385413 0.64685565 
0.32285756 -0.22659977 0.91892093 
0.07356618 -0.36567014 0.92783266 
0.63911253 -0.13927947 0.75639707 
-0.28273496 -0.45829958 0.8426283 
-0.4336035 -0.6118097 0.6615716 
-0.046430107 -0.06532213 0.99678355 
0.34922582 0.15923396 0.92341 
0.2007982 0.5104061 0.83616143 
0.7403818 -0.058578484 0.6696294 
-0.029383369 0.33173743 0.9429141 
0.518818 0.8083966 0.27806985 
0.5412734 -0.05309878 0.8391685 
0.17119817 0.30507153 0.9368152 
0.04872848 0.48778728 0.8716016 
0.57897866 0.2943811 0.76034445 
0.45139015 0.6048547 0.6560471 
0.8152782 -0.09244345 0.57164294 
0.164853 0.6148605 0.7712134 
0.07265329 0.23144016 0.97013247 
-0.08186305 0.61181116 0.78675634 
-0.036349773 0.14017878 0.98945874 
-0.014929932 0.12282807 0.9923157 
-0.13969454 0.4256978 0.8940172 
-0.1671739 -0.29357696 0.94120425 
0.25335556 -0.6693256 0.698437 
0.06777097 -0.2062785 0.97614366 
-0.3283818 0.31207028 0.891503 
0.044446476 0.35126075 0.9352221 
-0.46679312 0.15303695 0.8710246 
-0.78452724 -0.44790038 0.42883852 
-0.7057969 -0.70138645 0.09953817 
-0.44742745 -0.24164842 0.8610545 
-0.5838648 -0.25804663 0.76974934 
-0.40645435 0.5931488 0.69496 
-0.25934103 -0.2861978 0.92240614 
-0.23621194 -0.06715844 0.969378 
0.61997837 -0.063320175 0.7820598 
0.10109097 0.45097226 0.8867947 
0.40683246 -0.040232304 0.91261643 
0.8638592 0.17076589 0.47390535 
0.6356991 0.081034996 0.7676719 
0.12598208 0.4044646 0.90583503 
0.10697375 0.79992175 0.59049284 
0.17545058 -0.13835193 0.9747184 
-0.27880785 -0.11996517 0.9528245 
0.29716578 0.21439844 0.93044394 
-0.789986 0.33241302 0.51519305 
-0.1064502 0.46930575 0.876596 
0.12225912 0.16589402 0.9785356 
-0.7678466 -0.2620506 0.5845862 
-0.6957745 -0.3735405 0.61348635 
-0.55140793 0.4931506 0.67286843 
-0.45047808 0.630172 0.6324182 
-0.84757155 0.21706039 0.48425964 
-0.9179794 0.38477978 0.096220784 
0.14257993 0.7354901 0.6623634 
0.8253922 0.5258786 0.20537663 
0.5608454 0.08693992 0.82334316 
0.4993131 -0.09958152 0.8606799 
0.8827905 -0.3349006 0.32942784 
0.7774947 0.3733893 0.50604576 
0.31393364 0.3520389 0.8817678 
0.330232 -0.17103848 0.9282741 
0.4955205 -0.0074359486 0.8685644 
0.7735921 -0.40448624 0.4877974 
0.5861752 -0.20861368 0.7828658 
-0.16541468 -0.707317 0.68727046 
-0.016701063 -0.36262128 0.93178695 
-0.106769465 0.036960196 0.9935967 
0.222445 0.47007158 0.85413754 
0.11050729 -0.29124758 0.9502437 
0.023249045 -0.56525296 0.82458997 
-0.27604115 0.7504055 0.6005773 
-0.4990238 0.0032458492 0.8665822 
0.1543294 0.32638687 0.93255246 
-0.542462 -0.03183244 0.8394771 
-0.27982444 0.44067386 0.852939 
-0.6052215 0.6332895 0.4823394 
-0.5180999 0.64197594 0.5651897 
-0.2761184 0.5064319 0.81687546 
0.08114623 -0.32196537 0.9432675 
0.14629164 0.010046602 0.9891905 
0.045691065 0.46721494 0.88296235 
-0.26534176 0.078610316 0.9609445 
-0.8624513 0.48272806 0.15215635 
-0.043121092 0.9792783 -0.19787526 
0.9963705 0.079915844 0.029314209 
0.49949414 0.579541 0.6439239 
0.23139225 0.9685612 0.091361426 
0.6614343 0.73897123 0.12816495 
-0.13464917 0.3849146 0.9130775 
-0.2632078 0.59944254 0.7559037 
-0.23650666 0.30046725 0.9240044 
-0.20004587 0.6906075 0.695013 
-0.11420963 -0.032190263 0.9929351 
0.3308058 0.3600733 0.8723043 
0.388189 0.5539287 0.7365273 
0.491881 0.3798648 0.7834256 
-0.26272038 0.43424952 0.8616296 
0.20873043 0.43803772 0.8743882 
0.6828426 -0.016554233 0.730378 
0.14105769 0.12651768 0.981884 
-0.14415741 -0.4578033 0.87728834 
0.16506821 -0.38134208 0.9095773 
-0.14257747 -0.013675996 0.9896892 
-0.09651673 -0.46014732 0.88258094 
-0.33633375 0.15378016 0.9291025 
-0.53512263 0.1402908 0.83304405 
0.60425264 0.37067148 0.70532364 
0.72514457 0.026326923 0.68809325 
0.06640651 0.30662718 0.94951034 
0.1244827 -0.028606607 0.9918093 
0.19958684 0.28723848 0.93683463 
0.23765913 0.15081795 0.95956874 
0.20609754 0.35999092 0.90990686 
-0.07450249 -0.37258235 0.9250037 
0.8130949 0.13023895 0.5673751 
0.90866417 0.18227258 0.37564093 
0.07046734 0.14803766 0.986468 
-0.33440298 0.09194175 0.93793464 
0.9171447 0.26496962 0.29771927 
-0.29151106 0.80294526 0.5199042 
0.7564431 0.4371016 0.4865552 
-0.2578617 0.66107863 0.7046151 
0.20032038 0.25409427 0.94620717 
-0.20000364 0.31816784 0.92669725 
-0.5975438 0.29933625 0.7438679 
-0.00012560327 0.42178696 0.90669495 
-0.19283092 -0.004182488 0.9812231 
-0.42398787 -0.30545092 0.8526042 
-0.030405423 -0.34775054 0.93709403 
-0.57611203 0.39641625 0.7148071 
-0.81818473 0.11639828 0.56305 
-0.04539619 -0.4740331 0.8793361 
0.2160551 -0.52106136 0.8257211 
-0.23591483 -0.3882661 0.8908387 
-0.41657165 0.08543775 0.90507936 
-0.47622597 0.3838537 0.79111636 
-0.5173104 0.09714483 0.85026646 
-0.43131024 0.8521115 0.29644123 
-0.64716786 0.73278856 0.21022551 
-0.19545002 0.48458183 0.85263115 
-0.20609142 0.5443203 0.81316787 
0.17519788 0.82741743 0.53356 
-0.01670781 0.71363944 0.700314 
0.103712946 0.8216023 0.5605473 
0.5415124 0.28943813 0.78929716 
0.054336023 0.14168869 0.988419 
0.14160107 0.17515257 0.9743053 
-0.48194784 -0.28559023 0.82835054 
-0.11254439 -0.27939174 0.9535587 
0.13512154 -0.10705447 0.98502874 
0.92660815 0.33620307 0.16841872 
0.7356447 -0.0052078776 0.6773476 
0.22259298 0.22978505 0.94744456 
-0.070968516 0.5524356 0.83052903 
-0.06706385 0.11293515 0.9913366 
0.1713314 -0.23718975 0.95623565 
0.58878255 0.095988825 0.80257165 
0.64139426 -0.041457217 0.76609063 
0.7397948 -0.47073302 0.48074332 
0.055416107 -0.4391094 0.8967229 
-0.2324311 -0.31598523 0.9198528 
-0.046862356 0.4674555 0.8827736 
-0.25391018 0.596266 0.761575 
0.17720461 0.30510333 0.93568724 
-0.21326862 -0.48818564 0.8462809 
-0.16114321 0.31843692 0.9341472 
0.1414092 0.43236166 0.890543 
0.035194032 0.19655013 0.97986203 
0.3985676 0.3441419 0.85012364 
0.21860658 0.8785958 0.4245945 
0.16673064 -0.070180975 0.9835017 
0.09403835 0.413453 0.90565634 
-0.1496936 0.7302812 0.66654426 
0.09175485 0.26750636 0.9591775 
0.13299464 0.33233145 0.9337388 
-0.37563857 0.44648552 0.81212467 
-0.076828234 0.6571345 0.7498479 
0.23300843 0.023580689 0.9721888 
-0.17764206 0.65613425 0.733438 
0.078323424 0.9937176 0.079942405 
0.22873618 0.9710903 0.06828978 
0.79604274 0.5609821 0.22718944 
0.41443118 0.21764529 0.88367265 
0.5166555 0.31453118 0.7963274 
0.43490836 0.60471946 0.66721004 
0.36953166 -0.055188615 0.92757785 
-0.09494552 -0.16846217 0.9811248 
-0.6822667 0.44945252 0.5766322 
-0.38603136 0.4287924 0.8167723 
-0.8104895 0.16604662 0.5617253 
-0.7339868 0.46821088 0.49197763 