# OOMMF: rectangular mesh v1.0
# Segment count: 1
# Begin: Segment
# Begin: Header
# Desc: Time (s) :  4.900000000000001e-08
# Title: m
# meshtype: rectangular
# meshunit: m
# xbase: 2e-09
# ybase: 2e-09
# zbase: 5e-10
# xstepsize: 4e-09
# ystepsize: 4e-09
# zstepsize: 1e-09
# xmin: 0
# ymin: 0
# zmin: 0
# xmax: 1.024e-06
# ymax: 1.024e-06
# zmax: 1e-09
# xnodes: 256
# ynodes: 256
# znodes: 1
# ValueRangeMinMag: 1e-08
# ValueRangeMaxMag: 1
# valueunit: 
# valuemultiplier: 1
# End: Header
# Begin: Data Text
-0.26896837 0.9232896 0.27421233 
-0.33476484 0.9377441 -0.09256662 
0.36905742 0.7591887 0.5361243 
0.71724427 0.61286825 0.3315921 
-0.015376644 0.4847051 0.8745425 
0.06330671 -0.24332727 0.96787614 
0.70555675 0.25869843 0.6597461 
-0.05020823 0.8743312 0.48272574 
0.11846496 0.90610963 0.40611747 
0.2479315 0.96247184 -0.110354334 
0.53004897 0.6676788 -0.52273625 
0.47140333 0.87405795 -0.11748124 
0.2827713 0.21850042 0.93396896 
-0.45866346 0.09413174 0.88361025 
-0.76034874 0.07014665 0.64571613 
-0.32929483 0.41379282 0.8487288 
-0.39799243 0.8288693 0.3931638 
-0.4269495 0.17300867 0.8875709 
-0.07554331 0.053929932 0.9956831 
-0.27674308 -0.21410087 0.9367893 
-0.3685578 -0.18149987 0.9117144 
-0.42393926 -0.1419795 0.8944928 
-0.2482357 0.28941703 0.924455 
-0.4389016 0.2480122 0.86362916 
-0.876712 -0.20752814 0.4339449 
-0.6915389 0.09373762 0.7162313 
-0.5644503 0.7864576 -0.2507594 
-0.16683179 0.96626645 -0.1962046 
-0.5327609 0.64435554 0.548609 
-0.059780613 0.9946295 0.084490255 
0.19098009 0.55251455 0.8113287 
0.29803446 0.008775454 0.95451486 
0.79775137 0.41579866 0.43669692 
0.70658773 0.6376564 0.3068032 
0.13904549 0.9048337 -0.4024206 
-0.0673047 0.8868959 -0.4570403 
0.6393792 0.76873356 -0.015586533 
0.015642056 0.90667546 -0.42153874 
-0.32739255 0.94452584 0.026172547 
0.39348647 0.9070084 -0.15001343 
-0.6347573 0.7632117 0.12079378 
-0.62816554 0.46689785 0.6224263 
-0.3617849 0.37512347 0.85346013 
-0.21926175 0.5421898 0.81114405 
-0.12840274 0.3860414 0.91350144 
-0.5954096 0.6565803 0.46302247 
0.46419555 0.8783151 -0.11439071 
0.45775932 0.88050425 0.12316178 
0.060647078 0.89824873 0.43528283 
-0.5088038 0.7659145 0.39305687 
0.7280805 0.35390708 0.5870678 
0.018222064 0.09471122 0.9953381 
0.18038139 0.37581846 0.9089681 
0.48735657 0.5243685 0.6982272 
0.24883403 -0.08721858 0.96461105 
0.5743059 0.7085467 0.41004184 
0.9080288 0.38130978 -0.1734548 
0.6397876 0.67073435 0.37521625 
0.7475875 0.6598568 -0.07551202 
0.8894565 0.28153738 0.36000526 
0.02642945 0.60152483 0.79841673 
0.085823774 0.084479205 0.99272233 
0.5644982 -0.25992152 0.78344274 
0.6157345 0.012099182 0.7878609 
0.04513087 0.0828123 0.9955428 
-0.028332721 0.2524138 0.9672046 
0.008363356 -0.16947983 0.9854982 
0.43267527 0.6635424 0.61033076 
0.09482437 0.7770793 0.6222187 
0.20920295 0.7406761 0.63846153 
0.57789475 0.48368436 0.65733343 
0.31043795 0.8808756 0.35733244 
0.43602812 0.889789 0.1347411 
-0.35099155 0.8381304 0.41754338 
-0.13908918 0.9295306 0.341507 
0.33184794 0.9332885 0.13729346 
0.17892142 0.91957283 0.34981844 
-0.11348349 -0.31490692 0.94231373 
-0.46189353 -0.3456581 0.8168078 
-0.07245191 0.48228547 0.87301296 
0.10986187 0.72216064 0.6829454 
0.606954 0.5813956 0.5418358 
0.3465848 0.4311926 0.83303773 
0.53918254 0.18629107 0.821327 
0.12109044 0.07200769 0.9900263 
0.57859707 0.04581872 0.8143256 
-0.10480047 -0.19009466 0.9761562 
-0.92995954 0.03136215 0.36632177 
-0.64243627 0.68260944 0.34831026 
0.22814785 0.9476649 -0.22333828 
0.499478 0.41696313 0.75938374 
0.04127179 -0.24516217 0.9686032 
0.59068185 -0.27702248 0.75786114 
0.88996077 0.24506377 0.38459554 
-0.25283536 0.71002185 0.6572239 
-0.21941991 0.88391024 0.4129862 
0.024949348 0.9924978 -0.119690225 
-0.8210606 0.550652 -0.15047216 
0.059701655 0.3765617 -0.92446584 
0.19771014 0.45782107 -0.8667817 
0.17306589 0.64189565 -0.7470062 
0.43550786 0.49311164 -0.7531095 
0.347633 0.7469652 -0.5667401 
0.16041385 0.79700625 0.5822787 
-0.57350385 0.6037366 0.55371064 
-0.8042419 0.53003854 0.26880154 
-0.8096331 0.43092656 0.39849284 
-0.91614264 0.12605552 0.38051653 
-0.79253626 0.16376443 0.58742446 
0.028756117 0.9863231 0.16229555 
-0.64043796 0.62686217 0.44371507 
-0.83375186 0.29650867 0.46576875 
-0.7805674 0.47167224 0.41017058 
-0.8301016 0.2390147 0.50378907 
-0.84541804 0.14248037 0.5147502 
-0.44480404 0.122585505 0.8871991 
0.23761563 0.34595615 0.90766364 
0.1623344 0.16470465 0.9728925 
0.19946067 0.26401177 0.9436701 
0.5147189 0.7599536 0.39690676 
0.5782934 0.19875015 0.79124916 
-0.1378395 0.13250358 0.9815514 
0.5884198 0.5582467 0.58491266 
0.4018924 0.7628935 0.50643474 
-0.38658288 0.37297395 0.8434715 
-0.44756666 0.28673282 0.8470351 
-0.97317064 0.19297673 0.12529582 
-0.22417778 0.8422466 0.49027044 
0.49344966 0.7002217 0.51594293 
0.76274234 0.5826374 0.2806384 
0.19631803 0.17676166 0.96447635 
0.28259894 0.61578095 0.73549426 
0.36889037 0.92889065 0.032896314 
-0.3104035 0.93309236 -0.18162681 
0.25783905 0.9651719 -0.04429769 
0.08726358 0.98310894 0.16087855 
0.18769006 0.98167676 0.032914314 
0.2839103 0.60853815 -0.7409969 
0.3640786 0.8887593 -0.2784844 
0.5534319 0.63120127 0.5434134 
0.38334215 0.07180655 0.92081094 
-0.60649085 0.40252465 0.68566966 
-0.004366275 0.61354923 0.7896444 
0.29459336 0.40861958 0.8638546 
0.34493133 0.20668443 0.91558945 
-0.25751597 0.4821585 0.83738214 
0.3332814 0.79629993 0.5048068 
0.1335053 0.16915625 0.97650534 
-0.47092202 -0.33110845 0.81767946 
0.19806007 -0.41451892 0.8882265 
-0.3909714 -0.2165709 0.8945605 
0.2153904 0.30598834 0.92735004 
-0.22048175 0.062430464 0.9733912 
0.32298058 0.48094246 0.8150938 
0.192361 0.600436 0.77619195 
-0.16694641 0.24335042 0.955463 
0.1885491 0.7513371 0.6324095 
0.39995483 0.81046677 0.4279952 
0.4151708 0.15948506 0.895655 
-0.311049 0.82892823 0.46489426 
0.102479585 0.64804286 0.7546777 
0.13975023 0.79856056 0.5854665 
0.2201068 0.75074726 -0.6228416 
-0.1521737 0.9037717 -0.40005007 
-0.03602605 0.9980572 -0.050832707 
-0.46337298 0.84589064 -0.26411125 
-0.34453765 0.931007 0.12049815 
0.017065434 0.98095065 0.19350596 
-0.0050370963 0.8621061 0.5067029 
0.19929788 -0.51243716 0.8352776 
0.14579946 0.39658296 0.90634674 
-0.011518479 0.61910415 0.78522444 
-0.2024074 0.689284 0.6956428 
-0.072372824 0.8251826 0.56021065 
0.21161816 0.90882707 0.35951507 
0.27599528 0.7894422 0.54827696 
-0.5039356 0.67179495 0.5429002 
0.7763928 0.5410568 0.32322076 
0.37926432 0.011716755 0.92521423 
0.59488225 -0.2387356 0.76754194 
-0.83921015 -0.17522292 0.5148042 
-0.93098265 -0.36209363 -0.046470627 
-0.20480086 -0.3636684 0.90873647 
0.84148973 0.35922313 -0.4035516 
0.4403412 0.25525144 0.8607824 
-0.0017450349 0.94453096 -0.32841787 
0.8302865 0.48551294 -0.27368176 
0.3714263 0.91411173 0.16261111 
-0.6733871 0.2649631 0.69017714 
-0.5219593 0.25430468 0.8141792 
-0.5713928 -0.16014405 0.80490017 
-0.6727609 -0.10404142 -0.7325082 
-0.024379505 -0.82916594 0.55847067 
-0.013388773 0.39956424 0.9166075 
-0.3212875 0.36929968 0.8720047 
-0.07504483 -0.31410006 0.9464193 
-0.44789138 -0.510652 0.73391277 
-0.1773693 -0.32234976 0.9298552 
0.47298586 -0.10801672 0.87442374 
0.004474168 0.7211227 0.69279295 
-0.41806448 0.8061568 0.41872832 
-0.39437625 0.64896315 0.6506261 
-0.20873132 0.54414815 0.81260943 
-0.33789113 0.18858296 0.9220987 
0.83018804 -0.077813566 0.5520261 
0.46146315 0.8860503 0.04434858 
-0.10682234 0.67798537 0.7272722 
-0.3898347 0.17611781 0.9038869 
-0.92060554 0.03835512 0.38860568 
-0.61155593 0.5699329 0.54879487 
-0.025827715 0.915821 -0.40075532 
-0.68148243 0.61663204 0.39414033 
-0.7438049 0.5049516 0.43792498 
-0.41998568 0.29058522 0.8597513 
-0.7598337 0.13496904 0.63595307 
-0.61816025 0.7826186 0.07339042 
0.024089245 0.9713309 -0.2365082 
-0.46361968 0.6189914 -0.6339611 
0.33937526 -0.1567468 -0.92749935 
0.7438666 0.5137601 -0.42744943 
0.879773 0.47523507 -0.012293857 
0.2935138 0.91353273 -0.2816161 
0.463079 0.52523696 -0.7139216 
-0.027853642 0.94514066 -0.32547417 
0.39512953 0.86788213 -0.30108684 
0.63159406 0.7097786 0.31193486 
0.4315069 0.88868785 0.15503508 
-0.011205966 0.76926816 0.6388278 
-0.42866817 0.60443896 0.67148876 
-0.099235445 0.78640825 0.6096838 
-0.48112857 0.8677467 -0.12462322 
0.4905487 0.7676644 -0.41237563 
0.34384468 0.93491673 0.08775826 
0.62515205 -0.6177239 0.4770768 
0.6867362 -0.38261425 0.6180613 
0.8586942 -0.3016315 0.41432193 
0.7340548 0.2387986 0.6357192 
0.61309046 -0.17747796 0.76981926 
0.98864 0.13479263 0.06649728 
0.69252115 0.72035056 -0.038854618 
0.49976733 0.85557604 0.1349902 
0.6014109 0.15061477 0.78461474 
0.02706519 -0.3752511 0.926528 
-0.09239358 0.5902279 0.8019317 
0.32774153 0.26431167 0.90704185 
0.31953835 0.33773276 0.88534284 
0.411984 0.77675396 0.47636402 
0.020682756 0.34236613 0.939339 
-0.2706805 0.7796518 0.56469035 
0.014358637 0.76035297 0.64935136 
-0.5920183 0.2637852 0.7615325 
-0.5797665 0.5108552 0.6347424 
-0.8041106 0.5844855 -0.10854977 
-0.90130603 0.2856874 0.32562295 
-0.6663669 0.59589976 0.44817272 
-0.3110508 0.14408174 0.9394083 
0.4604804 0.2482781 0.8522417 
-0.06647851 -0.37466067 0.9247757 
0.869568 -0.13059843 0.47623083 
0.7221846 0.5669867 0.3962013 
0.25350788 0.24614167 0.93549347 
-0.02882648 -0.19047244 0.9812693 
-0.21140681 0.09528746 0.97274226 
0.37238058 0.21683037 0.90239537 
0.14876859 0.8518621 0.50219405 
0.24290961 0.7250774 0.644405 
0.1445359 0.8609283 0.487762 
0.28898728 0.25518876 0.92269444 
-0.3612865 0.75715566 0.5442311 
0.26576453 -0.7671076 0.5838794 
-0.075020574 -0.08125082 0.9938664 
0.30120093 0.12483282 0.9453544 
-0.14515267 -0.11856138 0.98228 
0.2156699 -0.61313057 0.7599719 
0.38103136 -0.57574993 0.7234136 
0.5938858 0.31338453 0.741006 
-0.4948865 0.51198035 0.70211357 
-0.28457806 0.20086 0.9373743 
-0.20092854 -0.009054789 0.97956413 
-0.90044075 0.105680294 0.42194578 
-0.8345248 0.1356142 0.5340199 
-0.53211987 0.632715 0.5626013 
-0.5984681 0.79927427 -0.05474187 
-0.03324489 0.9852193 -0.16804089 
0.5802395 0.81405586 0.025206354 
0.42120147 0.39579037 0.81605107 
0.7899362 0.34715667 0.50545347 
0.79104024 0.5131944 -0.33299693 
0.559516 0.59070736 0.58138347 
-0.22154465 0.80488914 0.5505193 
-0.114764534 0.56135046 0.81958216 
0.6066851 0.64665174 0.4623579 
0.14091326 0.75501883 0.64038277 
-0.109253615 0.9258519 0.36174846 
-0.22938931 0.96287453 -0.14231415 
-0.27623126 0.8840674 0.3769895 
-0.27360693 0.5951285 0.7556199 
-0.17204137 0.86559033 0.4702713 
-0.50570124 0.5492297 0.6652917 
-0.40809858 0.8844733 0.22619142 
-0.5557595 0.34620556 0.7558261 
-0.08496863 0.34094802 0.9362344 
-0.2283544 0.8349739 0.5006726 
-0.84406203 0.48195818 0.23510763 
-0.7937989 0.55025506 0.25904197 
0.4819225 0.29370868 0.82552165 
-0.2104722 0.14848207 0.9662581 
-0.20493484 0.22641891 0.95222706 
0.36649486 0.691545 0.62245244 
0.1829417 -0.042746577 0.98219407 
0.047256175 -0.4068051 0.91229194 
0.50314623 0.54828274 0.6680044 
0.5255928 0.7923416 -0.3097532 
0.56340545 0.82565206 0.029546898 
0.7684461 0.5837475 -0.26216328 
0.6834723 0.7299672 -0.0036915394 
0.65517503 -0.03985709 0.75442505 
-0.38113624 -0.25388095 0.88897675 
0.45527592 0.14729552 0.878082 
0.8970315 -0.19304405 0.3975784 
0.51374465 0.71266013 0.477684 
0.048105452 0.200726 0.9784657 
0.3070215 -0.31624666 0.89762235 
0.15010788 0.34746638 0.92559975 
0.21558729 0.59812844 0.7718578 
-0.11883388 -0.018946134 0.9927335 
0.16547336 0.25393516 0.95296144 
-0.1750192 0.8131229 0.5551571 
-0.08008582 0.7215886 0.68767446 
0.42338082 0.48081934 0.7678291 
-0.589176 0.2590306 0.76535934 
-0.037590522 0.8311992 0.5547026 
0.30357844 0.33111474 0.89342225 
0.0010715578 -0.23313408 0.972444 
0.47408265 0.36728907 0.8002153 
-0.4328374 0.023844529 0.9011567 
-0.29478163 -0.33863243 0.89355016 
0.5430023 0.012704546 0.8396351 
0.41171372 -0.45465732 0.7897965 
0.72288644 -0.65654063 0.21538277 
0.5165186 0.014653818 0.8561506 
0.5513445 0.11274595 0.82662416 
-0.6488684 -0.3132117 0.6934467 
-0.49055713 0.16763145 0.85513365 
-0.30624306 0.78185016 0.5430705 
-0.41160202 0.8895529 0.19819042 
0.6390846 0.7519502 0.16168484 
0.7119851 -0.3442986 0.61199325 
0.630863 0.35044992 0.6922404 
0.50620157 0.59787697 0.621533 
0.18972196 0.48088405 0.85601175 
-0.27576151 0.7723496 0.5722167 
-0.19626376 0.92867184 0.31472102 
-0.30177853 0.931791 0.2017308 
0.41614088 0.8635821 0.28469777 
0.20718615 0.9701039 -0.12638219 
-0.010514389 0.86059564 -0.50918025 
0.5384035 0.8426403 0.008888535 
0.49547955 0.77135444 0.39939007 
-0.04844384 0.60802984 0.7924349 
-0.31993887 0.50124836 0.80398345 
-0.6376932 0.65148675 0.41098943 
-0.7636569 0.4815483 0.43004602 
-0.61884075 0.04029739 0.78448224 
-0.4360548 0.08633568 0.8957692 
-0.6305717 -0.004185237 0.77611977 
-0.6925687 -0.5338188 0.48516604 
-0.77953994 0.40755373 0.4756231 
-0.60986483 0.639959 0.46745852 
-0.8044021 0.40587315 0.43382528 
-0.33819696 0.9314781 0.13405757 
-0.42911786 0.7236514 0.5405428 
-0.46872157 0.6072818 0.6414896 
-0.29543293 0.3493348 0.8892045 
0.22271447 0.62001395 0.7523171 
0.233252 0.8106114 0.53712434 
-0.20892638 0.5576666 0.8033416 
0.17220226 0.30440757 0.93684715 
-0.0852865 0.6439657 0.7602858 
0.07139632 0.9197702 0.3859087 
-0.072144195 0.7310593 0.67848915 
0.079293236 0.47446877 0.87669384 
-0.44524297 0.6217157 0.6443821 
-0.5003857 0.699626 0.510037 
0.26546794 0.7564539 0.5977493 
0.5740893 0.46207616 0.67594904 
0.47055712 0.4914651 0.73282886 
0.18254992 0.5446566 0.81855035 
0.10004469 0.17609785 0.97927564 
-0.28828564 0.9270173 0.23985527 
-0.42066526 0.84909177 0.319506 
0.58209234 0.67114455 0.45905724 
0.21619725 0.9571333 -0.19275568 
-0.50126004 0.72108805 -0.4782996 
0.27259618 0.9620302 0.013758975 
0.6113036 0.77464694 0.16195719 
0.7472242 0.413632 0.52015823 
0.4907427 0.6756031 0.5502111 
0.4505836 0.3550101 0.81911075 
0.40688887 0.2894961 0.86639106 
0.3589295 0.388506 0.8486653 
-0.08515776 -0.103247 0.99100363 
-0.4408753 0.5605542 0.70100504 
0.7051388 0.29721352 0.6437729 
0.3093204 0.05821382 0.94917446 
-0.111618675 -0.07861018 0.990637 
-0.15516149 0.18625413 0.9701723 
-0.47102475 -0.193327 0.86067444 
-0.55810124 -0.026886366 0.82933724 
0.43059078 0.0898888 0.89805996 
0.5123294 0.6082242 0.6062854 
-0.25558814 0.35276854 0.90012735 
-0.1304171 0.8669249 0.48107445 
0.0009551919 0.7835516 0.62132615 
-0.12936017 0.74861205 0.6502662 
0.10882034 0.36380255 0.9250978 
-0.12911618 0.681608 0.7202358 
-0.0916852 0.8333139 0.5451439 
0.14149752 0.9820159 0.124993004 
-0.46346352 0.8781679 0.11841784 
0.077114016 0.96236575 0.26058742 
0.031496003 0.8414369 0.5394368 
0.27751386 0.7593396 0.58854866 
0.21215092 0.41554883 0.88448364 
0.20042923 0.41165364 0.88902736 
-0.25851536 0.011695439 0.96593636 
-0.16297327 -0.026793916 0.9862667 
-0.21435398 0.70370406 0.6773869 
-0.4841031 0.50126153 0.7172037 
-0.15366201 0.24236125 0.95794004 
0.025565825 0.66678315 0.74481314 
0.48414162 0.7968228 0.36149755 
0.26414508 0.71413535 0.64825785 
-0.3563452 0.68987954 0.6301464 
0.4435755 0.5824373 0.6811811 
0.06971682 0.5647417 0.8223177 
-0.17234871 -0.16008756 0.9719403 
0.12671006 0.17058228 0.9771624 
0.25623956 -0.07366071 0.96380264 
0.6336359 0.522386 0.5706299 
0.8116206 0.50516754 0.29339048 
0.1010634 0.78214395 -0.6148473 
0.862082 0.3299366 0.3846512 
0.32380864 -0.009499827 0.94607496 
0.16875918 0.045561142 0.9846038 
0.06766236 -0.30286035 0.95063 
-0.62933695 -0.34487352 0.6964175 
-0.34339058 -0.68942595 0.637789 
0.023054646 -0.6203494 0.78398675 
0.2193436 0.10436312 0.97004986 
-0.50970644 -0.03813463 0.8595029 
-0.051031694 -0.31559688 0.9475202 
0.5252019 -0.52319586 0.6711402 
0.36533204 -0.6362172 0.6795295 
0.23121138 -0.012086709 0.97282845 
-0.059571207 0.37870437 0.9235985 
-0.3121937 0.9036816 -0.2930781 
-0.61799806 0.5728307 0.538464 
-0.42799312 -0.09525778 0.898748 
0.75644034 0.4499864 0.47466865 
0.058075212 0.23294477 0.9707544 
-0.049408097 0.85806197 0.51116383 
0.478733 0.66888773 0.56868625 
-0.46117795 0.6625878 0.59016305 
-0.7925442 -0.20288466 0.57507515 
-0.29687268 0.9410595 0.16209169 
-0.13076341 0.96752274 0.21633457 
-0.29178342 0.7539959 0.5885174 
-0.6185238 0.0038721068 0.78575665 
-0.5066501 0.1499926 0.8490041 
-0.8320041 0.552838 0.046255376 
-0.58409065 0.33484295 0.739404 
-0.42720467 0.8868193 0.17620406 
-0.44304338 0.862201 -0.24560557 
0.29793906 0.75525206 -0.58380365 
0.6946949 0.6544735 0.29843527 
0.718685 0.67543465 0.16516669 
-0.19472267 0.9634265 0.18409953 
0.5627013 0.81210434 -0.15444694 
0.15086313 0.98823965 0.024954805 
0.25920835 0.95612895 -0.13648656 
0.69352967 0.5902257 0.41309837 
0.7990817 0.51529986 0.3097331 
0.4293221 0.13262635 0.8933605 
0.13630909 0.39214087 0.90975016 
-0.10606033 0.8813216 0.4604601 
-0.2010908 0.38612664 0.90026045 
-0.09947446 0.4806027 0.8712783 
0.40487075 0.55557853 0.7262316 
0.51841617 0.13458946 0.84447044 
0.9217749 0.07483139 0.38043576 
0.7817611 0.009224954 0.6235099 
0.13995665 0.026888397 0.98979247 
-0.01239101 0.059029333 0.9981794 
0.7721777 -0.046099607 0.63373214 
0.48571417 0.33882195 0.80578005 
0.9149949 0.14821959 0.37525365 
0.87972385 0.37904674 0.28707042 
0.4354024 0.093664706 0.89535004 
0.46422964 0.37493652 0.80244213 
0.020777183 0.09695417 0.995072 
-0.22316739 -0.3515139 0.9091944 
0.053488407 -0.31404242 0.94790107 
0.49087206 0.6499709 0.58015734 
-0.021057762 0.45527822 0.89010024 
0.11447514 0.21942182 0.9688909 
-0.57103 0.68836284 0.44730458 
-0.51077515 0.55735433 -0.6545723 
-0.574009 0.4381914 0.69173837 
-0.54071057 0.35567978 0.76231503 
-0.1304983 0.281046 0.9507804 
0.057588983 0.2442033 0.96801263 
0.31838685 0.24190225 0.9165769 
0.5474032 -0.022744088 0.8365599 
0.11571001 -0.21062265 0.9706953 
-0.061109632 0.4258127 0.9027455 
-0.15289594 -0.1711915 0.97330177 
0.2312142 -0.03065346 0.97241986 
-0.18909137 -0.18587534 0.9642069 
0.20169942 0.546747 0.8126407 
-0.3476572 0.6253581 0.69861424 
-0.028360924 -0.2298214 0.9728195 
-0.35345623 0.4453419 0.82264173 
-0.11495764 0.86852205 0.48213527 
-0.24169129 0.2263673 0.9435801 
-0.33766884 -0.03824991 0.94048756 
-0.3146874 0.38907623 0.86578953 
-0.3423468 0.3411139 0.8754657 
-0.10072199 -0.26623663 0.95863086 
-0.12258309 -0.4354869 0.89180976 
0.026908023 -0.9619256 0.27198383 
0.5321775 0.2673808 0.80330235 
0.4680191 0.48961228 0.73568875 
0.01796911 0.3257562 0.94528306 
0.10258339 0.26597828 0.9585052 
0.02052364 0.4743242 0.8801111 
0.062000528 0.30530688 0.9502335 
-0.051801473 0.52501464 0.8495154 
-0.24658427 0.61374366 0.75000995 
-0.1743574 0.14883003 0.97337 
-0.15855134 0.17693792 0.9713673 
-0.2477323 -0.13161905 0.9598465 
0.29097748 0.8814199 0.3720634 
-0.05483892 0.8600237 0.5072989 
0.531391 0.61196774 0.5857637 
0.4173207 0.6606957 0.6239589 
0.21440814 0.5951514 0.77448297 
0.34813106 0.50633675 0.788941 
0.7307814 0.2621078 0.6302842 
0.48336563 0.5919076 0.64498305 
0.13240759 0.69409263 0.7076042 
-0.4380697 0.8112341 0.38729078 
-0.03546406 0.6978087 0.71540576 
-0.3975262 0.6787848 0.6174335 
-0.39535445 0.28370747 0.8736161 
-0.30673122 0.0667767 0.9494508 
-0.2478979 0.29245883 0.9235878 
-0.11439782 -0.13304193 0.9844862 
-0.41283634 0.6328066 0.6550741 
-0.34446383 0.7531963 0.5603927 
-0.070726715 -0.2113211 0.97485447 
-0.04747943 -0.12543906 0.99096453 
0.02684702 0.12427668 0.99188435 
0.06419715 0.7674892 0.6378394 
-0.2910259 0.12620832 0.94835407 
0.4774685 -0.024310634 0.87831247 
0.7363264 -0.24348308 0.63129985 
0.23681252 -0.24551922 0.9400214 
0.78730226 0.5645975 0.24776001 
0.27606285 0.9358468 0.21904354 
0.41406974 0.82592803 -0.3826083 
0.8718538 0.32417762 0.36712372 
0.66305536 0.2790103 0.69463 
-0.17063129 0.8771699 0.44884077 
0.42871767 0.4761883 0.7677537 
0.66777176 -0.027688837 0.74385095 
0.9741266 0.22599539 -0.0018690276 
0.6160626 0.2714381 0.73945135 
0.81051874 0.3678649 0.45577955 
0.22992684 0.8695213 0.4371115 
0.48195127 0.7440384 0.46274182 
-0.4563494 0.23555638 0.8580551 
-0.37498558 0.8073906 0.45552862 
-0.44498026 0.7836215 0.43350893 
0.26895395 0.75147605 0.60245126 
0.011249582 0.2357843 0.97174037 
-0.51132077 0.47891346 0.7135776 
0.3152752 0.37106153 0.87345 
-0.18832767 -0.021797676 0.98186433 
0.5701266 -0.37595248 0.7304899 
0.71551573 -0.0012920065 0.69859546 
0.7366897 0.25066385 0.6280573 
-0.073562086 -0.26707435 0.96086425 
0.5401078 -0.1921642 0.8193635 
0.8857561 -0.31893685 0.33721736 
0.6459811 -0.36699095 0.66934764 
0.74016327 -0.33668968 0.582064 
0.5970806 -0.06609578 0.7994537 
0.12785263 -0.11316563 0.98531586 
0.2540492 0.27469417 0.927363 
0.17453983 0.6720773 0.71961653 
-0.31944403 0.22107698 0.9214557 
0.271648 0.44958708 0.8509283 
0.1557394 0.2972351 0.9420173 
-0.35888407 0.48092362 0.7999468 
0.39950436 0.6185538 0.67660004 
-0.2189167 0.041212615 0.9748729 
-0.34621483 0.27337283 0.8974423 
-0.8078774 0.5738464 0.13429211 
-0.5647185 0.7409601 0.36341608 
-0.6241447 0.7436038 -0.23978493 
0.22301406 0.9632271 0.14986137 
-0.37969154 0.5483045 0.74511516 
0.64761996 0.7564918 0.09115231 
0.3320982 0.94303805 0.019750612 
0.24635412 0.46138713 0.85230964 
0.2486954 0.20021863 0.94766194 
-0.47837004 0.46193096 0.74684805 
-0.12677853 0.17665547 0.9760738 
0.5716447 0.4538584 0.6835459 
-0.10779958 -0.03505276 0.99355453 
0.09880237 0.15873103 0.98236585 
-0.9574288 0.090290174 0.27418563 
-0.7818672 0.5943678 0.18817745 
-0.5803327 0.7506909 -0.31571707 
-0.47867206 0.83989483 0.25583175 
-0.4269793 0.8555747 0.2927125 
-0.64728844 0.4469883 0.61742944 
0.1566271 0.23840103 0.9584534 
0.34502813 -0.04876817 0.9373245 
-0.08836729 -0.027637145 0.9957045 
-0.19464606 0.4142648 0.8890994 
-0.16548394 0.7842293 0.59799635 
-0.470795 0.8291564 0.30141634 
-0.3202189 0.6549858 0.6844367 
-0.22652608 0.73580945 0.63817745 
-0.28293917 0.3686953 0.88544303 
-0.45865026 0.44513866 0.7690849 
0.026862022 0.040493384 0.99881876 
-0.28987652 0.24442595 0.9253257 
-0.08048906 0.15774594 0.98419404 
0.41208363 0.47594684 0.77695686 
-0.19227616 0.041927665 0.98044485 
0.53811115 0.11285096 0.835285 
0.1285303 0.5335971 0.8359151 
0.103159614 0.8475807 0.52054304 
-0.21339391 0.9769643 0.0019953528 
0.62543064 0.3775648 0.6828481 
0.77527314 0.23467903 0.5864107 
0.0914691 0.8634369 0.49609506 
0.22980344 0.8091246 0.5408398 
0.056666404 0.83019704 0.55458266 
0.5104771 0.60036874 0.6156059 
0.47154012 0.07843468 0.87834954 
0.044205 0.31338036 0.9485983 
0.29884255 0.7668892 0.567956 
-0.062388673 0.55053866 0.8324752 
0.66783947 0.29815376 0.6819786 
0.19167423 0.6508784 0.73458713 
0.033139814 0.049544074 0.998222 
-0.18710852 -0.0034146917 0.98233336 
0.24149977 0.29440314 0.9246647 
-0.058664653 0.21596871 0.9746364 
-0.22972879 -0.16044167 0.9599392 
-0.118654884 -0.3710416 0.92100453 
-0.010855597 -0.32147217 0.94685686 
0.1722898 0.74661547 0.64255863 
-0.42801943 0.37571672 0.821971 
0.35878572 0.5029978 0.78629905 
0.23793292 0.62442994 0.7439592 
0.16334537 0.79366726 0.58601254 
-7.990178e-06 0.82344675 0.56739366 
0.61848265 0.457887 0.6386069 
-0.14719574 0.7041772 0.6945992 
-0.23116225 0.34116566 0.91113675 
-0.6026189 0.030991644 0.7974272 
-0.4597127 0.85292196 0.24736321 
-0.378714 0.7887908 0.48413315 
0.48736733 0.6100512 0.6247484 
-0.1506885 0.17411718 0.973127 
-0.54315627 0.17094111 0.8220466 
-0.5171004 -0.2919141 0.8046076 
0.555285 -0.07150935 0.82858014 
-0.38550377 0.57330817 0.7229832 
0.15423521 0.6100841 0.7771802 
-0.118739925 0.35100794 0.9288134 
-0.50754607 0.67493325 0.5355951 
0.14304744 0.648673 0.74750304 
0.2862615 0.5977914 0.74879897 
0.078898884 0.61259854 0.78644645 
0.5429984 0.7261617 0.42171323 
0.13769116 0.33754483 0.93118465 
0.23788767 0.34217277 0.90902543 
0.2389043 -0.025313448 0.9707132 
0.29349467 -0.58471936 0.75628316 
0.25560966 0.15393329 0.9544467 
0.5827795 0.25532004 0.7714789 
0.59375924 0.7266773 0.34552875 
0.7820983 -0.0005890987 0.623155 
0.23036388 0.12822627 0.96461934 
0.41607696 -0.23918739 0.877308 
-0.061989393 0.28413174 0.9567793 
0.03532899 -0.17671396 0.98362803 
0.29857016 -0.17729238 0.93777573 
-0.08377584 -0.6802366 0.72818947 
-0.352343 -0.030718684 0.93536663 
-0.4941875 -0.45812595 0.73885006 
-0.6377045 -0.15323348 0.75488585 
0.059698246 -0.4384329 0.8967792 
-0.40280196 -0.52353954 0.750771 
-0.29437882 -0.34621906 0.8907713 
-0.14813904 0.30600932 0.9404325 
0.2006365 0.89363873 0.40144107 
0.8621769 0.2205592 0.4560754 
0.4339269 0.30936223 0.84616935 
0.31316665 0.39783153 0.86235535 
0.3854623 0.19392668 0.9021149 
0.7035357 0.45423973 0.54653805 
-0.22627927 0.66184723 0.7146719 
-0.6187365 0.38245177 0.6862185 
-0.6461338 0.03645382 0.76235324 
0.26631835 0.9089294 0.32081452 
-0.72708166 0.6699605 0.1500179 
-0.056634184 -0.06449145 0.99630994 
-0.8294347 -0.3322984 0.44901672 
0.017109081 0.04276049 0.99893886 
-0.9687086 -0.08555655 -0.2329889 
-0.512326 0.016389675 0.85863465 
-0.41181818 0.14317253 0.89994866 
-0.32020104 0.9052768 0.279187 
-0.009006847 0.9996826 -0.02352972 
0.2681609 0.9630428 0.025267547 
0.9433216 0.13489625 0.30322856 
0.21880423 0.31835935 0.92237306 
-0.3268068 0.28553665 0.90092516 
0.048135538 0.7939921 0.6060195 
-0.2761832 0.66048115 0.6982031 
0.6726954 0.15203439 0.7241316 
0.6083443 0.32058036 0.7260478 
0.8830181 0.1496543 0.44484 
0.91455746 0.38030672 0.13766503 
0.029694406 0.5720133 0.81970674 
-0.5053064 0.28756177 0.81361765 
-0.023323013 0.08893614 0.9957643 
-0.3131561 0.37192822 0.87384367 
0.5639609 -0.17112245 0.807877 
0.79811233 -0.19393733 0.5704428 
0.7966006 0.11043845 0.5943324 
0.4543511 -0.1751811 0.87342817 
0.11004131 0.23289575 0.96625596 
0.27186844 -0.16513276 0.9480606 
0.8921382 0.0049114022 0.45173618 
0.16952324 0.8301412 0.5311567 
0.49891004 0.7472471 0.43898812 
0.53371376 -0.06603801 0.8430828 
0.8892642 -0.32246226 -0.32438776 
0.7767565 0.10585247 0.62084174 
0.46039775 0.15523817 0.87403387 
0.07667776 0.12029603 0.98977244 
-0.11737692 0.21683392 0.9691263 
0.1283781 0.4456059 0.8859766 
0.16614228 0.1346553 0.97686476 
-0.6755939 0.54971844 0.4913071 
-0.89440465 -0.08037339 0.43997788 
-0.46293667 -0.43435284 0.77267545 
-0.39554498 0.108263515 0.9120435 
-0.56312996 -0.093615554 0.8210486 
-0.476454 -0.01783804 0.8790185 
0.19695732 0.553064 0.8095234 
0.31066105 -0.6624542 0.68164814 
-0.43161792 -0.05376188 0.900453 
-0.26592654 0.1657322 0.9496399 
0.027514664 -0.17738457 0.9837569 
-0.29714054 -0.6478604 0.7014161 
-0.17770469 -0.44328758 0.87858826 
-0.5304857 0.46269512 0.71028036 
-0.7872814 0.58609897 0.19150978 
-0.27668613 0.288548 0.91661596 
-0.32829535 0.37481573 0.86702675 
-0.31522316 0.0073508807 0.9489891 
-0.6405584 -0.04292562 0.7667088 
-0.8212697 0.12778161 0.55604684 
-0.59533614 0.069059394 0.8005034 
-0.22309777 0.0077176825 0.97476554 
-0.28412628 0.3666024 0.8859317 
-0.024616798 0.87323 0.48668608 
0.7898385 -0.16372825 0.5910569 
0.5238235 0.08976374 0.8470841 
0.14884272 0.91903234 0.3650007 
-0.05324043 0.23768483 0.9698822 
-0.38619283 -0.482035 0.78644603 
0.44965732 0.8929032 -0.0230727 
0.3740949 0.61512643 0.6940263 
0.05023305 0.94513464 0.32279608 
-0.16037168 0.6771487 0.71815777 
0.048476953 -0.20766641 0.9769978 
-0.21708462 -0.6629259 0.71652186 
-0.30839068 0.69525623 0.6492411 
0.65908647 0.46763802 0.58899903 
0.37956464 0.8021884 0.4608953 
-0.2777247 0.7416684 0.610571 
0.37316296 0.6238376 0.68671405 
0.012511292 0.48347187 0.8752705 
0.430896 0.5372189 0.72506857 
0.38888752 0.27375445 0.87967324 
0.126359 0.103318 0.98658955 
-0.04004286 0.31355917 0.94872403 
-0.6926789 0.40329447 0.5979545 
-0.25780806 0.95394725 0.15336171 
-0.28979018 0.12448641 0.9489598 
0.25264928 -0.41509244 0.8739947 
0.27551976 -0.28868642 0.9169237 
-0.06863096 0.17627242 0.981946 
-0.53187746 0.0019531634 0.84681916 
-0.13846505 0.67223907 0.7272703 
-0.1361695 0.7202599 0.68020856 
0.12555337 -0.009796779 0.9920385 
-0.6191067 -0.00021028059 0.78530693 
-0.26873633 0.30319443 0.91425055 
-0.5531357 0.51555854 0.6544007 
-0.12059521 0.2837933 0.9512719 
0.55259687 -0.05384792 0.83170736 
0.3262791 0.21819495 0.91974616 
0.0015298292 -0.121823855 0.99255055 
0.24532267 0.5127365 0.82275033 
0.42234382 0.85711145 0.29493332 
0.48351857 0.20810783 0.8502358 
0.6463086 0.21758959 0.73139596 
0.8832411 0.270578 0.3829788 
0.24469665 0.36594477 0.8978909 
0.43979573 0.23211442 0.86758447 
0.47068805 0.019541368 0.8820833 
0.89799595 0.19166277 0.3960664 
0.75744635 0.05953766 0.6501771 
0.37170172 0.26226977 0.89053494 
0.11555129 0.06591456 0.9911121 
-0.14368182 0.77463484 0.61587054 
-0.21049602 0.5589121 0.8020653 
-0.30290434 -0.018586777 0.95283973 
-0.6025669 0.32019466 0.73101884 
-0.08059526 -0.22750853 0.97043514 
0.08765665 0.56126857 0.82297873 
-0.2671088 -0.121742114 0.9559455 
-0.35306346 -0.3586509 0.86412716 
-0.080362886 -0.32196897 0.94333345 
-0.4284945 -0.38121104 0.819189 
0.43074054 0.2897197 0.8547076 
0.39742264 0.09731243 0.91246134 
0.57325345 -0.38830474 0.72152615 
0.22858563 -0.43923852 0.8688028 
0.78804874 -0.5409021 -0.29394582 
0.7502973 -0.049413834 0.6592514 
-0.18546845 -0.42701328 0.8850205 
0.8118988 0.10573273 0.5741436 
0.17399618 0.60303944 0.77850425 
0.011273722 0.47723252 0.8787048 
0.36703545 0.5634278 0.74015814 
0.0808147 0.18267879 0.9798457 
0.1510489 0.3624739 0.91967213 
0.6206137 0.78332543 0.035214674 
0.48969495 0.46242106 0.73916554 
-0.0023005952 0.42337167 0.90595317 
0.34819818 0.58338684 0.7337696 
0.34767237 -0.080815256 0.93412685 
0.39195275 0.22681312 0.8915878 
-0.46700662 0.49048913 0.7357481 
-0.18824805 0.982066 -0.010442869 
-0.09549234 0.99387765 -0.055574145 
0.06986275 0.7395259 0.6694929 
0.564901 0.3610054 0.74199873 
0.53669876 -0.054568175 0.8420076 
0.33578053 0.16389997 0.92757124 
-0.23487332 0.16762523 0.9574635 
0.63664126 0.7336719 0.23751509 
0.12184177 -0.058005847 0.9908532 