# OOMMF: rectangular mesh v1.0
# Segment count: 1
# Begin: Segment
# Begin: Header
# Desc: Time (s) :  5.800000000000001e-08
# Title: m
# meshtype: rectangular
# meshunit: m
# xbase: 2e-09
# ybase: 2e-09
# zbase: 5e-10
# xstepsize: 4e-09
# ystepsize: 4e-09
# zstepsize: 1e-09
# xmin: 0
# ymin: 0
# zmin: 0
# xmax: 1.024e-06
# ymax: 1.024e-06
# zmax: 1e-09
# xnodes: 256
# ynodes: 256
# znodes: 1
# ValueRangeMinMag: 1e-08
# ValueRangeMaxMag: 1
# valueunit: 
# valuemultiplier: 1
# End: Header
# Begin: Data Text
0.34245327 0.17215152 0.92362857 
0.05908756 0.3607757 0.930779 
0.20944972 -0.6702835 0.7119346 
-0.2354921 -0.27889717 0.9309994 
0.20810336 0.39761308 0.8936424 
-0.23252834 -0.2645258 0.9359256 
0.32109958 0.07917029 0.9437304 
-0.025834711 -0.33359617 0.94236207 
-0.1194105 0.57807994 0.80719566 
0.8005684 0.067477435 0.5954302 
-0.0033919732 0.22747044 0.97377914 
0.24477312 0.42719507 0.87039673 
-0.56992984 0.7855178 0.24112618 
-0.44967633 0.75294995 0.4804765 
0.16238518 0.92599237 0.3408359 
0.02810402 0.6366519 0.7706391 
0.066217706 0.2544584 0.9648141 
0.11767174 0.115367904 0.9863284 
0.54109514 -0.3168237 0.77899873 
0.7668846 0.41043365 0.49338844 
-0.23692705 -0.06426426 0.9693997 
0.013665025 0.31549463 0.94882894 
0.13942014 0.6249401 0.7681224 
-0.40265414 0.5145171 0.7570612 
0.18909672 0.60518056 0.77330387 
-0.42225188 0.849801 0.3155025 
0.24243112 0.96913785 0.044709895 
0.72001594 0.53845525 0.43777055 
0.62629676 0.6829322 0.37597337 
0.6353729 0.77161777 -0.030122638 
0.099346645 0.5865986 0.80376136 
-0.023551669 0.87247515 -0.4880906 
0.53528494 0.84175086 -0.0701835 
0.6968125 0.609092 0.3787604 
0.2734853 0.8062609 0.5245468 
-0.113001 0.33182752 0.9365476 
-0.07031725 -0.44447082 0.8930293 
-0.4115743 -0.6293235 0.6592107 
0.5167877 -0.16197844 0.84065074 
-0.04168819 -0.10454313 0.9936462 
0.55012304 0.24471916 0.7984217 
0.09281749 0.35806066 0.9290735 
0.8115584 0.32639143 0.48460454 
0.5562828 0.7525381 0.35247105 
0.19222942 0.341854 0.9198825 
0.20161846 0.22439711 0.9534128 
0.54100066 0.21349679 0.8134725 
0.02535687 0.8392295 0.54318583 
-0.03721154 0.8892628 -0.45588067 
0.60751 0.78600526 0.11457577 
0.599071 0.71140933 0.36743814 
0.16121112 0.9829921 0.087963425 
0.24777968 0.53895694 -0.8050657 
-0.22091056 0.88270175 0.41477257 
0.22275448 0.83005923 -0.5112555 
0.3318191 0.88565886 -0.32481453 
0.43969434 -0.23240784 0.8675572 
0.19085838 0.11422443 0.97494924 
-0.9411714 0.2614465 -0.21410802 
-0.9885792 -0.14865519 -0.02475838 
-0.58916646 -0.27042148 -0.7614166 
-0.2646934 0.254028 -0.93027276 
-0.25769708 -0.10527997 -0.96047306 
-0.09060815 0.16917197 -0.98141277 
0.6353881 0.68728006 -0.35203448 
0.45743057 0.26822412 -0.84782857 
0.8000409 -0.19223642 -0.568313 
0.9636631 0.26709723 0.0035603202 
0.14263076 0.5446157 0.8264685 
-0.044702616 0.48633635 0.87262744 
0.034311213 0.23191448 0.97213084 
0.20271495 0.75359166 0.62530506 
-0.48649666 0.57052976 0.6616773 
-0.2558845 -0.20938297 0.94375956 
-0.6849 0.036265634 0.7277341 
-0.3002672 0.48825267 0.81941986 
-0.7022774 0.7110279 0.035297167 
-0.046182163 0.967219 0.24970937 
-0.10101666 0.92535275 -0.36540112 
-0.4044861 0.47774917 0.7798378 
-0.2002173 0.64583355 0.7367579 
-0.32120457 -0.13592161 0.93720484 
0.18819666 0.35105273 0.9172481 
-0.25538355 0.2277497 0.93963253 
-0.45310047 0.2806195 0.8461399 
0.18519488 0.8893162 0.4181142 
0.0007403646 0.5282915 0.84906286 
0.15420921 0.8533996 0.4979244 
0.073806085 0.572401 0.81664544 
0.19411966 0.2539763 0.94753027 
0.40840417 0.16326737 0.8980813 
-0.06457562 0.7136246 0.6975457 
-0.08829583 0.7563421 0.6481902 
-0.48271286 0.76484 0.4266241 
-0.1234347 0.41388792 0.9019205 
-0.03697855 0.33445117 0.9416874 
0.07222838 -0.21343704 0.9742832 
-0.44660512 0.3835259 0.8083637 
-0.3125748 -0.116944365 0.942667 
-0.29274282 0.039628804 0.9553697 
-0.27433416 0.9440657 0.18297744 
-0.15087406 0.20796219 0.9664309 
-0.81388265 0.15451041 0.5601087 
-0.69373506 0.2748855 0.66571 
-0.95826954 0.21109933 0.19276038 
-0.24018212 0.93953973 0.24408546 
-0.26889446 0.94903594 0.16439742 
-0.060020763 0.9753391 -0.21239425 
0.6213764 0.048418727 0.78201467 
-0.0388344 0.6331142 0.7730837 
-0.60250926 0.6426357 0.47328842 
0.23029023 0.9579036 0.17142701 
0.55378234 0.11962759 0.82402337 
-0.29885152 0.9441196 0.13901821 
-0.38062337 0.86732656 -0.3207345 
-0.035920434 0.94551057 -0.32360417 
-0.7634217 0.5484171 -0.3412126 
-0.88311106 0.31882793 -0.34418556 
-0.0829484 0.9633926 0.25494006 
-0.23974255 0.82408535 0.5132319 
-0.6776293 0.5180254 0.52198493 
-0.98512906 0.1600585 0.06246613 
0.2894165 -0.9289086 -0.23101282 
-0.9764821 0.16201766 0.14224316 
-0.5369813 0.71515054 -0.44744942 
0.88082457 0.4350526 0.18675517 
0.6321628 0.10768809 0.76731575 
0.46722773 -0.1805248 0.8655109 
-0.4215316 -0.52094954 0.7422417 
0.8013342 0.5250389 0.28670144 
0.9322777 -0.039498616 0.35958076 
0.70177513 0.31985718 0.63655573 
0.29116997 0.410203 0.86426485 
0.441585 -0.07823324 0.8938022 
0.45328972 0.5148982 0.72760457 
0.10918931 0.7050776 0.7006735 
-0.21228845 0.47206894 0.8556194 
-0.56721455 0.6277875 0.5330578 
-0.107878275 0.88432574 0.45423588 
0.6603477 0.62325513 0.41891998 
0.56849986 0.40984237 0.71332824 
0.46907634 0.41541252 0.77935874 
0.7984224 0.5519462 0.24057657 
-0.33023673 0.47186685 0.81748724 
-0.14680183 0.43029284 0.8906724 
-0.03118606 0.44398835 0.8954898 
-0.25213647 0.34696653 0.9033502 
0.31027678 -0.33526486 0.88956493 
0.22110938 0.57300305 0.789163 
0.19817606 0.05446657 0.978652 
-0.46484566 -0.2492615 0.84958065 
-0.24607103 -0.812473 0.52852315 
0.08855351 -0.082091615 0.99268293 
-0.905409 -0.42428476 0.014734724 
0.3805737 0.9166854 -0.12186655 
-0.4763305 0.79859734 -0.36790177 
-0.65225625 0.46831468 0.5960229 
-0.56781274 0.39727348 0.7209456 
-0.56435513 -0.45151928 0.69111043 
-0.43055657 0.84630114 0.31368044 
0.42379934 0.50094104 0.75462073 
0.41774806 0.7978058 0.43473276 
0.56565595 0.8038707 0.1839167 
-0.11535934 0.8695426 0.4801958 
0.26617864 0.22201233 0.9380083 
0.5320341 0.27894744 0.7994548 
0.26667354 0.6598955 0.702441 
0.20755415 0.3238413 0.92306453 
0.3462802 0.41939068 0.8391672 
0.057217877 0.8054701 0.5898677 
0.28458762 0.4364037 0.85355836 
0.1722543 0.59735394 0.7832604 
0.7063703 0.18591772 0.6829903 
0.51800895 0.55562633 0.6503432 
-0.29640606 -0.57233894 0.7645729 
0.0666205 0.69917935 0.7118356 
0.8246975 0.51281846 -0.23851942 
0.665811 0.7455897 0.0281385 
0.096815184 0.019035114 0.99512035 
0.83182335 0.002655297 0.5550342 
0.6775587 0.2093363 0.70504797 
0.33528098 0.026043998 0.9417582 
0.3946218 0.49753606 0.77248406 
0.39977756 0.18304683 0.8981491 
-0.7206059 0.117588535 0.683301 
0.8786644 0.29557338 0.37494713 
0.6856253 0.30729538 0.65991485 
0.089180194 0.5924812 0.80063283 
0.18829928 0.9705374 -0.15033516 
-0.31363082 0.75979835 0.56951046 
0.057491045 0.6400664 0.7661657 
0.11151303 0.59834504 0.7934407 
-0.20516893 0.72735834 0.6548707 
-0.144923 0.79590493 0.5878203 
0.5956842 0.5027521 0.62641907 
0.748759 0.57168484 0.33546466 
0.9416441 -0.11666585 0.31574595 
0.85320264 -0.0042458656 0.5215623 
0.45196354 0.53992516 0.71007735 
0.13935298 0.7942765 0.5913592 
-0.21340981 0.8300078 -0.5153091 
-0.18379198 0.9077146 0.3771933 
-0.13515185 -0.14287518 0.9804696 
0.20401166 -0.2997802 0.9319395 
-0.038980216 0.050417334 0.99796724 
-0.38892865 0.19110744 0.9012283 
-0.5473431 0.41398147 0.7273479 
-0.7286122 0.6820566 0.06263434 
-0.7049863 0.49266687 -0.51017046 
-0.07689175 0.7393412 -0.66892624 
0.37670487 0.7532865 -0.5391223 
0.72155815 0.6739705 0.1584856 
0.3426763 0.09993049 0.93412364 
0.49213848 -0.26207343 0.830131 
0.11019074 -0.08939617 0.98988205 
0.46915722 0.28196162 0.8368926 
0.8081306 0.055901326 0.58634466 
0.8581538 -0.44087216 0.26306632 
0.44028255 -0.010958269 0.8977924 
0.26530257 0.54248005 0.79707587 
0.08837886 0.27195758 0.95824236 
-0.64149415 0.045210645 0.76579463 
-0.5289999 0.4821475 0.69835013 
-0.71706414 0.08657824 0.6916092 
-0.11907979 0.095012955 0.98832816 
-0.5320702 0.0322359 0.84608644 
-0.13694543 0.5396796 0.83065754 
-0.8971224 -0.0629485 0.4372744 
-0.8095527 0.50971305 -0.29123372 
-0.963636 0.2668641 -0.013761258 
-0.7111649 0.5910299 0.38069442 
-0.15368626 0.58455634 0.79666454 
-0.25990802 0.6788912 0.68669844 
0.15270942 0.19721887 0.9683928 
-0.21924177 0.8372619 0.5009246 
0.42450508 0.026865551 0.905027 
-0.10148698 0.03210174 0.9943189 
0.52702206 0.51289016 0.67763674 
-0.07633769 -0.25430784 0.96410584 
-0.61463994 -0.59021974 0.52331483 
-0.57100815 -0.41642666 0.7074875 
0.09422644 0.6818649 0.7253838 
-0.5026088 0.85801655 0.1057926 
-0.042806834 0.8192873 -0.57178307 
0.09987934 0.29742754 -0.9495057 
-0.32622057 0.86380184 -0.38396183 
0.0033990943 0.86830586 -0.49601758 
0.76613694 0.6303672 0.1251857 
-0.020414583 0.91728336 0.39771172 
0.15677318 0.7683008 0.62059337 
-0.41232967 0.89681464 0.16033663 
0.048328903 0.8876837 0.4579107 
-0.010439381 0.9983558 0.056363683 
-0.6470728 0.08378182 0.75781095 
-0.40684965 -0.6879296 0.60102105 
-0.94272035 -0.13817085 0.3036234 
0.46965304 0.1869184 0.86283696 
-0.23890388 0.13158806 0.9620861 
0.1470547 -0.43764672 0.88704014 
-0.4987709 -0.74738514 0.43891126 
-0.18426214 -0.22571956 0.95660764 
0.37949854 -0.42441052 0.822105 
0.23450084 -0.60505307 0.76086813 
0.64366674 -0.40275726 0.65075326 
0.3360433 0.8258564 0.45280915 
0.12573063 0.8503665 0.510949 
-0.32917684 0.45653373 0.826571 
-0.24825072 0.57081354 0.78265154 
-0.38399616 0.20058745 0.9012834 
0.17030701 0.761463 0.6254356 
0.14556503 0.6579816 0.738831 
-0.22220212 0.7273024 0.6493516 
0.09725979 0.44137946 0.89203405 
0.48408288 0.061331555 0.8728701 
0.57956845 0.60094357 0.5504247 
0.6766751 0.42502454 0.60121965 
0.4392118 0.10970149 0.89166063 
0.08656356 0.34610486 0.93419397 
0.37390476 0.029207114 0.92700714 
0.16144691 0.11014682 0.98071533 
-0.23228414 0.9523706 0.19757114 
-0.15275785 0.6762145 0.72069347 
-0.08526102 0.8260134 0.55716467 
-0.016574083 0.7925627 0.6095651 
-0.120478205 0.869693 0.47866392 
-0.33229163 0.9042379 0.26820928 
-0.51273125 0.7828988 0.35238665 
0.024596589 0.9350311 0.3537116 
-0.21594247 0.6989424 0.68179786 
-0.16015506 0.72694707 0.6677562 
0.4846727 0.67736346 0.55341774 
0.21294245 0.5647144 0.7973413 
0.41236317 0.14610119 0.8992281 
-0.57556057 -0.54452616 0.61009955 
0.14297983 -0.30813506 0.94053686 
-0.047490086 0.15430576 0.9868812 
-0.180839 0.7925547 0.5823695 
-0.22161764 0.47581348 0.8511681 
-0.27870488 0.32604897 0.90333587 
0.286388 0.45359933 0.84393704 
0.21279646 0.77049273 0.6008817 
0.8094304 0.0038760437 0.587203 
0.38830802 0.2354496 0.8909435 
0.4898597 0.6934902 0.52830756 
0.1794576 0.74900657 0.6377964 
-0.26847667 0.6162649 0.74036336 
-0.44366354 0.23044738 0.8660582 
-0.4196988 0.8812099 0.2175367 
-0.08359695 0.9948565 0.05720305 
0.80145717 0.59475565 0.0627071 
0.24096173 0.9390933 0.24503349 
0.103304945 0.97715896 0.18571082 
0.059940033 0.20365553 0.9772061 
-0.49964035 0.7828367 0.37084556 
-0.95898694 -0.15958966 0.23425461 
-0.3217911 0.71289927 0.6230772 
-0.77784425 0.59602463 -0.1992815 
-0.06336898 0.47285268 -0.87885994 
0.50657135 0.7041253 -0.49758732 
0.46525785 0.62359035 -0.6282279 
0.9758995 0.05615478 -0.21087159 
0.8044736 0.56802016 0.17371094 
0.8470896 0.12443161 -0.51667804 
0.7776909 0.6272717 -0.04155804 
0.58003473 -0.022524575 0.81428033 
-0.3588936 -0.057406884 0.9316114 
0.03930816 0.43795046 0.89813936 
0.19075227 0.7142214 0.67342514 
-0.08286624 0.18343912 0.97953224 
0.6572738 -0.12255099 0.7436212 
-0.17364384 -0.3921587 0.9033601 
-0.5481032 0.13285972 0.8257913 
-0.4692359 0.74617314 0.47227463 
-0.76360005 0.6349511 0.1172693 
-0.53180426 0.75120974 -0.3909835 
-0.6066503 0.56334066 0.5609125 
-0.10790279 0.86742777 0.48572236 
0.7755874 0.45141017 0.44124046 
0.59935063 0.4688368 0.64882267 
-0.58130115 0.6043054 0.544889 
-0.2758439 -0.64068234 0.7165448 
-0.10814391 0.48666167 0.86687106 
-0.15927999 -0.3439561 0.9253778 
0.3391875 -0.09619975 0.9357871 
-0.101001196 0.14629698 0.98407114 
0.07505965 0.56742257 0.8199987 
-0.0997985 0.22799374 0.9685346 
-0.21079506 0.9431022 0.25714558 
-0.43848076 0.8882582 0.13686429 
0.22002742 0.51963323 0.825572 
-0.3586325 0.6835553 0.6357161 
-0.30179828 0.5385049 0.7867212 
0.34952995 -0.021266501 0.93668383 
-0.16203298 0.5668973 0.80769604 
-0.5033488 0.23990971 0.83011055 
-0.24474365 -0.14119749 0.9592517 
-0.30605936 0.022514995 0.95174617 
-0.22628748 -0.18076982 0.9571396 
-0.47920993 0.008220365 0.87766194 
-0.87591517 0.34610984 0.33612618 
-0.39097944 0.619872 0.680363 
-0.35534754 0.5146568 0.7802927 
-0.042357717 0.9635878 0.26401615 
0.2138478 0.9478815 0.23619883 
0.076611556 0.53921986 0.8386732 
0.38523588 0.7015717 0.5994919 
-0.7726601 0.58570796 0.24483168 
-0.1568185 0.9863263 -0.050679147 
0.11441816 0.9277497 0.35523087 
-0.16809782 0.6951301 0.69895446 
0.22624376 0.7798464 0.5836553 
-0.5023617 0.7115752 0.49121636 
-0.5446648 0.6166975 0.5683525 
-0.14317445 0.97559565 0.16647634 
0.37478837 0.893383 0.24779138 
-0.25656202 0.75090337 0.60853934 
-0.58015984 0.6073043 0.5427671 
-0.7966914 0.43512982 0.4194579 
-0.44866663 0.5536812 0.7015237 
0.23148048 0.7319287 0.6408567 
-0.4440126 0.5270023 0.72465265 
0.43912944 0.60845524 0.6610202 
0.9475762 -0.04511325 0.31632933 
0.17839924 0.2076884 0.9617896 
0.47003806 0.22455457 0.8536038 
0.74878037 0.3007213 0.5906731 
0.6667915 0.22794282 0.7095289 
0.20554316 0.2610979 0.9431755 
0.58259726 0.12692212 0.80278975 
0.81084615 0.16665639 0.56102955 
0.4240914 -0.36434337 0.82909626 
-0.17313848 0.34623668 0.9220321 
0.5294862 0.26214197 0.8067998 
0.10421314 -0.34848338 0.93150365 
-0.5108604 -0.19944438 0.8362079 
0.47820356 0.7077949 0.51994985 
0.33596796 0.33315843 0.88098305 
0.88280267 -0.21273978 0.4188093 
0.7764524 0.1825683 0.60315055 
-0.21353891 0.31638736 0.92428356 
-0.4327882 0.14492495 0.88977027 
-0.3419293 0.20658827 0.9167365 
0.19753833 -0.051597536 0.9789363 
-0.13562524 0.07759509 0.987717 
0.10696582 0.35010144 0.9305845 
-0.59444416 -0.031479795 0.80352056 
-0.48590013 -0.68793356 0.5391183 
-0.06985948 -0.8222816 0.56477666 
-0.19726712 -0.26865134 0.9428214 
-0.575566 0.74858564 0.32915542 
-0.10867469 0.63485515 0.7649502 
-0.18937638 0.3735829 0.9080598 
-0.39330056 0.06049119 0.91741794 
0.23854923 -0.29936516 0.92383695 
-0.73899716 -0.27698004 0.6141379 
-0.31335878 0.49006295 0.8134154 
-0.27758256 0.71564746 0.6409343 
0.85746366 0.37573993 0.3515333 
0.19460575 0.71307623 0.67353624 
0.61315113 0.699123 0.36779445 
0.24384542 0.28737834 0.9262576 
0.5985297 -0.28169426 0.74994045 
0.5997802 -0.04195121 0.79906434 
-0.3089204 0.01763936 0.95092434 
0.20665899 0.61542976 0.76061714 
-0.1361792 -0.16378248 0.97705203 
0.157026 -0.28525823 0.94550025 
0.6188459 0.16712719 0.7675274 
0.15800339 0.2373293 0.95849353 
0.4436033 0.3521845 0.82412523 
0.14230165 -0.09028506 0.9856972 
0.43094072 0.48391137 0.76165605 
0.124785095 0.4999805 0.8569995 
0.3171912 0.7852669 0.53173846 
-0.05752231 0.29958853 0.952333 
0.7491829 0.53658426 0.38833287 
0.75834477 0.63186663 0.16018026 
0.5303942 0.28301793 0.7991138 
0.5503851 0.23294637 0.8017558 
0.4214598 -0.22735801 0.87788385 
0.6337806 0.21524517 0.7429615 
0.37612256 0.123134844 0.91835153 
-0.059050303 0.16457704 0.98459506 
0.37905684 0.77941334 0.4988294 
0.25763974 0.82901305 0.49634573 
0.17289165 0.45125273 0.8754881 
0.2796988 0.6345037 0.72053707 
0.31473705 0.8303823 0.45978907 
0.17422952 0.62949264 0.7572206 
-0.21999863 0.6121705 0.759505 
0.52470016 0.09029786 0.8464846 
0.521657 0.029000355 0.8526623 
0.7590897 0.1946569 0.62120163 
0.5336925 0.743075 0.40374735 
0.5105028 0.067183815 0.8572475 
0.5113957 0.71066713 0.48314258 
0.21955481 0.707768 0.6714612 
-0.52595896 0.4871212 0.6971946 
-0.6382289 -0.24547288 0.72966224 
-0.110148534 -0.68745077 0.7178292 
-0.3493518 0.59600973 0.7229978 
-0.5794324 0.6798547 0.449506 
-0.816612 0.25330815 0.51863265 
-0.9170039 0.3399756 0.20861581 
-0.3806137 0.9034998 0.19703133 
0.17527072 0.8536095 0.49054164 
0.4097581 0.71254265 0.5695449 
-0.5216826 0.28304735 0.8048177 
0.251085 0.11863247 0.96066785 
0.25317985 -0.53369623 0.80688816 
0.27620393 -0.6961286 0.6626586 
0.5311077 -0.48713395 0.6932714 
0.72179264 -0.13261342 0.67928576 
0.750173 0.49488136 0.43855795 
-0.013071639 -0.23942986 0.97082573 
-0.15721019 -0.77189296 0.6160084 
0.20533784 -0.2206058 0.9535038 
0.04210492 0.7399458 0.6713475 
-0.25676587 -0.14893368 0.9549294 
0.27119383 0.16371472 0.94849956 
-0.17086841 -0.22686186 0.95882106 
-0.03967931 0.07631792 0.9962937 
-0.030807517 -0.29950768 0.9535964 
-0.40106103 0.19996949 0.8939588 
-0.79673743 0.34049067 0.49927512 
-0.95181996 0.2854261 0.112118885 
-0.86438173 0.5024573 0.019514626 
-0.9112369 0.33325467 0.24205096 
-0.0330402 0.3207062 0.9466023 
-0.037783757 0.6930861 0.719864 
-0.0676317 0.8917716 0.4474029 
-0.3949722 0.64584047 0.653366 
-0.14197151 0.0968332 0.9851231 
-0.13998419 0.5504967 0.8230175 
-0.0069928956 0.17653747 0.9842691 
-0.33350036 -0.6154581 0.71413505 
-0.2827002 -0.81686544 0.50280356 
-0.65093225 -0.1808189 0.73728675 
-0.70857257 0.45733133 -0.5373761 
-0.08327192 0.9619107 -0.2603721 
0.23106223 0.7608137 -0.6064428 
0.16643943 0.98567766 0.02715668 
0.09265205 0.98919976 0.11357643 
0.44025403 0.7073012 0.55308354 
-0.6018303 0.6309662 0.48957342 
-0.070143126 0.5407057 0.8382824 
-0.46145064 0.77770257 0.4268982 
0.20578471 0.911056 0.3572529 
-0.12349319 0.973175 0.19411336 
-0.4912964 0.3177742 0.8109547 
-0.204123 -0.6705136 0.713264 
-0.8956547 -0.42348826 -0.1358693 
0.51322496 -0.29919064 0.804416 
-0.22359781 -0.52886295 0.81872344 
-0.24290714 -0.7814563 0.5747367 
-0.56415415 -0.82507396 -0.031354524 
0.15600674 -0.78619295 0.5979654 
0.6823768 -0.49466017 0.5382131 
0.22427101 -0.23262931 0.9463541 
-0.2451081 -0.3752505 0.89392906 
0.42844403 0.051916726 0.90207565 
-0.19527411 0.80008996 0.56720734 
-0.39874735 0.6801939 0.6150909 
0.5163581 0.24738027 0.8198642 
-0.15344454 0.6013561 0.7841082 
0.018628737 0.4141319 0.91002625 
-0.09019198 0.61808676 0.7809188 
-0.42803556 0.15676776 0.89006156 
-0.36717683 0.2733935 0.8890654 
0.23327406 0.25966278 0.9371011 
0.056073856 0.53776115 0.84123045 
0.29860586 0.56702733 0.76766837 
0.45721853 0.29480425 0.8390719 
0.34682068 0.124418184 0.9296427 
-0.28176105 0.55248773 0.7844541 
-0.13706402 0.44828254 0.88332117 
-0.41587204 0.49730265 0.76140696 
-0.63383645 0.4734079 0.6116669 
-0.36671835 0.68874234 0.6254213 
-0.40191525 0.16146603 0.9013284 
-0.19291253 0.4243229 0.884723 
0.022565316 0.6098648 0.79218423 
-0.09419136 -0.053046253 0.99413997 
0.2731579 0.48459277 0.8309963 
0.095468596 0.5615997 0.82188296 
0.16371675 0.36910138 0.9148558 
0.5655444 -0.13290048 0.8139392 
0.69186586 -0.26283503 0.6724875 
0.28794742 -0.47403136 0.8320941 
-0.25982073 -0.8625272 0.43421224 
0.14556272 -0.16553222 0.9754028 
-0.35722572 0.23631994 0.9036275 
-0.33961877 0.2939343 0.89345497 
0.18177006 0.10496766 0.9777226 
0.06005626 0.14119902 0.988158 
-0.24010782 0.35463375 0.9036499 
0.010727445 0.17574973 0.9843765 
0.31656113 0.1585271 0.9352317 
0.7516223 0.1925624 0.6308595 
0.529731 0.5102406 0.67752475 
0.3269167 0.6101301 0.72171104 
-0.004104321 0.37279597 0.9279043 
-0.1278504 0.5555849 0.8215716 
0.10799856 0.9922427 0.061570417 
0.95660824 0.26780516 0.11480931 
0.97328764 -0.22794299 0.02744494 
0.94980204 0.31082544 0.035547234 
-0.32512495 0.60795397 0.724352 
-0.7550836 0.5539411 0.35071072 
-0.4859191 0.49730802 0.71872634 
-0.59056973 0.8034214 -0.07577177 
0.3790599 0.8114774 0.44476733 
0.07825059 0.8628587 0.4993514 
0.48290205 0.85010374 -0.21006997 
0.9902722 0.13761275 0.020582413 
0.7944666 0.37327138 0.4790525 
0.85798913 -0.22083993 0.46377185 
0.7682709 -0.14026612 0.6245681 
0.41327107 0.3764272 0.829162 
0.5409029 0.8098319 0.2271483 
0.02190578 0.1616329 0.9866078 
-0.7030802 -0.06185371 0.70841545 
0.5575853 -0.11412553 0.8222372 
0.031341415 0.08753779 0.9956681 
-0.416054 0.15618563 0.8958265 
0.28658843 -0.78479296 0.54951537 
0.2352204 -0.91898024 0.3164595 
-0.103096776 -0.3110797 0.9447754 
-0.32792914 0.023979397 0.9443979 
-0.49715102 0.2077856 0.8424167 
-0.14632128 0.95037514 0.2745494 
-0.32586622 0.4359588 0.8388987 
-0.36976227 0.7804261 0.5041935 
0.12519015 0.4661079 0.8758258 
-0.21604334 0.81411284 0.539023 
-0.7735302 0.5168392 0.36678126 
-0.51693195 -0.14771403 0.8431856 
-0.28420117 -0.5423658 0.79061306 
-0.50808805 0.24702166 0.8251224 
-0.20342737 -0.1959638 0.9592787 
0.14371958 -0.26487717 0.95351183 
-0.25740942 -0.27708644 0.92572325 
-0.29347312 0.44625813 0.8454155 
0.56447446 0.3513596 0.7469371 
-0.05330341 0.5288977 0.8470101 
-0.46332034 0.21124163 0.8606458 
0.384611 0.18984023 0.90334654 
-0.17220497 -0.40317374 0.89877504 
-0.5926752 -0.08776579 0.8006456 
0.28493342 0.20846207 0.935605 
-0.39759615 0.3986807 0.82642066 
0.0056135734 -0.35933 0.93319374 
-0.302112 -0.38727114 0.87106234 
-0.45520896 -0.049394358 0.8890136 
0.11146815 0.12968664 0.9852697 
-0.2616291 0.018671554 0.9649879 
-0.26171038 0.8658668 0.42635942 
-0.07395414 0.9187766 0.38778913 
-0.69861186 0.38348013 0.6040567 
-0.08654618 0.57782894 0.81155616 
-0.12129284 0.44191268 0.8888202 
-0.4214885 0.25781432 0.86941314 
-0.8732338 0.32302475 0.3648532 
-0.2790571 0.75383663 0.5948593 
0.07377305 0.84670705 0.5269202 
0.5328832 0.49263293 0.6880031 
0.5865628 0.1605776 0.7938255 
-0.059801906 0.35041466 0.93468356 
0.54382265 0.4707531 0.69472903 
0.09870114 0.83457756 0.5419765 
0.30630776 0.83989406 0.4480554 
-0.339166 0.5112874 0.78965294 
-0.07676108 0.79984677 0.59527546 
-0.6929752 0.21215276 0.68904036 
0.034883693 0.04361607 0.9984392 
0.358283 0.73908937 0.5704211 
0.66610783 0.5431952 0.5111158 
0.40418187 0.56819224 0.7167948 
0.37072328 0.7526173 0.54417974 
0.50597715 -0.16058818 0.847466 
0.33806387 0.44964558 0.8267597 
0.6046539 0.42832413 0.67151487 
0.85623443 0.30398756 0.41767713 
-0.04799394 -0.23836876 0.9699881 
-0.46644258 0.48101315 0.7423326 
0.19943866 0.21743467 0.95548236 
0.08334842 0.7351999 0.67270666 
0.5557138 0.5292947 0.6411157 
-0.01584221 0.6014471 0.7987555 
0.9599712 0.26028487 0.10347528 
0.32693806 0.2830011 0.90167725 
0.43471327 0.66579986 0.6064116 
0.8022164 0.120332666 0.58478105 
0.25109357 -0.07121819 0.9653393 
0.75265926 0.28113443 0.5953717 
0.55520433 0.020446848 0.83146274 
0.020376751 0.5550325 0.8315791 
0.47954285 0.4202519 0.7703422 
-0.4685707 -0.50904495 0.7220213 
0.57373327 -0.03739505 0.8181882 
0.20305741 -0.11532397 0.97235185 
0.10274738 -0.21771432 0.9705893 
-0.4480028 0.13198401 0.8842362 
-0.34921065 0.03292692 0.9364656 
0.014295745 -0.2392553 0.97085154 
0.34528765 0.1878905 0.9194965 
0.1841272 0.083127186 0.979381 
0.24814126 0.26331 0.93225205 
-0.32961768 0.09304047 0.9395189 
-0.2475365 -0.10617944 0.9630429 
-0.4785364 0.26841685 0.83603555 
-0.5159421 0.6935588 0.50277233 
0.066458054 0.3459549 0.9358945 
0.7670189 0.55015427 0.33017 
0.1786086 0.07472727 0.9810784 
0.07601422 0.15851516 0.9844262 
0.6956806 0.36740947 0.6172834 
0.77084017 -0.061553854 0.6340478 
0.7039531 0.26158306 0.6603215 
0.36759615 0.16876371 0.91454464 
-0.030171359 0.5894794 0.80721974 
0.48103416 0.6811785 0.55190766 
0.41322505 0.16633894 0.89530796 
0.18603434 0.7802565 0.59715253 
0.35544074 0.4923494 0.79451495 
0.45554328 -0.04940783 0.8888415 
0.43172666 0.10486751 0.89588785 
-0.21328568 0.10173709 0.97167844 
0.18240453 0.9665514 0.18029706 
0.3073004 0.8982609 0.31415585 
0.62132853 0.7717738 0.13533714 
0.8762962 -0.10046237 0.4711819 
0.80339164 0.52986455 0.27167186 
0.15112837 0.18639876 0.970781 
0.6699569 0.19121891 0.71735144 
0.25178567 -0.019025072 0.96759605 
-0.33763614 -0.0302127 0.9407917 
-0.1671444 -0.7392019 0.65241355 
0.25473657 0.42762136 0.8673231 
0.16482502 0.46658388 0.8689834 
0.26201785 0.77006733 0.5816727 
0.32640702 0.6037978 0.72724605 
0.5002682 0.3332085 0.79918945 
0.08314124 0.5886126 0.8041285 
0.16679598 0.8648772 0.4734624 
0.33762112 0.6965745 0.6330845 
0.5625592 0.81766444 -0.12227854 
0.6724667 0.6051766 0.42608666 
0.9856693 -0.14074618 0.09298661 
0.1823348 0.41027343 0.8935491 
0.17914838 0.19238366 0.96482867 
0.37151212 0.43357322 0.82097083 
-0.089537345 0.7066331 0.7018923 
-0.24263346 0.23089772 0.9422395 
0.12329926 0.30861235 0.9431627 
-0.39488575 0.29298866 0.87075996 
-0.21665044 0.5837308 0.7825094 
-0.21637523 0.6111164 0.76139253 
-0.012770532 0.9179081 0.39658782 
0.03717302 0.2468071 0.9683514 
0.35217315 0.8938715 0.27743086 
0.6620464 0.5449545 0.51450884 
0.3642381 0.6368006 0.67957026 
-0.24563533 -0.3701895 0.8958923 
-0.15081634 -0.066530615 0.9863205 
-0.4608747 -0.35582808 0.8130073 
0.009801246 -0.897755 0.44038618 
0.45451346 -0.093682505 0.8857997 
0.6636203 -0.29490718 0.68748665 
0.711856 0.1579302 0.6843385 
0.10858543 -0.40033346 0.90991336 
-0.1654323 -0.40286726 0.90018344 
0.119909965 -0.022595594 0.9925276 
0.44051832 -0.1385158 0.8869933 
-0.31811538 0.20554197 0.92550266 
-0.6840344 0.15094721 0.71366096 
-0.054229278 -0.6019601 0.7966827 
0.02632972 -0.3976686 0.9171512 
0.07834825 -0.51168925 0.85559094 
-0.3894063 0.28205645 0.8768164 
-0.33560702 0.051067613 0.94061685 
-0.9411223 -0.15941858 0.29811826 
-0.82800555 0.24982771 0.5019889 
-0.79078007 0.32549122 0.51838434 
-0.561844 0.36392426 0.74289334 
-0.5440482 0.08853518 0.8343699 
-0.47196928 0.62820095 0.6185537 
-0.17679238 0.9392577 0.2941759 
-0.35417688 0.6681782 0.654291 
-0.20518623 -0.01463299 0.9786136 
-0.93892 -0.33813176 0.06400169 
-0.6178396 -0.77952784 0.103008434 
-0.94780946 -0.11368122 0.29788238 
-0.96130085 0.21442841 0.17297749 
-0.66094357 0.7382628 -0.13461722 
-0.7345823 0.6418395 0.22007027 
-0.15650766 0.95878184 0.23715542 
-0.3518976 0.8050571 0.47754693 
-0.0053840755 0.9307543 0.36560583 
0.2373464 0.8441348 0.48073196 
-0.16832498 0.27567545 0.9463984 
-0.25914735 0.7966708 0.54603875 
-0.08150659 0.7358106 0.67226446 
0.1916599 0.49761873 0.8459563 
-0.10186133 0.67488736 0.7308566 
-0.32334915 0.18548733 0.92792237 
-0.9960793 0.04397163 0.07676348 
-0.93109024 0.10499984 0.34935114 
-0.23440069 -0.2620352 0.9361592 
-0.14315535 -0.023343004 0.98942494 
-0.7837405 -0.26868737 0.5599626 
-0.7320197 -0.41630286 0.5392951 
-0.12436454 -0.6986415 0.7045805 
0.23847514 -0.52477086 0.81715685 
-0.32490337 -0.0089944815 0.9457045 
-0.092222475 -0.18993434 0.97745585 
-0.064095885 0.007517761 0.99791545 
0.59808266 0.6693023 0.44083056 
-0.11554861 0.91564316 0.38502735 
0.09419497 0.10002234 0.99051654 
-0.23880227 0.71816033 0.6536202 
0.42793724 0.68588203 0.5885878 
0.45627022 -0.06700121 0.88731533 
-0.4310071 -0.09695693 0.89712447 
-0.47264 -0.24478698 0.846576 
0.11459431 -0.11149287 0.987136 
0.117656074 0.28766897 0.9504755 
0.30850324 0.90190685 0.30230764 
0.8252409 -0.16789168 0.5392495 
-0.30053952 -0.0061442317 0.95374966 
-0.19962348 0.29352912 0.9348749 
0.47821572 -0.0072993226 0.8782121 
-0.36230835 -0.2965179 0.88363445 
-0.9728375 0.1681584 0.15909155 
-0.51160336 0.54847926 0.66138685 
-0.6814191 0.39613464 0.615423 
-0.7504192 -0.30376518 0.5870246 
-0.59775317 0.6018713 0.5295679 
0.09510773 0.9764294 0.19375333 
-0.36442816 0.5478245 0.7530475 
0.5207594 0.23111661 0.82182413 
0.42982146 0.65616405 0.62024385 
0.7153327 0.372362 0.5913085 
0.6654221 -0.1959802 0.7202814 
0.052286513 -0.19211653 0.97997826 
0.14160694 -0.85349625 0.50148964 
0.36827815 -0.21184187 0.9052593 
0.33181253 0.92751455 0.1720965 
-0.41595334 0.033200182 0.90877974 
0.21476802 -0.30958343 0.9263007 
0.43534946 -0.20988609 0.8754534 
0.42946473 0.4800059 0.7649539 
0.91206 0.06904882 0.40420157 
0.6985221 -0.23124857 0.6771936 
0.4202473 -0.040658344 0.9064984 
-0.042210493 0.10394611 0.9936869 
-0.3676613 0.4998438 0.7842076 
-0.58741665 0.17031942 0.7911593 
-0.10850422 -0.0905841 0.9899603 
-0.072824426 0.5986268 0.7977109 
0.3750861 -0.047005754 0.9257975 
0.7118458 0.3829557 0.5887448 
0.08851649 0.40831858 0.90853775 
0.20480798 0.45389768 0.86719704 
-0.7949486 0.27876377 0.5388392 
-0.7157817 0.45926982 0.5260494 
0.026500002 0.83084875 0.5558671 
0.40347207 0.3588945 0.84166807 
0.38847953 0.5754363 0.7196922 
0.116092734 0.9344514 0.33663517 
0.56233823 0.598323 0.57077616 
0.47858554 0.76446843 0.43190745 
0.49515942 0.03939514 0.86790854 
0.50882643 -0.43492898 0.74292165 
0.23360468 -0.04266183 0.9713954 
0.10083073 0.9937143 0.048633017 
0.42208382 0.6631786 0.6180933 
-0.12829264 0.18066207 0.9751422 
0.42828342 0.5855903 0.68822765 
0.20752102 0.54972374 0.80915934 
-0.18486951 -0.018335177 0.9825921 
-0.59087706 -0.7377713 0.32643202 
-0.17988573 -0.8632779 0.47158515 
0.56140167 -0.33398905 0.7571523 
-0.048987884 -0.1833323 0.98182964 
-0.4148078 0.17171514 0.89355946 
0.2576988 0.32549405 0.90975 
-0.4032349 0.03612203 0.91438335 
-0.46108583 0.0521613 0.88582116 
0.26946428 0.35647437 0.8946034 
0.22674763 0.53460765 0.8141132 
-0.090624236 0.402726 0.91082335 
0.3547804 0.008921213 0.93490714 
0.36666608 -0.33600786 0.86755687 
-0.37741458 -0.32565838 0.8668938 
-0.07083934 -0.37730423 0.92337614 
-0.059320588 -0.7485594 0.660409 
0.03141208 -0.008325589 0.9994719 
0.42992324 -0.10114764 0.89718187 
-0.053413603 0.5397864 0.84010583 
-0.48281664 0.45461756 0.74847245 
-0.23712918 -0.18464358 0.9537697 
-0.15284102 0.13044827 0.97960347 
-0.65273464 0.5367166 0.5346709 
-0.6129476 0.2977532 0.7318732 
-0.95611674 0.2594977 -0.13602136 
-0.6910752 0.42200762 0.5867918 
-0.7360991 0.12903908 0.66445994 
-0.426145 0.25266892 0.86865354 
-0.14965123 -0.21543062 0.96498406 
-0.6036606 0.436485 0.66713923 
-0.67456686 0.44061312 0.59230036 
-0.23640694 0.45510286 0.8584831 
0.1560613 0.90675277 0.39171964 
0.24063624 0.6543927 0.71684337 