# OOMMF: rectangular mesh v1.0
# Segment count: 1
# Begin: Segment
# Begin: Header
# Desc: Time (s) :  6.1e-08
# Title: m
# meshtype: rectangular
# meshunit: m
# xbase: 2e-09
# ybase: 2e-09
# zbase: 5e-10
# xstepsize: 4e-09
# ystepsize: 4e-09
# zstepsize: 1e-09
# xmin: 0
# ymin: 0
# zmin: 0
# xmax: 1.024e-06
# ymax: 1.024e-06
# zmax: 1e-09
# xnodes: 256
# ynodes: 256
# znodes: 1
# ValueRangeMinMag: 1e-08
# ValueRangeMaxMag: 1
# valueunit: 
# valuemultiplier: 1
# End: Header
# Begin: Data Text
0.6440752 0.22095615 0.7323562 
0.014543757 0.38756147 0.92172915 
0.017621985 0.71929574 0.69448054 
0.27704751 0.9593082 0.054520234 
-0.07613757 0.30519855 0.94924015 
0.21372916 -0.18614542 0.9589941 
0.5614483 0.5256412 0.63912225 
0.2325002 0.97081 0.058920223 
-0.3807981 0.69336075 0.6117547 
-0.77848524 0.6195947 -0.100316346 
-0.9765315 0.11048439 -0.18487708 
-0.99735546 0.02856307 -0.06683041 
-0.26647562 0.8983209 -0.34929973 
0.7678736 0.63907367 -0.044216707 
0.85370934 0.39604947 0.33812007 
0.78160924 0.4370085 0.44509625 
0.5372988 0.23686889 0.8094462 
0.5772138 0.36135274 0.73228985 
0.6655738 0.32323757 0.67270285 
0.4731178 0.6642806 0.5786976 
0.22019464 0.12601508 0.9672821 
-0.17609195 0.5662347 0.8052143 
-0.56440145 0.6097645 0.55645156 
0.52836156 0.8474517 -0.051572762 
0.13088444 0.5218423 0.84294134 
0.2682872 0.14632787 0.95216084 
0.08261598 0.058357082 0.99487144 
-0.49685472 0.16114545 0.8527412 
-0.28608423 0.008569898 0.9581662 
0.3142223 0.3165657 0.8950143 
0.78183824 0.14886752 0.6054482 
0.63456833 -0.30175915 0.71152264 
0.20956145 -0.31081575 0.9270802 
0.67012244 -0.045844793 0.74083346 
0.45625 0.33423015 0.82469773 
0.48373148 0.7972418 0.36112264 
0.8715999 0.16247804 0.46250895 
0.04931789 0.7821724 0.6211072 
0.027347242 0.950589 0.30924556 
-0.31301117 0.68222076 0.66075635 
0.3407661 0.4268014 0.83768666 
-0.13827196 0.6570748 0.7410355 
0.59255964 0.30230537 0.7466489 
0.13260287 0.54357177 0.82882226 
0.7002795 0.4669601 0.53996015 
-0.11263528 0.976852 -0.18186148 
0.7623373 0.5751591 0.2967052 
0.7523007 0.6454448 0.13207832 
0.48072448 0.074459426 0.8737047 
-0.07934881 0.16174842 0.9836368 
-0.7800869 0.15580048 0.6059626 
-0.95935243 0.25356838 -0.12387927 
-0.6222971 0.4467112 -0.6428029 
-0.028531978 0.41558573 -0.9091064 
0.49014387 0.3835423 -0.78272235 
0.8420083 -0.525054 0.123856895 
0.7604829 -0.04944792 0.6474726 
0.07094049 -0.16834058 0.9831729 
-0.54090565 0.36989716 0.75537884 
-0.43844613 0.25323275 0.8623446 
0.4402149 0.1884518 0.87789345 
-0.15155438 0.36387026 0.91903746 
-0.10853334 0.7584033 0.64268583 
-0.45269093 0.8913327 0.024433855 
0.3191143 0.53512067 0.7821841 
0.1849181 0.5463267 0.8169042 
0.5188349 0.8527948 -0.059592515 
0.7722028 0.63520926 0.014561221 
0.64133793 0.57442397 0.5086481 
-0.3744138 0.2124469 0.9025966 
0.2208266 0.6794315 0.6997203 
0.060155924 0.8261328 0.5602553 
0.1851962 0.26549104 0.9461591 
-0.16414264 0.9705324 0.17642036 
0.14290845 0.5988127 0.78803587 
0.27747554 0.5927098 0.7561102 
-0.31819552 0.24980287 0.9145218 
-0.5248778 0.18256758 0.8313679 
0.4843708 0.5017475 0.7166829 
0.11207619 0.27567863 0.95469385 
0.23966703 0.83143586 0.50127256 
-0.027921041 0.9662059 -0.25625518 
0.27305406 0.9594037 0.07061178 
-0.08796115 0.8984773 0.43011802 
-0.23490351 0.65017927 0.7225562 
-0.16512087 -0.11560975 0.9794741 
-0.23418616 -0.17665854 0.9560067 
-0.27269566 0.13633636 0.95239145 
-0.38289133 0.49992117 0.7768354 
-0.8967547 0.4149625 -0.15374412 
-0.30485636 0.93033934 -0.20379238 
-0.41595268 0.8844442 -0.21152271 
0.019596517 0.9782107 -0.20668826 
0.01813087 0.7310988 0.6820307 
0.3731346 0.7037473 -0.6045745 
0.34120187 0.89841044 0.27647784 
0.7971895 0.21041223 0.5658759 
0.78934264 0.5647168 0.24090084 
0.744529 0.47229153 0.47182345 
0.89566463 0.36126992 0.25936237 
0.25621223 0.26310402 0.9301246 
0.7471401 -0.15734938 0.6457731 
0.75973 0.43118528 0.48671326 
-0.0023506475 0.74929327 0.6622342 
-0.36287817 0.72976923 0.5794448 
-0.4391897 0.68540555 0.5808027 
-0.098051496 0.5881958 0.80275255 
-0.43477935 0.75532854 0.49035284 
-0.7043984 0.6691738 0.23670545 
-0.44924712 0.8879497 0.098602384 
-0.94964015 0.22442068 0.21867543 
-0.9393342 -0.34292874 0.0071618874 
-0.80693823 0.16120018 0.5682123 
-0.7687929 0.14819282 0.62209046 
0.74596506 0.2268145 0.626172 
0.19464962 -0.35965973 0.91255486 
0.7349485 -0.064688586 0.67503047 
0.2684917 -0.1533973 0.95098984 
-0.06257355 0.5616879 0.82497954 
-0.2237919 0.47469744 0.85122246 
-0.56486136 0.3148719 0.7627498 
-0.09054251 0.23128322 0.96866417 
0.583302 0.59158015 0.5565894 
0.34451845 0.76014346 0.5508983 
0.736426 0.3152156 0.59859496 
0.28614348 0.34342903 0.894527 
0.1609513 0.58337337 0.796097 
0.06807397 0.90468633 0.42060524 
-0.21617286 0.48394623 0.84797716 
-0.3598617 -0.073285274 0.9301231 
0.13199899 0.044774182 0.9902382 
0.16634329 0.006060147 0.9860493 
-0.005456206 0.5371032 0.8434989 
-0.46872866 0.5288513 0.7075379 
-0.56839955 -0.18443735 0.80181354 
-0.16985068 0.90220803 0.39644876 
-0.14813982 0.9061479 -0.39616996 
0.5195142 0.8041029 0.2890043 
0.35224506 0.40485886 0.8438085 
-0.499469 0.7789108 -0.37924773 
0.22087717 0.76300395 0.60748523 
-0.13001306 0.736756 0.6635415 
-0.09402969 0.97004575 0.22398593 
-0.2254081 0.9692811 -0.098413914 
-0.06945854 0.9603386 -0.27004722 
0.029705798 0.95841664 0.28382215 
-0.42185253 0.83787364 -0.34642202 
0.031073159 0.98355794 -0.17789966 
0.01851504 0.6573934 0.7533201 
0.09145198 0.5335101 0.840835 
0.3442877 0.8995794 -0.26874322 
0.25556582 0.7327407 -0.6306959 
0.3190544 0.8727509 -0.36947295 
-0.5424011 0.84011847 0.0014747857 
-0.52107507 0.81629205 -0.24929522 
-0.3405902 0.88603944 0.31453544 
-0.035460066 0.9041727 0.42569292 
0.2687881 0.9426927 -0.19769567 
0.16837488 0.91761273 0.3600512 
-0.050218094 0.97940934 0.19553892 
-0.20296231 0.9702526 0.13197057 
-0.2655521 0.875341 0.40405494 
-0.50921583 0.26036444 0.8203108 
0.425673 0.8250061 0.37170854 
0.26048693 0.8329015 0.4882844 
0.36182693 0.89259076 0.2690039 
0.080212265 0.554071 0.828596 
-0.23513995 0.7836132 0.5750302 
-0.6279056 0.52144444 0.57778054 
-0.8413684 0.51618695 -0.16015682 
-0.10994016 0.8469403 0.52019733 
-0.14948367 0.6705383 0.7266589 
-0.15072131 0.9600053 0.23595099 
-0.08753086 0.9287296 0.36027753 
-0.41092217 0.8829803 0.22691122 
-0.26420105 0.1212603 0.95681435 
0.49364898 0.6455786 0.58269984 
0.56254447 0.5138076 0.6477233 
0.21193478 0.6372235 0.7409656 
0.7840385 -0.027672326 0.62009525 
-0.061308697 0.41865844 0.906072 
-0.20839219 0.9601841 0.18606243 
-0.18958412 0.68599665 -0.7024717 
-0.3908095 0.90537417 0.16602857 
-0.37922278 0.9249858 -0.024316754 
-0.02525357 0.9848303 0.17167294 
-0.17224221 0.88164526 0.43935668 
-0.6784667 0.71527374 0.16753085 
-0.67750674 0.2083028 0.70540386 
-0.5079667 0.26710233 0.8189178 
-0.18713744 0.9769046 0.1031362 
0.28183958 0.9388928 -0.1976026 
0.5422464 0.8331007 0.109143496 
0.33727396 0.362329 0.86888665 
-0.22723654 0.6179634 0.75265193 
0.29955375 0.69621897 0.6523394 
0.40805712 0.39872292 0.8212852 
0.03308248 0.09416684 0.9950067 
0.4179379 -0.17819498 0.89082795 
0.7129231 -0.28229547 0.64191115 
0.36077744 0.20124894 0.9106803 
-0.057137717 -0.12448161 0.9905755 
0.22487028 -0.16395468 0.9604958 
0.4152474 -0.44253984 0.79481333 
-0.06943254 -0.24596395 0.96678895 
-0.051222477 0.12853102 0.99038184 
-0.3278443 0.38907686 0.8608934 
-0.42206967 0.19882266 0.8844924 
-0.8682246 0.047980003 0.49384612 
-0.75929224 0.49164492 0.42633379 
-0.8835461 0.4205194 0.20617917 
-0.75939274 0.13459176 0.63655937 
-0.52696484 -0.038959846 0.8489936 
-0.15149406 0.9701355 -0.18943769 
-0.097435474 0.8601535 0.50064194 
-0.8647458 0.50183237 0.019469077 
-0.5822312 0.64346737 0.4969472 
-0.662976 0.09493508 0.7425969 
-0.8216585 -0.47627297 0.3131158 
-0.8365801 0.4294461 -0.34016153 
-0.28771612 0.88245136 -0.37215474 
0.3253536 0.9399496 -0.10314987 
-0.13371547 0.6530263 -0.7454374 
0.4947142 0.85000676 0.18095958 
0.40593296 0.6643631 0.6275669 
-0.46305665 0.37910557 0.8011602 
0.051997542 0.766636 0.63997304 
0.07744917 0.77891016 0.62233496 
-0.011858612 0.9093298 0.41590735 
0.44692194 -0.3648727 0.8167795 
-0.18405405 -0.71391374 0.6756118 
-0.2419388 0.37149566 0.8963575 
-0.5621879 0.25813496 0.78569156 
0.7552371 0.37154698 0.53997207 
0.07567812 0.068659864 0.99476564 
-0.7840636 0.3746177 0.49487966 
0.010715157 0.73035085 0.6829882 
0.26450887 0.85855055 0.4392336 
-0.3395164 0.930946 0.13441828 
0.94652766 0.32231164 0.014163193 
0.7935243 0.58381456 -0.17169647 
0.020251269 0.9872689 0.15776543 
0.018227104 0.36462104 0.9309777 
-0.40019116 0.08903041 0.91209686 
0.5790604 0.43196884 0.6914421 
0.23951738 0.34563106 0.9072876 
0.77772653 -0.07108524 0.6245705 
0.6904628 0.22701252 0.6868234 
-0.5909269 0.79479986 -0.13819791 
-0.39879808 0.9119424 -0.096546456 
-0.61358863 0.7392414 0.2775448 
-0.03050309 0.9055571 0.4231264 
0.40437874 0.8449557 -0.35003945 
0.49166068 0.87078613 -0.0010948259 
-0.13807817 0.43889853 0.887864 
-0.063848674 -0.385314 0.92057407 
0.4405439 0.34639448 0.82821006 
0.6099309 -0.40283138 0.6824304 
-0.012641169 -0.26543236 0.9640466 
-0.070292614 0.78599817 0.6142197 
0.09106212 0.06432509 0.9937656 
-0.01925269 -0.1429657 0.98954034 
-0.115891874 -0.1441122 0.9827516 
-0.24223816 0.44703537 0.8610924 
-0.4885504 0.6768789 0.55059373 
-0.9595913 0.23988013 0.14711244 
-0.9977818 -0.057186875 0.034076754 
-0.73193765 0.28395596 0.6193839 
0.63207525 -0.08119546 0.7706415 
0.39375043 0.15664095 0.90577275 
0.8997992 0.43156353 -0.06414254 
0.4339417 0.16589065 0.88553655 
0.66770095 0.3414564 0.66150063 
0.38226107 -0.026428837 0.9236763 
0.76207006 0.12658231 0.6350009 
0.737973 0.29051238 0.6090965 
0.08096667 0.49986547 0.86231035 
0.34771293 0.49457586 0.7965491 
-0.14172585 0.5009317 0.853804 
-0.45572653 0.3298936 0.8267307 
-0.16495109 0.0065656533 0.9862799 
0.15629531 -0.07424002 0.9849164 
0.16822034 -0.03960315 0.9849536 
-0.30571526 0.30491364 0.90197885 
0.26418594 0.38310733 0.8851184 
0.57479495 0.07247824 0.8150814 
0.76346487 0.44251028 0.47043166 
0.9201335 -0.1008207 0.378404 
0.86510026 0.061383337 0.4978291 
0.6156665 0.29699454 0.72989666 
0.54490894 0.76365143 0.3462815 
0.55684793 0.73902065 0.37916875 
0.005223397 0.63229287 0.7747119 
0.07084751 0.6102529 0.78903234 
0.058967315 0.5929218 0.80309826 
0.22212967 0.49963412 0.83727187 
-0.08052788 0.41861877 0.90458477 
-0.08802459 0.92914873 0.35907444 
-0.5003153 0.075855084 0.86251414 
0.25878 0.28672984 0.92239845 
0.3808491 0.5731907 0.7255388 
-0.2725389 0.6667464 -0.69366556 
-0.14627783 0.8732045 -0.4648834 
0.4970315 0.86767906 -0.009634005 
-0.6465277 0.018154899 0.76267445 
-0.5821809 -0.4223601 0.69474995 
-0.51275456 0.7287629 0.45385846 
-0.8513031 0.4437992 -0.27986676 
-0.0524486 0.970247 -0.2363682 
-0.042813636 0.55749077 -0.8290784 
0.5630096 0.5661716 -0.60205483 
0.60424757 0.18549043 -0.77490526 
0.84857434 -0.016282674 0.52882546 
0.36075798 -0.20146348 0.9106405 
0.1009743 0.26928583 0.9577522 
0.017782215 0.24622098 0.9690506 
-0.16851299 0.66767865 0.7251267 
0.11920704 0.84552634 0.52045643 
0.007190605 0.6490076 0.7607479 
0.016380051 0.793077 0.60890126 
0.6949621 0.50885856 0.50802624 
-0.3214374 0.3343502 0.885939 
-0.061608016 0.04283948 0.9971807 
0.10554938 0.6058583 0.7885398 
-0.34837538 0.629948 0.69411826 
-0.12711789 0.40411142 0.90583384 
0.62032783 0.5099689 0.59592384 
0.6415254 0.53027064 0.5543089 
0.5155531 0.20922174 0.830922 
0.40930536 0.9036611 0.12595987 
0.49781892 0.62604994 0.60019815 
0.8293785 0.38516542 0.40469617 
0.2596372 0.16234003 0.9519634 
0.22312549 -0.48440194 0.8459137 
0.37218502 0.391489 0.841555 
0.17527467 0.027520472 0.98413485 
-0.104390435 0.4619514 0.8807404 
0.43278947 0.90138495 -0.0140891345 
-0.048774235 0.6231659 0.7805674 
0.36222705 0.81899774 0.4450106 
0.24852243 0.1996512 0.947827 
0.09839066 0.35152638 0.9309933 
-0.42570665 0.2587738 0.8670698 
-0.4489234 0.31646353 0.8356546 
-0.64635164 0.22845437 0.7280373 
-0.24415903 0.5520784 0.7972427 
-0.0036914665 0.65578985 0.7549345 
-0.6565711 0.29381946 0.69468313 
0.060595114 0.29196128 0.9545088 
0.37518 0.32658267 0.86751586 
0.008902054 0.96663576 0.25600034 
0.51091844 0.6019612 0.61368155 
0.61058575 0.29508546 0.7349216 
0.2621882 0.51654357 0.8151319 
0.48142055 0.8026093 0.3522109 
0.5021584 0.6919784 0.51865494 
0.17414005 0.6257566 0.7603315 
0.31079546 0.14408103 0.93949294 
0.3952869 -0.17912024 0.9009241 
0.09360994 0.40461153 0.90968496 
0.08119118 0.50010675 0.8621493 
-0.30014408 0.45832723 0.8365702 
-0.27977625 -0.005941403 0.96004695 
-0.55639744 0.11260631 0.8232508 
-0.7913171 -0.10949083 0.6015222 
-0.6247773 -0.13010277 0.76988745 
-0.7240234 0.072269976 0.68597907 
-0.725067 -0.49588832 0.4778836 
-0.5926703 0.641832 0.4866145 
-0.4249829 0.32540023 0.8446919 
-0.07008687 0.6815544 0.7284034 
-0.1633084 -0.38432023 0.9086409 
0.20139328 0.13184506 0.9705966 
-0.15163937 -0.2228845 0.9629787 
0.14006864 -0.0825236 0.98669684 
-0.3550739 0.30461603 0.88381654 
-0.16604644 0.20218371 0.96516854 
-0.45501348 0.16898921 0.8743029 
0.1980037 0.9103954 0.36328354 
0.06616947 0.7355785 0.67420024 
0.57956815 0.5556438 0.5961214 
0.34161347 0.31933436 0.88392645 
-0.32577345 0.19894981 0.92427856 
0.74900496 0.054338112 0.6603325 
-0.123175405 -0.2097781 0.9699593 
-0.3461112 -0.7048838 0.6191493 
-0.15387799 0.12546164 0.98009235 
-0.6598377 -0.10323327 0.74428296 
-0.41638148 -0.026326241 0.90880877 
-0.62809265 -0.0067782914 0.7781091 
-0.33814737 -0.21836434 0.9154089 
-0.54436517 0.43542972 0.71698505 
-0.57900524 0.33055702 0.74530864 
0.6802427 0.17862043 0.7108901 
-0.0075928858 -0.0678101 0.9976694 
-0.10876638 0.5871542 0.8021345 
-0.53707784 0.28005624 0.7956858 
-0.77436125 0.45516816 0.43953013 
0.06326374 0.47416815 0.87815857 
-0.517423 0.85551554 0.019147499 
0.30059507 0.8610538 0.4101571 
0.15403022 0.9820531 0.10884081 
-0.47114402 0.80251455 0.36605167 
-0.06310363 0.99765223 -0.026611755 
0.62391835 0.70491564 0.337372 
0.41378704 0.56405294 0.71458006 
0.3548987 0.8271261 0.43578583 
-0.23414049 0.9721989 -0.0027435883 
0.03868176 0.9296245 0.36647245 
0.23414367 0.799125 0.55369323 
0.1872445 0.98214483 -0.018194117 
0.7172018 0.48775873 -0.49770784 
0.18822962 0.9467203 0.2613241 
0.37024128 0.9284266 0.030750329 
-0.111585975 0.7279661 0.67647165 
-0.1054335 0.9819482 0.15704006 
-0.24212165 0.90655595 0.3457362 
-0.32859966 0.7091056 0.62385213 
0.2055743 0.8381132 0.50527763 
0.5427401 0.7716164 -0.33172494 
-0.3510297 0.7694103 0.5336535 
0.218224 0.1690378 0.96114755 
0.3539574 0.6086373 0.7101231 
-0.0976767 0.22861834 0.9686037 
-0.6896814 -0.05792773 0.72179216 
-0.47554317 0.57648206 0.6644752 
0.42737466 0.38591796 0.8175684 
-0.42886406 0.3239357 0.843292 
0.17216782 0.57746184 0.7980578 
0.6021144 0.7888038 -0.123477876 
0.60050774 0.71454406 0.3589113 
0.55091727 0.47975203 0.6828823 
0.2398106 -0.30342743 0.92218363 
-0.027341599 0.81867105 0.5736115 
-0.010473954 0.67763066 0.73532784 
0.6282935 -0.0526039 0.776196 
-0.264575 0.14030375 0.95410424 
0.21547185 0.45969197 0.8615424 
0.06834762 0.95454925 0.2901111 
-0.02898214 0.96887934 0.24583106 
-0.099752255 0.81594485 0.5694591 
8.9395886e-05 0.5218793 0.85301936 
0.11741382 0.68466514 0.7193384 
-0.29913548 0.3262984 0.8966869 
-0.60282254 0.2430686 0.7599492 
0.004340733 0.33454946 0.9423682 
-0.8942337 0.38774174 0.22361243 
-0.29144984 0.72809446 0.6204318 
0.00082520104 0.69597554 0.718065 
-0.30374512 0.6316492 0.71327287 
0.791474 0.46110064 0.40119225 
0.66554147 0.48361558 0.56848097 
0.35103187 0.10103351 0.9308968 
0.36711317 -0.2631375 0.8921808 
0.36769783 -0.05901736 0.9280708 
0.78315276 0.05944456 0.6189816 
0.35275617 0.14400128 0.9245685 
0.25437266 0.2181436 0.94218254 
0.34447336 -0.2024374 0.9167101 
-0.38106865 -0.58263016 0.71786416 
-0.5991025 -0.49426806 0.62990105 
-0.9206604 -0.2486092 0.30096188 
-0.8544365 -0.06382416 0.51562065 
-0.50340635 0.17695002 0.84573686 
-0.1745475 -0.34436226 0.92246836 
-0.7236207 -0.15734906 0.67202264 
-0.5586839 0.1261966 0.8197237 
-0.7188532 -0.6524588 0.23989093 
-0.528894 0.07319801 0.84552544 
-0.5243165 -0.10993285 0.84439754 
-0.157425 0.41612387 0.89557713 
-0.5215169 0.6977786 0.49104506 
0.36878064 0.8970244 0.2436145 
0.025029048 0.2610404 0.96500343 
-0.26803595 -0.66244346 0.6995181 
-0.92074054 0.36334404 -0.14219017 
-0.9220661 0.38629842 0.023829136 
-0.17772107 0.56091106 -0.80857533 
-0.03170162 0.99712014 -0.0688957 
0.46244872 0.5859356 0.6654478 
0.88381666 0.46778396 0.006812378 
0.6075076 0.3345884 0.72040623 
0.22157654 0.66137624 0.7165789 
-0.23059842 0.711848 0.66339797 
-0.7077363 0.25656253 0.6582439 
-0.19101293 -0.29721847 0.9355081 
0.56170034 -0.05367904 0.8255975 
0.31375986 0.55279154 0.7719951 
0.07816315 0.3038274 0.94951534 
0.43077302 0.2890823 0.85490704 
0.46288195 0.055671662 0.88466996 
-0.14141938 0.706065 0.6938825 
0.048975464 0.9852452 0.16399196 
0.26030612 0.6227369 0.73786145 
0.025445892 0.74178416 0.6701559 
0.0628827 0.40903282 0.9103505 
-0.06770182 0.9315362 0.357291 
0.026964724 0.93289816 0.35912967 
0.2521964 0.6693726 0.69881135 
0.31467026 0.23125927 0.9205986 
0.21507679 0.069849886 0.974096 
0.14097717 -0.45367917 0.87994355 
0.38056076 0.29086688 0.87782127 
0.6463707 0.3182311 0.693494 
-0.4427165 0.88351846 0.15296185 
-0.5309916 0.8452244 0.060363296 
-0.5463759 0.8346189 0.0698905 
-0.7169047 0.655738 0.23676005 
-0.29111812 0.8643307 0.41010094 
-0.22092772 0.83844346 0.4982003 
-0.24789914 0.729586 0.6373776 
0.6009459 0.02954411 0.7987435 
0.797177 -0.56933147 -0.20092408 
-0.05162029 -0.53883356 0.8408292 
0.19156149 -0.25763118 0.9470641 
-0.018321723 0.54798824 0.83628535 
-0.09352358 0.6313261 0.7698577 
-0.36784157 0.08513274 0.92598325 
-0.38546613 0.73948103 0.55189097 
-0.18476133 0.5735451 0.79806596 
-0.37014982 0.70341367 0.6067936 
-0.79780376 0.35109404 0.4901451 
-0.8637997 0.3622672 0.35016072 
-0.3231609 -0.0632856 0.9442256 
-0.47428852 0.28497276 0.83297116 
0.35284153 0.02510401 0.9353463 
0.74453497 0.62338763 -0.23886319 
0.74666697 0.38388953 0.543247 
0.44920018 0.2608302 0.8545098 
-0.047528766 -0.20578359 0.9774426 
0.12683988 0.6246132 0.7705647 
0.09398749 -0.07172728 0.9929862 
0.21181077 -0.1758675 0.96135676 
-0.11266647 -0.07840537 0.9905347 
-0.6148948 -0.07482069 0.7850519 
-0.89958966 0.42480192 0.101399675 
-0.5567962 -0.25223187 0.7914274 
-0.5518773 0.17895393 0.81449807 
-0.2989321 -0.007952077 0.95424134 
-0.79664856 -0.058752023 0.60158074 
-0.036425307 0.13616809 0.9900159 
0.29164168 -0.36664695 0.8834678 
0.572985 0.8156576 0.07994306 
0.5427123 0.46583435 0.6989004 
0.18346974 -0.1727995 0.9677186 
0.5453864 -0.11896452 0.8296996 
0.21677537 0.18098775 0.9592976 
0.22342303 0.3227114 0.91974974 
-0.6876981 0.20399866 0.6967467 
-0.49287066 0.4363578 0.75277513 
-0.2324312 0.81682706 0.5279861 
0.42263746 0.29937604 0.8554249 
-0.5259333 0.5645864 0.6361103 
-0.0779856 0.64940566 0.75643283 
0.1333158 0.24605821 0.9600429 
0.19152454 0.5279498 0.8273979 
0.1374205 0.4792201 0.8668701 
0.46463674 0.88303304 0.06607087 
0.1386462 0.988255 0.064259894 
0.031964518 0.99784476 -0.057307217 
-0.7980005 0.3735957 0.47288635 
-0.5600034 0.08285476 0.8243368 
-0.23016968 0.90954846 0.3460398 
-0.3676547 0.9183152 0.14672233 
-0.34005854 0.8930305 0.29471457 
0.2077931 0.90654737 -0.36741546 
0.7319193 0.34684104 -0.5865113 
0.30478495 0.6554183 -0.69103765 
0.96971434 -0.10966201 0.21823964 
0.25193843 -0.23349799 0.93915164 
0.18409729 0.0041498067 0.9828993 
0.48964453 0.32395592 0.80950654 
0.03488392 0.5477413 0.83592033 
0.40716702 0.739619 0.53589064 
0.15400271 0.6575573 0.73749685 
0.07000229 0.3331029 0.9402884 
0.28344232 0.18460059 0.9410543 
0.34595904 0.81407034 0.46647814 
0.36596403 0.32952335 0.87033594 
0.20660281 -0.060622945 0.976545 
-0.115865976 -0.3706765 0.9215064 
-0.08992901 -0.58173305 0.8083931 
0.258166 -0.093864925 0.9615299 
0.510809 0.117558494 0.8516186 
0.4267068 0.2121944 0.87914443 
0.4897339 0.36594063 0.7913585 
0.40736872 0.46111178 0.7883062 
0.6935985 0.2861622 0.6610842 
-0.050556853 0.7580013 0.6502908 
-0.34705353 0.5486428 0.7606214 
0.049243547 0.39587164 0.9169847 
0.20668346 0.13424207 0.96915483 
-0.2240442 0.30040228 0.927126 
0.1415652 0.6702847 0.7284764 
-0.14058764 0.58418924 0.7993485 
0.35344267 0.7470106 0.56307507 
-0.06715327 0.8936264 0.44375935 
0.29004765 0.74491113 0.600816 
0.07065739 0.63005567 0.7733288 
-0.26056725 0.38533816 0.88522273 
0.038147524 0.5056975 0.861867 
0.043547798 0.75281984 0.65678465 
0.26932183 0.61649024 0.73986864 
0.42138806 -0.06449358 0.9045842 
-0.07427754 0.14860772 0.9861027 
0.17085086 0.5274928 0.8322028 
0.59523195 0.45988712 0.6589408 
0.72897786 0.55735546 0.3974246 
0.7712453 0.63585585 0.029462641 
0.1544142 -0.22602175 0.9618058 
0.28708133 -0.20953786 0.93470764 
0.44862905 -0.0051544597 0.8937033 
-0.4132772 0.0074872496 0.91057444 
-0.15215223 0.06359313 0.9863091 
-0.16934858 -0.7250314 0.66757077 
-0.47749594 0.1980574 0.8560204 
0.14679496 0.31418672 0.9379435 
0.45990238 0.038897116 0.8871172 
-0.39862484 0.30552322 0.8647276 
-0.91885626 -0.07949158 0.38650247 
-0.2329756 0.5728961 0.7858196 
-0.54719156 0.5895317 0.5941664 
-0.8348677 -0.13995038 0.5323626 
-0.42801628 -0.23049371 0.8738849 
-0.46260762 0.3270771 0.82402354 
-0.44159034 0.74972177 0.49286434 
-0.5113642 0.12601365 0.8500748 
-0.72358775 -0.45203823 0.5216151 
-0.67613053 -0.54212636 0.4989454 
0.4161734 0.13806875 0.8987418 
0.4213121 0.60489947 0.6757165 
-0.100885734 0.5971116 0.7957889 
-0.04123918 0.07344469 0.9964464 
0.024111137 0.713058 0.7006904 
0.34656104 0.3592578 0.86650413 
0.48065627 0.42436752 0.76738644 
0.09350918 0.60444355 0.7911411 
-0.06677344 0.5249426 0.8485144 
-0.24016732 0.86210734 0.44619584 
0.42323184 -0.13045052 0.896581 
0.82112414 -0.26578784 0.50508606 
0.5214091 0.12471723 0.8441435 
0.63173944 0.0077954005 0.7751416 
-0.09910677 -0.15718465 0.9825838 
-0.68646556 0.14708798 0.7121307 
-0.6279543 -0.22547424 0.7448724 
-0.5311823 -0.63630366 0.559431 
-0.5362279 -0.24592192 0.8074541 
-0.83529395 0.069962375 0.54533416 
-0.05596818 0.28598094 0.9565995 
-0.67166185 0.35331342 0.6511836 
-0.6939723 0.18204527 0.69660753 
-0.754543 0.11042018 0.6468943 
-0.87568814 0.4574891 0.15451224 
-0.59680724 0.60794175 0.5236679 
-0.61192983 0.78755045 -0.07284322 
0.24485399 0.89145476 -0.3812544 
-0.13751376 0.67629504 0.72368157 
-0.71196854 0.5360748 0.45356888 
-0.3922484 0.91490006 0.09538954 
-0.28229877 0.591992 0.7548861 
-0.25894722 0.9524024 0.16086043 
0.35902253 0.028897665 0.9328815 
0.5819927 0.6506246 0.48782408 
0.409836 0.7464923 0.5241981 
0.1924624 0.45856878 0.8675673 
0.46401906 0.5412423 0.701244 
0.65004265 0.7596986 -0.017393881 
0.13108422 0.7344554 0.66587704 
0.16277553 0.3418553 0.9255481 
-0.12194003 0.77223736 0.62352234 
0.20026338 0.92872095 0.31204507 
-0.16936794 -0.17326184 0.9702035 
0.20279858 0.59268177 0.7794877 
0.34442118 0.35201636 0.87032104 
0.1830872 0.20715922 0.9610225 
-0.23191252 0.41668314 0.878972 
0.056213178 0.22393118 0.97298247 
-0.06251378 0.7905273 0.6092281 
-0.6722149 0.35676214 0.64872795 
-0.6839745 0.49993744 0.5312641 
0.24077143 0.80895853 0.53629774 
0.15265895 0.660249 0.7353683 
-0.25845513 0.2712024 0.9271732 
-0.35517642 -0.122848116 0.926692 
-0.26743576 0.05801897 0.96182746 
0.52054137 0.48256248 0.70439345 
0.0148029765 0.6266953 0.77912384 
0.710768 0.53774756 0.45347154 
0.31427664 0.6291284 0.7109344 
0.41686007 0.037001632 0.90821725 
0.11557997 -0.09192827 0.9890352 
-0.424424 -0.08888716 0.90109015 
-0.35424852 0.44671544 0.8215554 
-0.323221 0.7191558 0.6150961 
0.25005105 0.54632616 0.7993762 
-0.04640916 0.3475713 0.93650436 
0.28048378 0.44123894 0.8524301 
0.15382546 0.11508835 0.9813728 
0.09059947 0.3571598 0.92963904 
-0.5310048 0.29306805 0.7950756 
-0.732175 0.5080895 0.45361322 
-0.42418385 0.55570734 0.71502274 
0.09204969 0.64229214 0.7609125 
0.32041997 0.86230546 0.392123 
-0.3258791 0.61358005 0.71925133 
0.47398618 0.65985453 0.5830344 
0.17841561 0.48661825 0.8552021 
0.11167789 -0.07189944 0.99114007 
0.55934775 -0.123825274 0.8196325 
-0.1385477 0.18316492 0.97327036 
0.3089376 -0.28953803 0.905939 
0.14648066 0.046167713 0.98813564 
-0.8422053 0.05740726 0.5360921 
-0.41159913 -0.90573424 0.10115123 
-0.65726745 0.16955347 0.7343373 
-0.4377934 0.1254276 0.8902836 
-0.7713491 0.071700156 0.6323604 
-0.8400274 0.39852893 0.36814237 
0.5409732 -0.17687306 0.8222311 
-0.070478834 -0.14388247 0.98708194 
-0.2753544 0.48769724 0.8284512 
-0.34267777 0.14549182 0.9281186 
-0.66920376 0.08274714 0.7384574 
-0.39849973 0.12884913 0.90807265 
-0.006240532 -0.36036348 0.93279105 
-0.044511084 0.36393356 0.93036085 
-0.37821257 0.9141194 0.14608568 
0.26104948 0.24428031 0.9339059 
0.10565195 0.18379821 0.97726965 
-0.38885427 -0.06598888 0.918933 
-0.47901908 0.23129895 0.84678304 
-0.5160001 0.8476993 -0.12308511 
-0.037929475 0.9872396 -0.154659 
-0.041096017 0.9826983 -0.18059693 
0.10869871 0.94377095 0.3122196 
0.109580055 0.99227196 0.058212634 
0.056880943 -0.17575105 0.98279005 
-0.5535683 -0.105712734 0.8260672 
-0.7234818 0.27535003 0.63305336 
-0.8174276 0.43497798 0.37763265 
-0.22637649 0.35288364 0.90786946 
0.33508995 -0.16881935 0.9269385 
0.62070876 0.6953583 0.3622121 
0.13625947 0.57886034 0.80396146 
0.39865357 0.10234592 0.91137296 
0.4235983 0.05129078 0.904397 
0.593052 -0.033020023 0.8044868 
0.746945 0.21349391 0.6296773 
0.45725378 0.59201264 0.66365653 
0.06906605 0.1480402 0.9865668 
0.29779148 0.75654936 0.58219695 
0.21114714 0.65438 0.726088 
0.14348891 0.4137201 0.8990254 
0.50505006 0.5407061 0.6727269 
0.04175402 -0.021787655 0.99889034 
-0.19124132 -0.045398682 0.98049265 
-0.22719824 -0.25836575 0.9389506 
-0.6109847 -0.12444065 0.78180075 
-0.68998367 0.0024097348 0.723821 
-0.6210097 0.18662523 0.7612608 
-0.19255255 0.9519908 0.2379854 
-0.12458935 0.45032445 0.8841297 
-0.3711437 0.5261796 0.7651062 
0.19448689 0.88627416 0.42034885 
0.55176044 0.6582109 0.51217085 
0.11013351 0.7346251 0.66947496 
0.24012092 0.45453277 0.85775393 
0.91206044 -0.40636218 -0.05491364 
0.22480562 -0.55840683 0.79852635 
0.55933523 0.07802387 0.8252615 
0.0987753 0.18523593 0.9777173 
-0.13746473 0.12655571 0.9823885 
0.41095155 0.5112209 0.7548325 
-0.36300814 0.66690606 0.6507392 
0.4130073 0.36070707 0.8362508 
0.03152283 0.6264356 0.77883554 
-0.45113587 0.59963053 0.660999 
-0.24124677 -0.34235343 0.9080717 
-0.30248174 0.045211606 0.9520824 
-0.21832065 0.48725796 0.84552693 
0.60733014 -0.45647833 0.65021366 
0.94132084 0.27439907 0.1965206 
0.5815626 -0.18098624 0.7931135 
0.36545417 0.10827896 0.9245102 
0.2336417 -0.41985774 0.87700117 
0.04752399 0.20173237 0.97828704 
0.11350636 -0.14257099 0.9832548 
0.10386166 -0.17921308 0.9783126 
0.33315435 -0.47035703 0.8171735 
0.029174097 -0.019006588 0.99939364 
-0.5537438 0.34511817 0.7578004 
-0.7042728 0.6381313 0.31110835 
-0.98575 0.11017512 0.12711541 
-0.745823 0.6308925 0.2138287 
-0.7620429 0.4923435 0.42058107 
0.0022155335 0.39757007 0.91756916 
0.22326273 0.013065025 0.97467077 
-0.1006297 0.7633966 0.6380434 
0.027071737 0.7633946 0.64536494 
-0.23835242 0.16143703 0.9576671 
0.1875393 0.2599644 0.94723153 
-0.05483653 0.21131918 0.9758777 
0.3519641 -0.5213043 0.777408 
0.09788887 -0.59369075 0.7987172 
-0.24169801 0.38145187 0.89223117 
-0.047364883 0.07106841 0.9963463 
-0.14789361 0.9787808 0.1418299 
0.39085123 0.07993969 0.916976 
-0.20761321 0.07235473 0.97553146 
-0.33164847 0.2990772 0.8947414 
-0.18645452 0.43591166 0.8804635 
0.3450924 0.3459811 0.8724726 
0.5465759 0.55243 0.6293456 
0.07186123 0.8034058 0.5910797 
-0.51308936 0.6665211 0.5408226 
-0.82779855 0.23894309 0.5075981 
-0.28212234 0.03050781 0.9588933 
-0.25621852 0.71243405 0.6532916 
-0.38876352 0.41228434 0.82394457 
-0.053357925 0.9922907 0.11185811 
0.3709963 0.8952894 -0.24661452 
0.3055953 0.88953954 -0.3396043 
0.20117177 0.78921264 -0.5802357 
0.7979875 0.57340395 0.18553697 
0.10099179 0.47087938 0.8763979 
-0.18252374 -0.070618115 0.9806621 
-0.39434886 -0.4441499 0.8044998 
-0.20972699 0.0245682 0.9774513 
-0.6118932 0.3073632 0.72877616 
-0.5510482 0.4423763 0.7075656 
-0.33415362 0.54029226 0.77228606 
-0.1575413 0.35763255 0.920478 
-0.16280572 0.027914908 0.9862632 
0.35398656 -0.034807906 0.93460256 
0.43939725 -0.10019102 0.89268804 
-0.5756418 -0.46991783 0.6691889 
-0.41541392 -0.57648563 0.7036303 
-0.012858169 -0.04172356 0.99904644 
0.73814017 -0.01623133 0.6744522 
0.08038045 0.38420555 0.919742 
0.35923406 0.6360242 0.6829526 
0.0459831 0.48793375 0.87166876 
0.7987465 0.532931 0.27926433 
-0.3069954 0.5724402 0.7603066 
0.53210324 0.004113952 0.84666955 
-0.007335959 0.28132194 0.9595855 
0.27722573 -0.37411657 0.8849762 
-0.4152362 0.62802047 0.6581559 
-0.16202126 0.8119498 0.5607913 
0.07616443 0.21823968 0.97291857 
-0.03874821 0.6840246 0.7284292 
-0.25876904 0.96504486 0.041558027 
0.5034541 0.59616196 0.6253998 
0.5897437 0.7973103 0.1284476 
0.06224272 0.99757403 -0.031174904 
0.31895798 0.60527277 0.72932214 
0.08447716 0.996389 -0.008521767 
0.93899554 0.29530475 0.17630246 
0.80417365 -0.14847645 0.57555145 
0.6579463 0.2731271 0.7017894 
0.9252548 0.2659361 0.27052084 
0.34081283 -0.17557338 0.92359126 
0.14147286 0.91211855 0.3847406 
0.5076923 0.80004144 0.31965992 
-0.19322488 -0.03732882 0.9804442 
-0.298858 -0.05404872 0.95276576 
-0.23330255 -0.13431773 0.96308297 
-0.31692478 -0.2534469 0.91396034 
0.07117282 -0.53059036 0.844635 
0.028980538 -0.5315571 0.8465266 
0.1339796 -0.6508706 0.74727297 
0.91388804 -0.36450663 0.1787278 
0.7114958 -0.4895912 0.50405765 
-0.6856407 0.5467832 0.48054662 
-0.42740855 0.49844822 0.75423574 