# OOMMF: rectangular mesh v1.0
# Segment count: 1
# Begin: Segment
# Begin: Header
# Desc: Time (s) :  7.3e-08
# Title: m
# meshtype: rectangular
# meshunit: m
# xbase: 2e-09
# ybase: 2e-09
# zbase: 5e-10
# xstepsize: 4e-09
# ystepsize: 4e-09
# zstepsize: 1e-09
# xmin: 0
# ymin: 0
# zmin: 0
# xmax: 1.024e-06
# ymax: 1.024e-06
# zmax: 1e-09
# xnodes: 256
# ynodes: 256
# znodes: 1
# ValueRangeMinMag: 1e-08
# ValueRangeMaxMag: 1
# valueunit: 
# valuemultiplier: 1
# End: Header
# Begin: Data Text
0.060291287 -0.7395344 0.67041326 
-0.12799972 0.033863198 0.991196 
0.5995324 -0.1479817 0.78655094 
0.08068807 0.13284731 0.98784673 
-0.15950902 0.17617704 0.9713488 
-0.692174 0.14323741 0.70737416 
-0.25206798 0.57994825 0.77467525 
-0.113546275 0.7454706 0.65679586 
0.7580505 0.44085887 0.48062783 
0.5312765 0.58077914 0.6167989 
0.526096 0.3921409 0.7546181 
-0.24601322 0.9481219 0.20135172 
-0.24754104 0.8703479 -0.4256972 
0.6247899 0.06258054 -0.778281 
0.9093573 0.41590935 0.009422238 
0.38987526 0.9114813 0.13114525 
0.8890684 0.25907007 -0.37741244 
0.5913817 0.37144938 -0.7157465 
0.37078175 0.7904978 0.48747736 
0.047199626 0.8599575 0.5081786 
-0.36299944 0.3254013 0.87312394 
-0.6342309 -0.15011328 0.75843084 
-0.14080124 0.7367733 0.66131705 
0.41526547 -0.021958662 0.9094353 
-0.49557516 0.31462705 0.8095771 
-0.47271585 -0.0008988855 0.8812145 
-0.3036408 0.5394604 0.78535646 
-0.38022625 0.8286903 0.41073152 
0.0043181954 0.7737515 0.63347447 
0.46089548 0.34948888 0.8157407 
-0.028670048 0.45800075 0.8884894 
0.55795753 -0.06404851 0.8273943 
0.35346577 -0.1025208 0.9298126 
-0.54448366 0.5794646 0.6064309 
-0.79137754 0.56072265 0.24353994 
-0.45864943 0.45947114 0.7606096 
-0.23322482 -0.014088266 0.9723208 
-0.1700905 0.7121272 0.6811344 
-0.41622442 0.5261957 0.7415358 
-0.7867484 0.504225 0.35606772 
-0.7365712 0.55952686 0.37999034 
-0.4029367 0.3559565 0.8431709 
-0.16692305 -0.26470062 0.9497739 
0.37021872 0.8096574 -0.45540446 
0.027994212 0.8784121 0.4770833 
-0.72698283 0.5496818 0.41151664 
0.5010101 0.7168943 0.48482105 
-0.24095269 0.9376597 -0.25047192 
0.18916236 0.8514946 -0.48905477 
0.498065 0.8257399 0.2647354 
0.7159011 0.2510021 0.6515241 
0.53638536 0.0074902433 0.84394 
0.5516864 0.42100468 0.71999806 
-0.2819211 0.32011545 0.9044593 
-0.27052662 0.20389499 0.94087315 
-0.2717416 0.4620071 0.8442192 
0.22848971 0.53679633 0.8121837 
-0.75545144 0.5676623 0.32718915 
-0.5996164 0.5576207 0.57403785 
-0.5670762 0.10842077 0.81649834 
0.2590464 0.51382077 0.8178528 
0.48596042 0.16435641 0.85838765 
0.44552213 0.6443155 0.6215848 
-0.3261429 0.32385442 0.8881155 
-0.07597208 0.9109987 0.40535116 
-0.29558524 0.95502543 -0.023576098 
-0.6988429 0.55835766 0.44705203 
-0.8879623 0.4138726 0.20058037 
-0.46617198 0.8752984 -0.12859425 
0.05514235 0.8630993 0.50201505 
-0.24241151 0.94342417 0.22624694 
-0.52690846 0.84824294 -0.053399153 
-0.17382747 0.8377086 -0.51771456 
0.40793183 0.7917674 -0.45463854 
0.5493996 0.8128038 -0.19367546 
0.18305604 0.9802638 -0.07465524 
0.14704238 0.95563364 0.255231 
-0.024669267 0.26328352 0.96440303 
-0.118553415 0.8528691 0.5084874 
0.21560004 0.9738197 0.072054766 
0.40227297 0.817327 0.4124961 
-0.27362597 0.39989495 0.87476456 
-0.96677023 0.043556575 0.2519092 
-0.26218322 0.9399005 0.21873966 
-0.35041773 0.75705165 0.55143476 
0.09543061 0.6361549 0.7656369 
0.8503182 0.37554136 0.36868384 
0.6275416 0.74348414 0.23113419 
0.002944092 0.72144145 0.6924692 
0.6093982 0.5755948 0.54527473 
0.52823937 0.5397745 0.6554439 
0.3090491 0.60795987 0.7313505 
0.17383401 0.9340667 0.31193152 
-0.17256986 0.9830175 0.062420186 
-0.7308705 0.5845281 -0.35235676 
-0.42638442 0.49690154 -0.75583416 
0.37744233 0.31766534 -0.8698426 
0.3883239 0.9175045 -0.085965954 
0.11699209 0.4500349 0.8853143 
-0.9453677 0.25519574 0.20286731 
-0.30109587 0.34655288 0.88839316 
0.05864991 0.12913433 0.98989123 
0.059038863 0.014877899 0.99814487 
-0.119165 0.8354021 0.53656596 
-0.5507235 0.59617484 0.5841912 
0.25275078 0.96625656 -0.04965227 
0.20051947 0.9058786 -0.3730631 
-0.046275824 0.7949683 0.6048835 
-0.24011461 0.8214186 -0.5173168 
0.08585689 0.9376996 -0.33667204 
0.49402276 0.75257397 0.435401 
0.16784711 0.4463523 0.87897503 
-0.36465466 -0.31134245 0.87754935 
-0.38821784 -0.6278106 0.67464125 
0.38073614 -0.5691443 0.7287762 
-0.035938986 0.25397795 0.96654207 
-0.52780664 0.6749766 0.51558393 
-0.14081486 0.40216142 0.9046753 
-0.22147776 -0.35398796 0.9086475 
-0.31893033 -0.31452215 0.894069 
0.12198806 0.31754985 0.9403622 
-0.002069469 -0.005695457 0.9999817 
0.18177974 -0.25613788 0.94939435 
0.1745502 0.23360303 0.9565364 
-0.24404219 0.9087878 0.33844993 
0.54985464 0.5856529 0.5955424 
-0.49522915 0.8684831 -0.022028508 
-0.53770787 0.80711323 0.24380031 
-0.061118707 0.5618269 -0.824994 
0.82692796 0.10608467 0.5522102 
0.59181434 0.21921195 0.7756946 
0.40144077 0.16499396 0.90090084 
0.60835177 -0.6417324 0.4669986 
-0.57345647 0.04437099 0.8180336 
-0.52296674 0.850645 0.05393408 
-0.89191943 0.3316983 0.30733687 
-0.59482694 0.2238123 0.7720681 
0.35948464 0.6949648 0.62273175 
0.41387877 0.6993519 0.5827618 
0.31985825 0.29840377 0.89924747 
-0.8254199 0.11844298 0.5519542 
-0.42315707 0.87428606 0.23782791 
0.3656149 0.92419755 0.11038475 
0.56076413 0.5975617 0.57311743 
0.11731615 0.6998524 0.70458746 
0.57175785 -0.29701197 0.7647724 
0.72795665 0.11190534 0.67642915 
0.44153798 0.38349423 0.8111575 
0.1238553 0.5798191 0.8052762 
0.52780217 -0.15750639 0.8346357 
0.19884834 0.4060932 0.8919348 
0.8180731 0.30377638 0.48834044 
-0.13156992 -0.030825429 0.9908275 
-0.5379834 0.7424785 0.3991235 
-0.8078225 0.547943 0.2172125 
-0.7158165 0.590447 -0.3727992 
-0.020808768 0.9989874 0.039889853 
-0.022415197 0.9738456 0.22610232 
-0.75611746 0.439609 -0.48479918 
-0.32462558 0.9259013 -0.19319695 
0.7249745 0.4713866 -0.5022018 
0.46640107 -0.13724338 0.8738617 
0.7599213 0.4379982 0.48028862 
-0.12856817 0.23531322 0.9633785 
0.20507066 -0.057893638 0.97703344 
-0.238239 0.53987336 0.8073284 
0.37639436 -0.16074444 0.9124081 
0.16460249 0.062218312 0.98439574 
0.15196645 0.25498864 0.9549278 
0.90629745 -0.07649353 0.41566077 
0.68038964 -0.11263182 0.7241437 
0.55750424 0.66707045 0.4941722 
0.25414708 0.069556706 0.9646612 
-0.13249615 -0.2770145 0.95168686 
-0.09140629 -0.75336504 0.65121895 
-0.25326723 0.45635357 0.8529931 
-0.22059658 0.852874 0.47322646 
-0.3585896 0.1991963 0.91199476 
0.08263419 0.6789859 0.729486 
0.28590408 0.8125199 0.5080062 
0.22674812 0.9739494 -0.0028119022 
0.71316737 0.6241178 0.31916985 
0.16541952 0.8117116 0.56014353 
-0.5107626 0.6389091 0.57525367 
0.4186892 0.5320738 0.73593265 
0.25469226 0.4143148 0.8737707 
0.2887515 0.25318003 0.9233214 
-0.27395108 0.46540442 0.8416351 
-0.69098926 0.39370954 0.60623986 
0.17990051 0.7054024 0.6855971 
-0.5113212 0.548547 0.6615489 
-0.23529615 0.76622874 0.59793764 
0.063121974 0.99504256 0.076850034 
0.12852962 0.9905754 0.047336765 
0.20754671 0.9460669 0.2487605 
0.31086162 0.86688244 0.3897177 
0.46622193 0.5603456 0.6845802 
0.096979745 0.39374384 0.9140901 
-0.015141757 0.8019071 0.59725684 
0.082143046 0.99658877 -0.007961991 
0.5130915 0.85718197 0.04445501 
0.68362284 0.69345874 0.2275409 
0.6304357 0.7252992 0.27657184 
-0.3340177 0.53542995 0.7757235 
-0.28431755 0.07854592 0.9555073 
-0.33273882 0.47630474 0.8138912 
0.6146603 0.53564155 0.57903445 
-0.22098939 0.2320176 0.9472759 
-0.789821 0.4603378 0.40530485 
-0.6752365 0.18708955 0.71347964 
0.073979095 0.482024 0.8730293 
-0.14280619 0.6085565 0.78055465 
-0.81937736 0.40381378 0.4068849 
0.62452 0.7786095 0.061171394 
0.28538686 0.42871094 0.85718226 
-0.30985373 0.3171912 0.896315 
-0.0043251943 0.8534947 0.5210837 
0.055628363 0.9981442 -0.024775164 
0.24778357 0.94687986 0.20499288 
-0.4874306 0.86454433 -0.12237072 
0.34337938 0.7740946 -0.53185374 
0.76985824 0.45787492 -0.44459957 
0.7263688 0.6562364 0.20430891 
0.6287763 0.6805268 0.37619644 
-0.0044317413 0.99902254 -0.04398044 
-0.1957344 0.98046845 -0.019227944 
-0.1862534 0.82541436 -0.53291726 
-0.7974959 0.60051113 -0.058195096 
0.21625346 0.9327993 -0.28830534 
-0.4518796 0.8828451 0.12802073 
-0.015274121 0.9620279 0.27252343 
0.7876722 0.48866665 0.37520313 
0.767037 0.45047754 0.45686376 
0.5963685 -0.15609178 0.7873882 
0.17017756 -0.27162722 0.94723713 
0.39235 0.13329953 0.910106 
0.6902153 -0.10798969 0.7155006 
0.42830852 0.11981391 0.8956542 
0.043337952 0.7315955 0.6803601 
-0.7693795 0.63871646 0.009826595 
-0.4106663 0.90970474 -0.061568677 
-0.1934397 0.7355778 -0.64923525 
0.4674408 0.85146344 0.23771685 
0.28580284 0.9135 0.28954217 
-0.5626326 0.74373984 0.36096504 
-0.30704904 0.8092314 0.50086486 
0.21642174 0.37291345 0.90227336 
0.17548086 0.014894249 0.9843702 
0.004341035 0.24358816 0.96986914 
0.36790395 0.288554 0.8839589 
-0.23752233 0.44501683 0.8634485 
-0.14473903 -0.1213786 0.9819969 
-0.5345548 0.050345533 0.843633 
-0.7038398 0.30092484 0.6434701 
-0.5295709 0.69639546 0.48434287 
0.052600954 0.64479154 0.7625464 
0.26269412 -0.5468475 0.7949527 
0.7843926 -0.25759065 0.5642475 
0.50085366 -0.29962632 0.8120159 
0.2582944 -0.0327607 0.9655106 
-0.54869664 0.065612786 0.8334429 
-0.15942255 0.4846172 0.86007595 
-0.2465421 0.82999754 0.5003211 
0.23494112 0.74751645 0.62130666 
0.63428813 0.5839253 0.5066654 
0.45685756 0.45860976 0.76220626 
0.08895759 0.75189143 0.65325797 
-0.34881818 0.91122794 0.21906516 
0.22941016 0.97274953 -0.033607557 
0.75015587 0.60426444 -0.26857173 
0.7141751 0.28872108 0.6376474 
0.31317663 0.88327366 -0.34892413 
0.5883133 0.77824765 -0.21958636 
0.0671394 0.3019023 0.9509718 
-0.46321464 0.51929146 0.7181703 
-0.5932314 0.38331395 0.7079174 
-0.4699518 0.122654006 0.874129 
-0.60751 0.11979155 0.7852272 
-0.3709028 0.67772084 0.6349217 
-0.61203814 -0.49366495 0.61782223 
-0.036726356 0.06167143 0.9974206 
-0.21452 0.10923757 0.97059184 
-0.25437692 0.75209606 0.60798365 
-0.7842856 0.13600288 0.60530937 
-0.6031333 0.5366691 0.59009886 
0.36425203 0.6729261 0.6438097 
0.5473061 0.5768617 0.6063717 
0.5141484 -0.37043092 0.7735841 
0.291465 -0.21391675 0.9323561 
-0.303288 0.11547748 0.94587606 
-0.2052994 -0.61298025 0.76295966 
-0.04050588 -0.6429045 0.76487464 
0.15919173 -0.45898014 0.8740682 
0.39154312 0.16044436 0.9060638 
0.4754483 0.84167826 0.25598195 
-0.6535003 0.46946725 0.59374905 
0.013773283 0.6918995 0.72186255 
0.1441983 0.36107007 0.9213226 
0.28610802 0.16704234 0.9435248 
0.07842542 0.99552405 0.052739423 
0.18908451 0.683629 0.70491034 
-0.3535195 0.45940596 0.81484365 
-0.33300716 0.8531661 0.40151462 
0.057019543 0.90291244 0.42602572 
0.035193693 0.44122174 0.89670783 
0.15432978 0.25106806 0.9555873 
0.13536802 -0.16477105 0.97699857 
0.43733653 -0.25499782 0.86238796 
0.913737 -0.1884797 0.3599446 
0.48621222 -0.35984978 0.7963076 
-0.20016083 -0.3206105 0.925821 
-0.4205491 0.033621833 0.90664655 
0.10460275 -0.06224933 0.992564 
-0.26630867 0.8749677 0.4043651 
-0.21295951 0.5855202 0.78218573 
-0.07090325 0.98321056 0.16813618 
0.014976372 0.8921322 0.4515262 
0.46611643 0.32029858 0.8247086 
-0.15151756 0.17805277 0.9722858 
-0.2696108 0.6877265 0.6740492 
-0.30414826 0.6617172 0.68529147 
-0.42105338 0.8997321 -0.11487479 
-0.47727045 0.37599984 0.7942526 
-0.64494073 0.30388474 0.7012173 
-0.6521604 0.41462564 0.6346436 
-0.40134665 0.61421084 0.6794601 
-0.23926342 0.82740444 0.5080896 
-0.6166843 0.57508427 0.5375674 
-0.47121918 0.7822569 0.40746388 
0.34983888 0.9318823 0.09595952 
0.14723738 0.9427199 0.29933354 
0.07951012 0.97965753 -0.18425338 
0.3118219 0.92184234 0.23016067 
0.4439066 0.6696059 0.595462 
0.32157016 0.9436643 0.07804116 
0.056210272 0.9848211 0.16421922 
0.3947948 0.74761176 0.5340541 
-0.37950855 0.26142758 0.88748467 
-0.52993846 0.12055114 0.83942413 
-0.5986461 0.8005608 -0.026930528 
0.15360741 0.38621196 0.9095302 
0.1002261 0.6060538 0.789084 
-0.36439204 0.7942119 0.48625702 
-0.023623388 0.9926371 -0.11880079 
0.50497043 0.8061476 0.30843318 
-0.2477728 0.8231227 0.5109578 
0.4279954 0.2989824 0.85289484 
0.28155893 0.30295032 0.9104646 
-0.36072245 0.93082607 0.058669925 
-0.6048224 0.7568441 0.24774411 
-0.53043604 0.8411065 0.10572366 
-0.2842736 0.9147657 -0.28704047 
0.11625103 0.6303633 -0.7675468 
0.41677502 0.90723974 0.056700066 
0.21406649 0.903396 0.37155253 
0.5168593 0.85172045 -0.08619056 
0.85507816 0.33042216 0.39957803 
0.8466911 0.24729034 0.47112826 
0.47442874 0.019507414 0.88007784 
0.040557407 0.2964335 0.9541919 
-0.636446 0.41695523 0.6489106 
0.07273073 0.9404994 0.33192027 
0.6408396 0.7277956 0.24420942 
0.12451974 0.86161107 0.49205822 
-0.04995545 0.9943748 -0.09339807 
-0.33944297 0.9109382 0.23445702 
0.0052105123 0.9241761 0.38193142 
0.0967655 0.7569386 0.646282 
0.5333227 0.16013741 0.83061606 
-0.02174804 0.00024076624 0.9997634 
0.2849046 -0.36847484 0.8849044 
0.22761476 -0.22521077 0.9473499 
0.23182024 0.45222756 0.8612489 
0.44875178 0.22216131 0.8656016 
0.07378791 -0.09258434 0.992967 
0.13237263 -0.058843978 0.9894519 
0.0030186155 0.49166757 0.8707778 
-0.5088367 0.17824864 0.842207 
0.02694542 0.10626562 0.99397266 
-0.32812175 0.21184087 0.9205757 
-0.74086356 0.37097317 0.55991083 
-0.5787343 0.119266875 0.8067478 
-0.6912767 0.6662456 0.27973804 
-0.09135434 0.79084206 0.60516393 
-0.007224145 0.6648993 0.7468981 
0.7201068 0.20725532 0.6621869 
-0.09335948 0.26371285 0.9600727 
0.051786114 0.5520153 0.83222437 
-0.37843287 -0.15322371 0.91285884 
-0.32376343 0.18921933 0.9270239 
-0.35884824 0.04748485 0.9321873 
-0.577088 0.11577081 0.8084346 
-0.54820144 0.17715944 0.8173676 
-0.7661635 0.22458331 0.60212606 
-0.49146864 0.43581513 0.75400525 
-0.36198235 0.1470421 0.9205148 
-0.5246574 0.43781176 0.73010653 
0.019073052 0.89505154 0.44555485 
0.515636 0.8060623 0.29048795 
-0.28694114 -0.03827936 0.9571831 
0.20850468 0.9213264 0.32815164 
0.1733199 0.39435363 0.90246636 
-0.7002139 0.15343554 0.6972503 
-0.21625112 0.82139754 0.52777046 
0.17566992 0.8470297 0.5016781 
0.44836342 0.3132515 0.8371641 
-0.14378436 -0.03589162 0.988958 
0.61480665 0.38905814 0.68603694 
0.14309064 0.1922327 0.9708614 
-0.12972668 0.6900978 0.71199447 
-0.6072292 0.72868437 0.31668898 
-0.025012264 0.98608977 0.16432148 
-0.2645844 0.863928 0.4285132 
-0.08647892 0.99616414 0.013355971 
-0.45402128 0.88393736 0.111890405 
0.16409862 0.71462125 -0.67999136 
0.8777264 0.13836089 -0.4587512 
0.79456246 0.21632244 0.5673404 
-0.08879512 0.6388854 0.7641603 
0.4922572 -0.12226055 0.861821 
0.34369504 0.18528372 0.92062145 
-0.005326836 -0.010177523 0.9999341 
0.28701997 -0.7361898 0.6128982 
0.6625737 -0.3393812 0.6676949 
0.7996835 -0.15767816 0.5793478 
0.854368 0.07990043 0.5134894 
0.194224 0.41309893 0.8897339 
0.5399164 0.21473995 0.8138655 
0.6324572 -0.10371094 0.767621 
0.6623076 0.16920356 0.7298759 
-0.28385437 -0.5928454 0.753632 
-0.8276229 0.05580695 0.5585034 
-0.24545735 0.8900103 0.38422954 
-0.68641055 -0.121606216 0.7169746 
-0.1062626 0.20620763 0.9727213 
0.35329407 0.53437585 0.76787096 
0.33918047 0.47030398 0.81472135 
0.3201262 0.7610489 0.5642021 
-0.15403335 0.51949304 0.84047645 
-0.0720413 0.004062859 0.9973934 
-0.54691523 0.22667837 0.80591613 
0.14598899 0.7568066 0.6371272 
-0.19269472 0.21921119 0.95645976 
-0.53180516 0.34215197 0.7746711 
-0.542667 0.69349015 0.47390294 
-0.7494814 0.6603042 -0.04770848 
0.0030590475 0.24138892 0.9704237 
-0.16373703 0.47241524 0.8660335 
-0.5020764 0.792615 0.34594935 
-0.4783983 0.6737154 0.563243 
-0.31999797 0.8858727 0.33590332 
0.5605634 0.79605246 0.22818668 
0.014278739 0.8660495 0.49975443 
0.26266965 0.6653553 0.6987897 
0.06576454 0.77121526 0.63316834 
0.03950343 0.8182342 0.5735262 
0.39229602 0.91220766 0.11824175 
0.39532822 0.9185392 -0.0012017183 
0.93856734 0.25291532 -0.23478785 
0.05948947 0.16050194 0.9852412 
-0.25869134 0.06380485 0.96385056 
-0.5952027 0.48172545 0.64317524 
0.4876376 0.80636424 0.33464348 
-0.016453797 0.43822095 0.8987167 
0.24900766 0.44615734 0.8596155 
-0.12508309 -0.18737315 0.9742924 
0.33857295 0.35129613 0.87290287 
-0.0971472 0.28528076 0.9535079 
-0.14927132 0.25761363 0.9546483 
-0.119620994 0.7947816 0.59499 
-0.23104644 0.63401455 0.73799944 
-0.35027486 0.42749408 0.8334005 
0.09485121 0.47566637 0.8744968 
-0.26198646 0.95375 -0.14739098 
-0.22651583 0.8978774 0.3775009 
-0.2577982 0.8508333 0.45784596 
0.81047815 0.5849897 0.030202106 
0.30062857 0.8352449 -0.46042207 
0.45432812 0.85886526 -0.23650908 
0.43360606 0.8898052 -0.14224067 
0.56648713 0.8015683 0.19126043 
-0.14048277 0.78740084 0.6002203 
-0.17948432 0.9541986 -0.23935394 
0.45155567 0.82348275 -0.343473 
0.39519036 0.8955008 -0.20470227 
0.27087376 0.70624185 0.6541024 
-0.15360315 0.54418045 0.82478714 
-0.09299634 0.7920992 0.60326666 
-0.1657235 -0.031223116 0.9856779 
0.42179418 0.07099265 0.9039081 
0.83866745 -0.19239181 0.50953156 
0.75014836 -0.08439572 0.65586203 
0.7241356 0.08736368 0.6841019 
0.34030455 0.38416034 0.858262 
0.061377045 0.60858095 0.7911145 
-0.46431744 0.45541352 0.7596103 
-0.38517493 0.84874153 -0.36232325 
0.2373683 0.9582121 0.15964375 
0.25391138 0.5436128 0.80000883 
0.32603636 0.5456073 0.7720188 
-0.10445962 0.74480706 0.6590529 
-0.7030899 0.6793118 0.2102384 
-0.38293362 0.8088113 0.4463028 
0.3690761 0.61846787 0.6937437 
0.3538566 0.36667415 0.86042756 
0.027593067 0.1529596 0.98784715 
0.050534062 -0.33342084 0.94142276 
-0.23443419 -0.7864764 0.57139784 
-0.5974827 0.09342391 0.796421 
-0.68626016 0.46403536 0.5601056 
-0.26149368 -0.05116021 0.9638484 
-0.42993313 0.030263677 0.90235335 
0.5148667 -0.8365905 0.18715951 
0.39034072 -0.81753266 0.4234083 
0.07825959 0.22387339 0.9714712 
0.03718025 0.2351459 0.9712487 
-0.19907245 -0.025454853 0.97965413 
-0.1941237 0.65128785 0.73358035 
-0.29279226 0.47290763 0.8310421 
-0.42959642 0.50447077 0.7489701 
-0.59012145 0.16490634 0.79029274 
0.022977967 0.026602635 0.99938196 
0.28652766 0.7029657 0.65095407 
0.004061143 0.7765936 0.6299888 
0.66242534 0.4729184 0.58098274 
0.29827952 0.7650681 0.5707014 
0.26698503 0.42991582 0.8624915 
0.18149559 0.8543696 0.4869417 
0.35692766 0.58558804 0.72779757 
0.13867755 0.28838706 0.94741833 
-0.8562843 0.20073098 0.4759036 
-0.75565934 0.23121136 0.61279726 
-0.6732482 0.14558259 0.7249433 
-0.42719248 -0.271538 0.8624233 
-0.62236047 0.08331323 0.7782843 
-0.99845684 0.027363032 0.048325438 
-0.9740115 -0.094835736 0.20568885 
-0.75268924 -0.112054825 0.64877003 
-0.2567919 0.4825319 0.8373894 
-0.46370363 0.8188124 0.3384159 
0.40443984 0.7631612 0.5039975 
0.27969104 0.17871298 0.94331044 
-0.05952932 0.4429933 0.8945464 
0.49932206 -0.19394158 0.8444313 
-0.0011270304 0.21473838 0.976671 
-0.20952511 0.1154233 0.9709669 
-0.05843095 -0.65777636 0.75094354 
0.2658046 -0.55170554 0.7905498 
0.57878375 -0.5247721 0.62419844 
0.3678295 -0.8110887 0.45479286 
-0.3803063 -0.13122657 0.91550356 
-0.81084716 -0.25566646 0.5264615 
-0.18755127 -0.33255953 0.924245 
-0.7018429 -0.51519567 0.49192485 
-0.46896046 0.8651344 0.1778166 
-0.64710116 0.7211428 -0.2474129 
-0.5107879 0.8422148 0.17254022 
-0.36943278 0.7808455 -0.5037854 
-0.01589315 0.76892596 0.63914037 
-0.19653156 0.9770573 0.082064494 
0.039045736 0.9155036 0.40041065 
-0.3472087 0.50359845 0.7910973 
0.17896612 -0.5457485 0.81861454 
0.3222044 -0.04977737 0.9453606 
0.53379154 -0.13518439 0.8347406 
0.20071362 0.122181654 0.97200084 
0.24881326 0.12158315 0.96089 
-0.12693791 0.112347394 0.9855277 
0.12958291 0.09639214 0.9868723 
-0.3106301 0.80981857 0.49769756 
0.6514359 0.6427542 0.4031109 
0.33688286 0.7833106 0.5224313 
0.042486507 0.45154506 0.8912362 
-0.1150558 0.33523208 0.93508387 
-0.027887452 0.827098 0.56136554 
0.057881124 0.9792131 0.19440028 
-0.68715024 0.14898565 0.7110752 
-0.5389894 0.60049784 0.5906715 
-0.043247964 0.50055015 0.86462665 
-0.4348057 0.25495288 0.86367995 
-0.7522773 0.30476686 0.58412004 
-0.44452795 0.68958986 0.57171744 
-0.5342474 0.72128737 0.44082236 
-0.024367532 0.67514515 0.73728245 
-0.11828248 0.5903871 0.79840606 
-0.2918868 0.37389508 0.8803435 
-0.37004203 0.86446106 0.34025884 
0.09952498 0.961054 0.257818 
0.15562542 0.20054889 0.96724397 
-0.61379683 0.7490266 0.2494246 
0.25329167 0.91896415 0.30223885 
0.87067777 0.4557858 0.1848771 
0.38108006 0.71033293 0.5917814 
-0.8617218 0.019961512 0.5069883 
-0.4487681 0.737181 0.5051448 
0.16898088 0.5882721 0.79081064 
0.68189234 0.3245255 0.6555198 
0.73227614 0.34847748 0.58509415 
-0.021800999 0.6425799 0.7659086 
0.03771427 0.98174304 0.18643564 
-0.056212533 0.97938937 0.1940015 
-0.07958403 0.7496384 0.6570454 
0.43862215 0.29154575 0.85006565 
0.22600408 0.84058046 0.49228725 
-0.08746276 0.84258807 0.5314091 
-0.26436073 0.5577626 0.7867747 
-0.6765136 0.5648103 0.4725661 
-0.3805018 0.8704505 -0.31230494 
0.23823267 0.9707161 0.0309116 
0.62241614 0.78237915 0.021933427 
0.56741863 0.55446225 0.60877573 
0.76876634 0.638529 -0.03576659 
0.91646844 0.15993558 0.366751 
0.17967719 -0.54363745 0.8198625 
0.059051868 -0.20240255 0.97752047 
-0.22033168 -0.06677985 0.9731364 
-0.4334774 0.82772976 0.35631573 
0.2921547 0.45156145 0.8430528 
-0.30085483 0.61204576 0.73135924 
0.2888289 0.038113505 0.9566219 
-0.20927355 0.70742565 0.6750953 
-0.13790457 0.4732285 0.8700788 
0.06293885 0.51733106 0.8534678 
-0.049897674 0.8958838 0.44147772 
-0.27313069 0.6719009 0.6884394 
0.1343557 0.5846185 0.80010617 
0.069006965 0.26210278 0.9625696 
0.2049079 -0.20297754 0.9575035 
-0.29168245 -0.7783722 0.55592996 
-0.5267106 0.15209591 0.83632696 
-0.3401669 -0.10691123 0.93426794 
-0.27110165 0.04369563 0.96155846 
-0.2790692 0.08918426 0.95612067 
-0.2606923 -0.070911475 0.96281415 
-0.30582365 0.22163685 0.9259315 
-0.1390959 0.2620189 0.95498616 
-0.6254894 0.12998861 0.7693283 
-0.64080256 0.16040029 0.7507622 
-0.30122095 0.15725482 0.9404983 
-0.38126543 -0.13177568 0.91502565 
0.29117092 -0.17259909 0.9409725 
0.528534 -0.15439413 0.83475405 
0.1649633 -0.42328638 0.89085126 
0.009535617 0.51850426 0.8550219 
-0.16268902 0.33002558 0.929847 
-0.49233627 0.36718932 0.7891623 
-0.80843055 0.21780853 0.54680854 
-0.8559889 0.40604362 0.32001817 
-0.5244338 -0.29463527 0.7988488 
0.17834045 -0.34553382 0.9213041 
0.074461214 0.0971155 0.99248385 
-0.06980265 0.14927484 0.9863289 
-0.56621075 0.28061974 0.77502126 
0.16014779 0.9711613 0.17663103 
0.31955168 0.30428952 0.8973822 
0.13797945 0.5329182 0.83484125 
-0.072835445 0.102911584 0.99202037 
0.081329845 0.478632 0.8742409 
0.38549122 0.31014162 0.8690275 
-0.42030978 0.16440503 0.89236253 
-0.08140854 0.17254333 0.9816321 
-0.77730465 -0.385247 0.49737525 
-0.124660775 0.055591725 0.9906409 
-0.27351025 0.45004764 0.85008776 
-0.77512795 -0.08604125 0.6259182 
-0.24949966 0.48803517 0.83640397 
-0.451454 0.5449798 0.7065312 
0.6627805 0.50051826 0.5569592 
-0.34720072 0.92946005 0.12472295 
-0.539222 0.8191543 0.19551413 
-0.26883495 0.764131 0.5863715 
-0.08191218 0.72105706 0.6880169 
0.82494015 0.50658834 0.25068346 
0.596492 0.21992147 0.7719014 
0.37885278 0.06896914 0.92288345 
0.7897226 -0.4203477 0.4468176 
0.49064368 0.17879942 0.8528186 
0.41869885 -0.042975005 0.90710783 
0.8694477 -0.22296855 0.44084677 
0.8194999 0.39885083 0.41150686 
0.8908249 0.30608362 0.33577353 
0.38000065 0.46270272 0.80094045 
0.05696148 0.7129491 0.6988985 
0.46393415 0.33015874 0.8220464 
0.6843187 0.33038262 0.6500426 
0.255577 0.0033789496 0.9667828 
-0.07107359 -0.15832725 0.9848254 
-0.9225702 -0.04947716 0.38264385 
-0.73785675 0.22663927 0.6357689 
-0.9484629 0.2869712 0.13440867 
-0.64552623 -0.35122907 0.67818433 
0.2520162 0.96600807 0.05758681 
0.66765016 0.43886045 0.6013692 
0.34711096 0.055168174 0.9362001 
-0.1634911 0.1391709 0.97667915 
0.37696907 -0.24809355 0.89238113 
-0.10489684 0.23722626 0.96577454 
0.6156135 0.62512577 0.47983098 
-0.15128246 0.32909876 0.93209857 
-0.984351 0.075174175 -0.15938011 
-0.5462132 0.82565653 0.14121793 
-0.3367114 0.8573414 0.38934734 
0.07380504 0.54365736 0.83605605 
-0.30924445 0.43308324 0.84664446 
-0.40605414 0.26118585 0.8757295 
0.20793845 -0.045583133 0.9770792 
-0.13275109 0.662073 0.7375884 
0.3186776 0.5265184 0.7881771 
-0.48508018 -0.00359007 0.87446237 
0.3526944 0.6710516 0.65214753 
0.4158771 0.610667 0.6738932 
0.4619351 0.70110637 0.5431996 
-0.015536767 0.3769186 0.9261161 
0.21327232 0.47287145 0.8549313 
0.12774065 0.99176526 -0.009165797 
0.7065711 0.15691 0.69002646 
0.28136086 0.47657096 0.8328963 
-0.041419983 0.25962102 0.9648219 
0.29383123 0.1852707 0.9377302 
-0.033811707 0.12998863 0.9909388 
0.17174192 0.10947403 0.9790405 
0.30498976 0.19526963 0.93212175 
0.48549914 -0.06852719 0.8715472 
-0.213481 0.6310454 0.7457933 
0.6881122 0.32456955 0.64896554 
0.023417944 -0.06235038 0.99777955 
-0.41301993 0.47228786 0.77869046 
-0.31713268 0.6397159 0.700136 
-0.6495249 0.3581116 0.6707262 
-0.58627343 0.46405575 0.66402996 
-0.7885419 0.475291 -0.3902566 
-0.07626535 0.9966544 0.02938788 
0.23839422 0.94003224 0.24394216 
0.101617776 0.8899572 -0.44457865 
0.79260665 0.6038368 0.084592134 
0.4676422 0.755044 -0.45958626 
0.46699637 0.57302725 0.67346436 
0.48157087 0.34196812 0.80693704 
-0.3459382 0.77939945 0.5223632 
-0.4838367 0.83836514 0.25108942 
0.091138415 0.98922694 0.114560165 
0.46062785 0.86173946 0.21266669 
0.40564322 0.2342213 0.8835124 
-0.035461713 0.8300294 0.5565911 
0.13682388 0.31652477 0.9386646 
0.48679188 -0.19329073 0.8518641 
0.5130604 -0.443719 0.734767 
0.045564704 0.09148649 0.9947634 
-0.13496663 0.22508568 0.9649459 
0.58877975 0.5772105 0.5658327 
0.4163524 0.40709278 0.8129738 
0.31025267 0.71387833 0.6277907 
-0.53316224 0.5615913 0.6327347 
-0.30928516 0.6664851 0.67833656 
0.10805641 0.2692023 0.9570026 
-0.16106452 0.5811349 0.79770947 
0.21086684 0.65854603 0.72239345 
-0.2659925 0.88060445 0.392153 
0.057160806 0.89380646 0.44479534 
0.62944895 -0.02360172 0.77668333 
0.2959996 0.6908458 0.6596335 
-0.44349274 0.26911208 0.8549228 
-0.39802274 -0.31485868 0.86165076 
-0.44358173 -0.097396426 0.890926 
-0.42885822 -0.20047984 0.88084537 
0.013709436 0.10456757 0.9944234 
-0.6362919 -0.32547927 0.6994254 
-0.84180945 0.194 0.50370705 
0.43908438 -0.89740187 -0.043298144 
0.30071643 -0.44371644 0.844207 
-0.3710166 0.18684022 0.9096359 
-0.4222785 0.455145 0.7839158 
-0.3951654 0.46828976 0.7902843 
-0.79166555 0.4283125 0.43567654 
-0.15926953 0.40924844 0.8984148 
-0.75325257 0.44775736 0.48179245 
-0.4680238 0.66209173 0.5853104 
-0.75629336 0.4413753 0.48291644 
0.19050004 0.62189 0.7595806 
0.3398029 0.3355523 0.8786005 
-0.36810327 0.760785 0.53451496 
-0.22939117 0.8319361 0.50523466 
-0.6430769 -0.3873954 0.66058826 
-0.3002729 0.7706475 0.56208426 
-0.046260674 -0.011800126 0.9988597 
0.044801347 0.1874511 0.9812517 
-0.8511358 0.5241561 0.02878166 
-0.75656104 0.36064428 0.5454826 
-0.98934495 0.12779234 0.06975541 
-0.97356 0.017149173 0.2277868 
-0.4466771 -0.25996888 0.85609335 
-0.80247164 -0.18543944 0.56714326 
-0.2929159 0.31236443 0.90367514 
-0.20012505 0.47647703 0.8561073 
-0.16253807 0.4057576 0.8994121 
0.5266688 -0.032741312 0.8494398 
0.68611324 0.50219065 0.52635854 
0.6391628 0.56773007 0.5188001 
0.31256196 0.7339981 0.6029526 
0.37535396 0.15364367 0.91405857 
-0.044644237 0.3990138 0.9158575 
-0.13450828 0.096417315 0.9862105 
0.5024023 -0.5903838 0.6316952 
0.92595035 0.23003307 0.29950097 
0.5887154 -0.26842046 0.7624728 
0.2968563 -0.38250333 0.87496716 
-0.10320892 -0.35130197 0.93055624 
-0.17271364 0.0061917403 0.9849527 
-0.8320683 0.22941077 0.50500786 
-0.3249306 0.73947436 0.58957434 
-0.48937535 0.7403464 0.46086782 
-0.24605998 0.91799504 -0.31102997 
-0.38741356 0.77848434 -0.49383485 
-0.37048277 0.8796687 -0.29820374 
-0.2179771 0.57969856 0.78513414 
-0.43356892 0.50379205 0.7471356 
-0.046005603 0.25902697 0.9647739 
0.28722337 -0.06048826 0.9559518 
-0.39460024 0.058986105 0.9169577 
0.7115399 0.666464 0.22256882 
-0.083669186 0.48945507 0.8680054 
0.5372042 0.360605 0.76248 
0.17960252 0.08031477 0.9804553 
-0.3987683 0.27021864 0.8763366 
0.2663749 0.36154544 0.89349276 
-0.3621283 0.4752451 0.8018762 
-0.67494416 0.4615115 0.57572347 
0.002522223 0.7263629 0.6873069 
0.18188687 0.5106475 0.8403311 
-0.21711515 0.6299779 0.74564666 
-0.14215517 0.9046907 0.40165526 
-0.017175272 0.8316408 0.5550482 
-0.41580462 0.82108796 0.39105114 
-0.39245144 0.9060984 0.15801173 
-0.11695443 0.5730993 0.8110974 
-0.38776433 -0.14280313 0.9106296 
-0.36621413 -0.021850996 0.930274 
-0.19234121 0.3329652 0.9231138 
-0.72768044 0.14407244 0.67061496 
0.29998022 0.43482527 0.8490813 
0.008471034 0.32331082 0.94625497 
0.106530845 0.662776 0.7412012 
-0.020229239 0.7011841 0.7126933 
0.17192365 0.9649151 0.19844694 
0.31478825 0.68308586 0.659016 
-0.5577924 0.74503404 -0.36577585 
-0.026924565 0.93964803 0.3410816 
0.15930812 0.97410333 0.1604483 
-0.018408336 0.9918834 0.1258116 
0.52132815 0.305311 0.79687023 
0.06466657 -0.026864136 0.99754536 
0.71118575 0.61334825 0.34353867 
0.6746962 0.5942556 0.43777317 
0.38715476 0.28507096 0.87683845 
0.043030884 0.89627594 0.4414044 
-0.5121128 0.7714203 0.3776918 
0.021684946 0.88061297 0.47333992 
-0.5135225 0.7561036 0.405712 
-0.37525406 0.40168354 0.83536506 
0.14899309 0.553846 0.8191799 
0.38899788 0.63646847 0.66602457 
0.5752641 0.30169812 0.7602957 
0.2640251 0.7714605 0.5789124 
0.13212712 0.97370213 0.1855981 
-0.5388046 0.78268164 0.3116072 
0.2948671 0.955376 -0.01761264 
0.84246486 0.3364036 0.42081544 
0.32361794 0.7381878 0.591904 
0.9918752 0.12538292 -0.02151446 
0.16119891 0.9867802 0.01673026 
0.8863041 0.18236019 0.4256876 
0.27427337 0.46349588 0.84258276 
-0.44253895 0.4740159 0.7612281 
-0.16751285 0.14390394 0.97531086 
-0.57235456 0.5325705 0.62352145 
-0.3084315 0.25122675 0.9174721 
-0.4860586 0.19645359 0.8515592 