# OOMMF: rectangular mesh v1.0
# Segment count: 1
# Begin: Segment
# Begin: Header
# Desc: Time (s) :  7.6e-08
# Title: m
# meshtype: rectangular
# meshunit: m
# xbase: 2e-09
# ybase: 2e-09
# zbase: 5e-10
# xstepsize: 4e-09
# ystepsize: 4e-09
# zstepsize: 1e-09
# xmin: 0
# ymin: 0
# zmin: 0
# xmax: 1.024e-06
# ymax: 1.024e-06
# zmax: 1e-09
# xnodes: 256
# ynodes: 256
# znodes: 1
# ValueRangeMinMag: 1e-08
# ValueRangeMaxMag: 1
# valueunit: 
# valuemultiplier: 1
# End: Header
# Begin: Data Text
-0.48643976 0.76651907 0.41931486 
-0.40978774 0.76518786 0.49654955 
-0.1204552 0.87047297 0.47724998 
-0.16233416 0.80641365 -0.5686342 
0.6293761 0.6542863 -0.41927946 
0.6750218 0.4193459 -0.60703766 
0.76229215 0.27202344 0.58729374 
0.7799293 0.30861315 0.54448897 
0.28659722 0.050271116 0.95673144 
0.24843511 0.4789283 0.8419665 
-0.9348822 0.21649982 0.2812885 
-0.9165763 -0.30835554 -0.25456765 
-0.49500915 -0.8551073 0.15413494 
-0.4825878 -0.29550546 0.82449114 
0.17782329 0.39953142 0.89930725 
0.0096516665 0.7643638 0.644713 
0.07657195 0.87401456 0.47982836 
-0.34746122 0.5710216 0.7437775 
-0.39279422 0.50371635 0.7694041 
-0.6350233 0.5954249 0.49215317 
-0.44056624 0.60050136 0.6673077 
-0.74360925 0.63314384 -0.21488214 
-0.48319831 0.8032249 0.34835222 
-0.25433215 0.7881234 0.56051457 
-0.47555146 0.67067 0.56925625 
-0.5674341 0.49963278 0.6545118 
-0.5240457 0.70292115 0.4809137 
-0.3042395 0.92580765 -0.22431798 
0.018630482 0.61294544 0.78990555 
-0.23992132 0.69384724 0.67898005 
-0.8663005 -0.002471517 0.499517 
-0.5527946 0.753588 0.35570115 
-0.044597734 0.3811142 -0.92345166 
0.4161611 0.7820723 -0.4638675 
-0.016735274 0.7992923 -0.6007093 
-0.40944958 0.59565365 -0.6910483 
-0.3183792 0.94743323 -0.0317004 
-0.26373786 0.8280453 -0.49475577 
0.034477387 0.5733936 -0.81855434 
-0.13332193 0.7232795 -0.6775633 
-0.7222212 0.62159246 0.30334693 
-0.8179975 0.5692507 -0.08266644 
-0.27742097 0.6757535 -0.6829312 
-0.4267386 0.45870572 -0.77941215 
0.12948123 0.41833594 -0.8990159 
-0.11003391 0.43566108 -0.89335996 
-0.12954086 0.60594374 -0.78488934 
0.0035720288 0.9405929 -0.33951768 
0.124947384 0.9797154 0.15667187 
-0.30612805 0.9319589 0.19426343 
-0.4021579 0.9138819 0.055578794 
-0.37450683 0.90091634 0.2193042 
-0.6891047 -0.0016303766 0.72466004 
-0.8609915 0.20642868 0.4648449 
-0.6293412 0.21079668 -0.74799365 
0.047351353 0.9869822 0.15370107 
-0.72993726 0.3613942 0.58016026 
-0.6790641 0.55828834 0.4766405 
-0.102672495 0.49992448 0.85996157 
-0.33107334 0.25477192 0.90856034 
-0.022007803 0.90693974 0.42068532 
-0.3956862 0.79693747 -0.4564244 
0.24993718 0.7285163 -0.63780516 
0.56396586 0.7990898 0.20832235 
0.31421584 0.947849 0.05339261 
-0.45121932 0.8738858 0.18090029 
-0.51619697 0.55239713 0.65452135 
0.57060283 0.8212067 0.0056569926 
-0.32852337 0.90411246 0.27322736 
-0.4052967 0.7730306 0.48801482 
0.17347322 0.8028571 0.57037497 
-0.28489262 0.7617099 0.5819228 
-0.705806 -0.03161505 0.7076994 
-0.38044202 -0.32127085 0.8672075 
-0.7805009 0.12590125 0.6123459 
-0.62155485 -0.5185134 0.5872082 
-0.8900922 -0.1592746 0.4270453 
-0.6018108 0.612361 0.5126771 
-0.29915753 0.7539036 0.5849225 
-0.08686209 0.9579014 0.27364185 
-0.41493383 0.90918255 0.0348861 
0.0133236395 0.7731781 -0.634049 
-0.110740274 0.12194547 -0.98633975 
0.5696306 0.8173263 -0.08659512 
0.11504297 0.9927905 -0.033647034 
0.23165926 -0.012054348 0.9727223 
0.18981576 0.38599744 0.9027602 
-0.44226623 0.7336295 0.51593447 
0.40928847 0.7328268 0.5435511 
-0.76681674 -0.16354765 0.62068063 
-0.941166 0.31116176 0.13185225 
0.3699871 0.6396567 0.6737573 
-0.27813873 -0.1360441 0.950858 
-0.45763353 0.46473232 0.7580208 
-0.5869491 0.4128755 0.6964371 
-0.6380355 0.16808234 0.75143796 
0.7401318 0.012239656 0.67235047 
0.21517082 0.118629925 0.9693444 
0.5126923 0.66798615 0.5393896 
0.003441068 0.1897649 0.98182356 
0.28943723 0.277599 0.91605943 
0.9614747 0.07946492 0.26315752 
0.5808624 0.35984004 0.7301466 
0.14220108 0.35453168 0.92416793 
-0.08219126 -0.4847518 0.8707815 
0.20793793 0.35082287 0.9130637 
0.57116777 0.2768246 0.77274543 
-0.15426771 0.73984176 0.65485543 
0.06410914 -0.09501601 0.99340934 
-0.27636412 0.4843465 0.8300792 
0.2618744 0.9001246 0.34813425 
-0.6200889 0.5317489 0.57683015 
-0.17958418 0.64989585 0.73850185 
-0.10719109 0.76202327 0.63861614 
0.52217215 0.21378648 0.8256099 
0.08770738 -0.4672714 0.87975276 
0.23611508 0.052612755 0.9702997 
0.21321337 0.45533302 0.8644143 
0.23005094 -0.75947994 0.6084955 
-0.17376897 -0.36629367 0.9141298 
-0.06701545 0.6200207 0.78171825 
-0.66904926 0.12632826 0.7324031 
-0.615925 -0.7877632 0.008100889 
-0.7517824 -0.6518673 0.099461 
-0.88775986 -0.43662083 -0.14575574 
-0.7413877 -0.19320895 -0.64266205 
0.42941356 -0.066429146 -0.9006616 
0.24837735 0.78844225 0.5627321 
0.021452926 0.80393934 0.5943243 
-0.11829914 0.8416231 0.5269495 
-0.52886444 0.8418048 -0.1080148 
0.32915384 0.67535615 0.65996355 
-0.14020666 0.9749614 -0.17260489 
0.79085344 0.26553777 0.55139863 
0.54392505 0.31806788 0.7765168 
0.012490318 0.47200298 0.8815085 
0.084228784 0.3220662 0.9429628 
-0.3300133 0.48052526 0.8125188 
-0.83909136 0.50121784 0.21143906 
-0.40689713 0.5160465 0.7537445 
-0.22246838 0.90057653 0.3734567 
0.06870381 -0.46018925 0.88515854 
-0.13670996 -0.82401866 0.5498215 
-0.7707212 0.43492678 0.4656475 
0.1485312 0.90193695 0.4055221 
0.1308995 0.9388326 0.31852588 
-0.365375 0.5621379 0.74195826 
-0.37775746 0.88622636 0.2681458 
-0.5267186 0.50835204 0.6812825 
-0.71903765 0.6946878 -0.019846635 
0.36053568 0.22171126 0.90601224 
-0.16825132 0.9561647 0.23966761 
-0.5018248 0.49558687 0.70891863 
-0.3832459 -0.30496374 0.8718486 
0.14632532 -0.29211533 0.945123 
-0.22889096 0.7748557 0.58924335 
-0.35166818 0.6710507 0.65270245 
0.63583344 0.49901235 0.58881456 
0.032010596 0.9407784 0.33750758 
-0.010073347 0.9310798 0.36467677 
0.17980017 0.97288567 0.1454836 
0.57031006 0.7827735 0.24902275 
0.6841176 0.16368678 0.7107671 
0.48312175 -0.3536058 0.8009722 
0.021597853 0.54067457 0.84095466 
-0.20869541 0.40266734 0.89123815 
-0.5667852 0.68595195 -0.45631623 
0.51169515 0.8570763 -0.05990338 
0.28317764 0.93394464 0.21807747 
0.05767581 0.96223074 0.26605573 
0.08716303 0.9949446 0.04987993 
0.12295345 0.8139515 0.5677725 
-0.07558706 0.8409866 0.53575003 
-0.38746667 0.8567857 -0.34027642 
-0.26994085 0.9166098 -0.2948869 
0.56067926 0.7468527 -0.35756108 
0.5735655 0.6164967 0.539402 
0.8225144 -0.11297651 0.5574105 
0.6903677 0.69183874 0.21154605 
0.100950256 0.98183906 -0.16062771 
-0.15559126 0.9538323 0.25689536 
0.34643003 0.93704146 -0.044039942 
-0.15465495 0.86529994 -0.4767997 
0.09710591 0.99518543 0.013286159 
0.5397911 0.638988 0.5480145 
0.4043262 0.8862995 0.2258174 
0.61414176 0.7761024 0.14316106 
0.12434267 0.69114125 0.7119429 
0.054540306 0.8464951 0.52959573 
-0.18094589 0.9522141 0.24606302 
-0.6366914 0.6300459 0.44459677 
-0.3376922 0.44630438 0.8287197 
-0.6540074 0.31605402 0.6873022 
-0.82903934 -0.034556165 0.5581217 
-0.6105678 -0.23020327 0.7577687 
-0.8504654 0.11546095 0.5132032 
-0.46166298 0.88255566 -0.08923473 
0.13260879 0.9896652 -0.05456948 
0.032726258 0.9213791 -0.38728482 
-0.39583895 0.7283418 -0.55931187 
-0.3010974 0.9371226 -0.1764697 
0.14760853 0.9792105 -0.13913523 
0.08411188 0.9545051 0.2860862 
-0.28317434 0.9108061 0.30040765 
-0.7256254 0.24074423 0.6446007 
-0.57029116 0.72933245 0.37794474 
-0.5148683 0.66247433 0.5440941 
-0.32177976 0.478338 0.8170989 
-0.30755204 0.7672035 0.5628593 
-0.14884938 0.2994978 0.94241446 
-0.39244428 0.6464314 0.6543042 
0.28197345 0.6276864 0.72560376 
0.6838 0.5663867 0.4600259 
0.32841688 0.005388564 0.94451755 
0.47347465 0.38546863 0.7919823 
0.28069833 0.90940714 -0.30689928 
0.64637536 0.73042536 0.2206306 
0.7198187 0.28000847 0.6351822 
-0.4098643 0.86918175 0.27664867 
0.13678735 0.6449023 -0.75192446 
0.5559127 0.6310367 0.5410674 
0.46801206 0.41106215 0.7822996 
0.31437084 0.9484988 -0.03900163 
0.030503629 0.973477 0.2267426 
0.2662047 0.59353673 0.75950587 
0.38195342 -0.091651246 0.9196258 
-0.20775463 -0.584653 0.78423154 
-0.6440691 -0.063235424 0.7623493 
-0.88051844 -0.41944808 0.22079526 
-0.09762422 0.73810565 -0.6675849 
0.37971973 0.6138141 0.692131 
-0.30681708 -0.04948343 0.9504813 
-0.6642172 0.22572796 0.71264476 
-0.57956904 0.26314873 0.77126694 
-0.8111187 -0.51051295 0.28541723 
-0.8967567 0.3409035 -0.28215665 
-0.105237566 0.81274176 -0.5730409 
-0.4441034 0.8367809 0.32026535 
-0.17941464 0.9519781 0.24808896 
0.58707947 0.5027138 0.63452077 
0.7767884 0.4088838 0.4789715 
0.38082558 0.42129907 0.8230911 
0.3608232 0.7155493 0.5981604 
-0.6005681 0.16414468 0.78254366 
-0.3379368 -0.1544906 0.9284026 
-0.6142693 0.2971132 0.7310247 
-0.4386744 0.7893892 0.42945284 
0.3275464 0.4361071 0.8381671 
0.3828475 0.38283738 0.84075177 
0.2903015 0.026159013 0.95657766 
-0.5372665 0.2264763 0.81243664 
-0.7460612 -0.14909132 0.6489719 
-0.9880605 -0.14753814 -0.04437339 
-0.46964082 -0.80968666 -0.35191637 
-0.76296103 -0.4234057 -0.4884856 
-0.9976243 -0.03472263 -0.059499457 
-0.030368073 0.7977629 0.6022062 
0.123149455 0.7977337 0.59030086 
-0.39168748 0.8197849 0.41777238 
0.5990494 0.3341481 0.7276572 
0.39442316 0.9172775 0.055067115 
0.11126672 0.86595166 -0.48759353 
-0.10462594 0.27005833 0.9571426 
0.68077976 0.26331753 0.68352234 
-0.43327126 0.57161754 0.69679946 
0.3516256 0.37461603 0.85791737 
-0.3165402 0.6435704 0.696864 
-0.88760585 0.40739205 0.21491297 
-0.50378436 -0.3344141 0.79647267 
-0.37317744 -0.3708848 0.85040176 
-0.605063 0.46008626 0.6497842 
-0.5916932 0.6634052 0.4580315 
-0.0455582 0.8002422 0.5979439 
-0.35035536 0.66770315 0.6568286 
-0.8108867 -0.50553644 -0.29478067 
-0.12650098 0.9133336 -0.38706496 
-0.4784441 0.80738443 -0.34528518 
-0.46849492 0.8626512 -0.19064492 
0.2630391 0.8525174 0.4516908 
-0.43868986 0.305951 0.8449528 
-0.20068039 0.485636 0.85081434 
-0.28084645 0.49794692 0.820472 
-0.026768949 0.9630416 0.2680195 
-0.26490942 -0.00027765086 0.9642733 
-0.33785313 0.26372904 0.9034945 
-0.65185696 -0.0060413294 0.75831795 
-0.50855523 -0.12502167 0.85190445 
-0.18808211 0.57933414 0.7930933 
-0.07448642 0.9948138 -0.069263786 
0.3898948 0.83985245 -0.3776638 
0.1125925 0.95115125 0.28746206 
-0.26021272 0.96409005 -0.05310059 
-0.6175396 0.63519865 0.46386173 
-0.18097651 0.9464883 -0.2672218 
0.0010790665 0.32410994 -0.9460189 
0.20828184 0.90597916 -0.3685385 
-0.365489 0.92623365 -0.09224403 
-0.41725835 0.80113685 0.42903998 
-0.22669676 0.9730509 -0.0421969 
0.011773012 0.7952073 0.60622346 
-0.3095056 0.94671 -0.08914337 
-0.29051313 0.8666124 0.4056911 
-0.20936792 0.7511097 -0.62609845 
0.5111476 0.68883735 0.5140343 
0.30512175 0.9268364 0.21880369 
0.21344644 0.8828711 0.41830513 
-0.85459876 0.4487232 0.2613589 
0.52569556 0.7290443 0.43833616 
-0.2568088 0.8010026 0.5407811 
-0.7260915 0.5273138 0.4412837 
-0.24685705 0.91388047 -0.32231063 
-0.86794615 0.49618873 -0.021594936 
-0.6559033 0.42869565 0.6212978 
-0.04548606 0.9392374 0.34024122 
-0.29161635 0.50223047 0.81407887 
-0.27039474 0.41194233 0.8701668 
-0.39261618 0.25867486 0.8825758 
-0.07113614 0.29971093 0.9513743 
-0.13095158 0.98935294 0.06350147 
0.45235243 0.8724163 0.18511374 
0.019178113 0.8701011 0.49250013 
0.15841018 0.6086193 0.7774888 
-0.018805524 0.31632343 0.94846505 
-0.09419796 0.49188516 0.86554945 
-0.46314064 0.5553567 0.6907096 
-0.52940017 0.23225053 0.8159628 
-0.31857952 0.27610335 0.90679324 
-0.445944 0.48178965 0.75432944 
-0.84012294 -0.1071201 0.53171295 
-0.43319187 0.4930074 0.7545122 
-0.7557535 0.6150397 0.22486214 
-0.9021109 -0.1452748 0.4063144 
-0.8458777 0.44460678 0.29464513 
-0.74981225 0.6613943 0.01841941 
-0.6565987 0.6033715 0.45257163 
0.120484695 0.7085853 0.6952628 
-0.1428005 0.88231635 0.4484707 
-0.2730014 0.85529506 -0.44038707 
-0.15524526 0.80860746 -0.5674972 
0.53477 0.71274793 0.4538849 
0.31564465 0.84131396 0.4388159 
0.6980592 0.15367883 0.6993542 
0.18497552 0.071616255 0.9801302 
0.033712726 -0.028899962 0.99901366 
0.22705896 -0.12685305 0.9655841 
0.094561934 -0.44046196 0.8927773 
-0.22958155 0.3983693 0.88802826 
-0.08314644 -0.16221029 0.9832469 
-0.6509001 -0.12718102 0.74843436 
-0.31415126 0.5940653 0.7405372 
0.05860052 -0.202999 0.9774239 
0.22490802 -0.21188405 0.95106345 
0.026596762 -0.45017117 0.8925461 
0.17457241 -0.6512551 0.7385062 
0.49352926 -0.19687866 0.8471527 
0.30482334 -0.20581901 0.9299039 
0.3359535 0.44053504 0.8325048 
0.113653585 0.2548598 0.9602757 
-0.19494742 -0.070692874 0.97826284 
-0.074319534 -0.041342035 0.99637717 
-0.375166 -0.4135879 0.82957554 
-0.14556968 -0.18567687 0.97176826 
-0.576839 0.38187185 0.72210157 
-0.2443485 -0.060697444 0.967786 
-0.38751897 -0.18542962 0.90301985 
-0.066020265 0.1429477 0.98752594 
0.0011809896 0.2752066 0.9613844 
-0.19059023 0.9164358 0.35188195 
-0.49317 0.6556623 0.5717433 
-0.31886712 0.4667114 0.8249268 
-0.106922075 -0.21227886 0.9713421 
-0.60838497 -0.27598923 0.74410874 
-0.17033705 -0.2350573 0.9569396 
0.31135237 -0.27224284 0.91046345 
0.114180215 0.21005298 0.9709998 
-0.26903704 -0.22248471 0.9370804 
-0.4834584 -0.46638578 0.74077827 
-0.6360802 -0.008517782 0.771576 
-0.72483593 -0.350605 0.5930338 
-0.9573156 0.21896553 -0.18868208 
-0.41676137 0.07706611 -0.9057432 
-0.3697904 0.25317442 -0.89395624 
-0.36207357 0.8236264 -0.43651175 
0.23643796 0.86989367 0.43287683 
0.060636073 0.95821166 0.27956003 
-0.5708764 0.74875313 0.33685154 
-0.52582073 0.8430593 -0.112975694 
0.3593437 0.8797371 -0.3113435 
0.23426989 0.5599455 0.79471934 
0.67434806 0.5439515 0.49937114 
0.5623547 0.73035115 0.38774264 
0.25505343 0.08315358 0.9633448 
0.14805469 0.30293056 0.941442 
0.17223373 0.6289083 0.75816226 
-0.2876733 0.9499713 -0.12164917 
-0.41580418 0.6760599 0.6083174 
-0.20632882 -0.3230452 0.9236181 
-0.43545598 -0.52802706 0.7290855 
-0.30437574 -0.8955259 0.32463664 
-0.91572356 0.37888873 0.13376737 
0.16982436 0.6365013 0.7523469 
-0.46538472 0.47585705 0.7463091 
-0.09414644 0.26916194 0.95848227 
-0.51295084 0.67391557 0.53171355 
-0.55185616 0.27619106 0.7868757 
-0.6729186 0.56444114 0.47810754 
-0.5737096 0.069441155 0.8161099 
-0.719103 0.46160552 0.5194336 
-0.3473985 0.21429339 0.9129035 
-0.6626499 0.6414729 0.386533 
-0.28215903 0.3993908 0.87228054 
0.17070168 0.6675176 0.72476286 
0.06986077 0.36543018 0.9282135 
0.24446942 0.7998128 0.54821014 
0.07940463 0.70275855 0.70698327 
0.2648905 0.8799524 0.39435646 
0.71180075 0.4354885 0.5510802 
-0.23088814 0.76302236 0.6037282 
0.8314586 0.5138473 0.21127622 
0.50886965 -0.4502195 0.73372626 
-0.025433205 0.48156592 0.8760408 
0.020361217 0.23407958 0.9720043 
0.51746213 0.82076555 0.24202651 
0.67809427 0.4570037 0.57561773 
0.37459823 0.7397456 0.55897474 
-0.013366889 0.9372221 0.34847695 
0.37931988 0.87007946 0.3147668 
-0.019584443 0.8498101 0.526725 
-0.16394906 0.9111275 0.37811044 
-0.38735926 0.8978029 0.2095297 
-0.00851191 0.9951743 0.09775287 
-0.015086191 0.9951257 0.09745379 
0.6773949 0.60809284 0.4139556 
0.93643785 -0.07315564 0.34312177 
0.4674072 0.27703717 0.83951235 
-0.17369561 0.67343956 0.7185465 
0.12574236 0.9466534 0.2967091 
0.29869276 0.81115156 0.50280803 
0.30482727 0.91513383 0.26383796 
0.5191369 0.71968883 0.46102607 
0.50888455 0.09562923 0.85550666 
0.4481205 0.84115726 0.3027254 
0.2597945 0.8038302 0.5351298 
0.22366636 0.9292907 0.29392552 
0.6976634 0.65798014 0.28342187 
0.3357051 0.34282428 0.8773675 
0.3880757 0.099600874 0.91622984 
-0.09999711 0.09563813 0.9903807 
0.0733818 -0.21205735 0.9744982 
-0.6408809 0.105366156 0.7603747 
-0.3373561 0.23962858 0.9103676 
-0.39640322 0.64752793 0.6508242 
0.42555767 0.79921 0.4244573 
0.74212337 0.6473232 0.17385535 
-0.048038963 0.8999667 0.4333038 
0.12740606 0.96282536 0.23819138 
-0.093906716 0.89198136 0.44221148 
0.7950142 0.58946866 0.14310592 
0.3122462 0.46663153 0.8275007 
-0.6309197 0.61262697 0.4760553 
-0.84461683 0.49443892 -0.20531078 
-0.64760405 0.1110382 0.7538432 
0.08107939 0.7194413 0.6898047 
-0.43969136 -0.10316953 0.8922038 
-0.41849148 0.28099394 0.86365926 
-0.5699646 0.53976685 0.6195097 
-0.4645227 0.8608852 -0.2075947 
0.22682914 0.96833664 0.104272775 
0.7159312 0.5375918 0.44546333 
0.7851575 -0.13755368 0.60382664 
0.916017 0.062143818 0.3962968 
0.81732064 0.35773802 0.45167533 
-0.079168595 0.90907484 0.40904188 
-0.2601346 0.8042356 0.53435504 
-0.366228 0.50728667 0.78008807 
-0.086943544 0.50731945 -0.85736096 
-0.28717694 0.7245427 0.62655205 
0.07778301 0.87553483 0.47685274 
0.024119213 0.7746091 0.63198024 
0.042936374 0.20579217 0.9776533 
0.010294592 -0.35193312 0.9359685 
0.33341217 0.0155800115 0.9426525 
0.083210886 0.58668214 0.80553085 
-0.6596991 -0.4242838 0.62030673 
-0.61618304 -0.39458802 0.6816295 
-0.19065295 0.9794236 0.066189595 
-0.004236791 0.7994787 0.60067964 
0.14483199 -0.45537007 0.8784429 
0.25564685 0.409966 0.87554127 
-0.5133514 0.5228326 0.6805267 
-0.8145255 -0.17986828 0.55153936 
-0.47342396 0.6140517 0.6315144 
0.18644065 0.9749224 -0.12151664 
0.4666122 0.82265115 0.32483545 
-0.048237532 0.8136375 0.57936805 
-0.18862875 0.61918265 0.7622546 
0.49352702 0.49397 0.7158385 
0.8703771 0.48096603 0.10542938 
0.5038957 0.5992195 0.6221135 
-0.14172372 0.25000247 0.9578169 
-0.4074344 0.054217853 0.91162366 
-0.36375198 0.013683686 0.9313954 
-0.3519204 0.6184452 0.70262194 
0.30609864 0.40103933 0.8634067 
-0.31753144 0.61526966 0.72153807 
-0.15266743 0.16744761 0.97398865 
0.23795162 0.237464 0.94180137 
0.22434966 0.6448675 0.7306252 
-0.10584154 0.66565067 0.7387197 
-0.4617088 -0.78935194 0.4046585 
-0.30999586 -0.23211837 0.9219673 
-0.858339 -0.36543724 0.36015254 
0.41702902 0.6759378 0.6076142 
0.7968258 0.5901316 0.12966652 
-0.34236866 0.55278903 0.75974214 
0.13633852 0.3140127 0.9395786 
-0.078351624 0.803695 0.58986044 
0.43650624 0.8713661 0.22401644 
-0.020707732 0.32554403 0.9453001 
-0.32472166 0.034605574 0.94517636 
-0.3637622 0.730777 0.5776175 
0.40711752 0.88722134 0.21701056 
0.05518885 0.8186476 0.5716382 
-0.6523571 0.7050689 0.2780434 
-0.5374058 0.5172982 0.66603124 
-0.32565352 0.1070685 0.93940735 
-0.5503579 -0.14760782 0.82177746 
-0.87365025 0.3471078 0.34095684 
-0.4914583 0.84804827 0.19819915 
-0.5417897 0.8002107 0.2571514 
-0.32774138 0.9430143 -0.05752963 
-0.21287256 0.9366709 0.27808815 
-0.3193462 0.8911696 0.32223397 
0.11119066 0.8889991 -0.4442042 
0.07473947 0.7701886 0.633422 
0.3385581 0.73381835 0.5889729 
0.26478162 0.58949876 0.76313955 
-0.5204593 0.28021663 0.8065983 
0.54103583 0.63998234 -0.54562163 
0.14736682 -0.52037597 0.8411255 
0.2235452 -0.14649096 0.9636223 
-0.24991304 0.27651206 0.9279465 
-0.22893006 0.1911512 0.9544906 
-0.3666261 0.4597574 0.8088315 
-0.6836804 0.71232206 -0.1586774 
-0.31876627 0.9099436 -0.26531264 
0.5436475 0.8100539 -0.21968208 
-0.19839941 0.9308074 -0.3069775 
-0.14147627 0.85828274 0.49329036 
-0.13661538 0.9879352 0.07294134 
0.21048614 0.9287903 0.30503175 
-0.17128816 0.94666433 0.2729233 
-0.10693235 0.95468193 0.27775487 
0.10284063 0.95568335 0.27584994 
-0.09137937 0.8333965 0.54506904 
-0.20341374 0.099876 0.97398543 
0.67608076 0.18178335 0.7140516 
-0.030557217 0.9961171 0.082564324 
0.15120874 0.97829753 -0.1416683 
0.81109464 0.5196819 0.2684331 
0.08031229 0.86575645 0.49397954 
0.04495277 0.634131 0.7719179 
-0.1493894 0.76813334 0.6226186 
-0.12109147 0.96329707 0.2395737 
-0.022677174 0.8728737 0.48741913 
-0.2516459 0.7953508 0.55144507 
0.19484003 0.73660165 0.6476538 
-0.58464473 -0.020180352 0.8110384 
-0.601506 0.61143285 0.5141405 
-0.38828075 0.56530786 0.727781 
-0.6477289 0.44254556 0.62016195 
-0.39324027 0.023396188 0.9191381 
-0.36291516 0.5144105 0.7769649 
-0.16926311 0.2667825 0.9487767 
-0.12765291 0.8840911 0.4495418 
0.71103704 0.44451153 0.54482657 
0.5766514 0.06997569 0.81398815 
0.5393979 0.16288313 0.8261471 
-0.23038071 0.5848723 0.77772045 
-0.2960433 0.5322682 0.7931261 
-0.81013745 0.11214445 0.57541376 
-0.7207247 0.36201194 0.59118813 
-0.4960451 -0.08257362 0.8643616 
-0.33044425 -0.86242837 0.383437 
-0.85113317 -0.29996058 0.43080854 
-0.44717258 -0.06943817 0.89174837 
-0.67478365 0.35314587 0.6480394 
0.3796828 0.65487564 0.65343624 
-0.4386136 0.7626791 0.47533032 
-0.4319695 0.6241775 0.651003 
-0.5141281 0.17842785 0.83894926 
0.2598738 0.62668777 0.73466194 
-0.6843276 0.69101113 0.23280784 
-0.6585394 0.74243325 -0.122958526 
-0.29276904 0.9504755 -0.104320236 
0.34847575 0.8364376 0.42300928 
0.0241829 0.41954464 0.9074125 
0.7762176 0.07006608 0.6265597 
0.040629894 0.11467725 0.9925716 
0.14148742 -0.23500068 0.9616423 
-0.22755648 0.2952065 0.9279392 
-0.23363395 0.01523794 0.9722052 
-0.5239602 0.24336126 0.81623596 
0.0069155945 0.1336921 0.9909988 
-0.37126076 -0.15194038 0.9160129 
-0.044198405 -0.13459954 0.98991394 
0.0471251 0.14510567 0.98829335 
0.19659892 0.103126325 0.9750456 
0.05501538 0.3706101 0.9271578 
0.6324102 -0.25680792 0.73082626 
0.3463339 0.29861674 0.8893149 
0.3852574 -0.15853414 0.90908945 
0.5170565 0.012961179 0.8558531 
0.39535624 -0.08094882 0.91495407 
-0.2142095 0.1365521 0.9671959 
0.114554256 -0.23494324 0.96523523 
-0.42849568 -0.20540832 0.8798858 
-0.656563 0.11772338 0.7450277 
-0.40546992 0.45759642 0.79132783 
-0.3328782 -0.23080653 0.9142869 
-0.0502945 0.05543216 0.99719495 
0.16350898 0.41841173 0.8934185 
0.035511233 0.11467394 0.9927683 
-0.7605534 0.18251379 0.623095 
-0.8882986 0.08863503 0.4506325 
-0.93894476 -0.31035027 0.14854474 
-0.5512818 -0.26104844 0.792428 
-0.3725721 0.15049137 0.9157197 
-0.41281137 -0.5763291 0.70528823 
-0.50075537 -0.68765956 0.5257076 
-0.13281801 -0.06751345 0.98883843 
-0.5907517 0.15068185 0.79265857 
-0.18330424 0.21614496 0.959 
-0.7912231 0.30807102 0.5282596 
-0.15331593 0.4956424 0.8548877 
-0.7687408 0.015134286 0.6393815 
-0.400193 0.87293476 -0.27898136 
-0.08773578 0.913271 0.3977922 
-0.6697955 0.73618084 -0.097014874 
-0.21061122 0.97430855 0.07978581 
-0.41141176 0.8920406 0.18709357 
-0.20518917 0.6316399 0.7476152 
-0.32602105 0.749227 -0.5765148 
-0.302945 0.8178468 0.48923513 
-0.10969282 0.7723038 0.62571114 
0.18509896 0.40465432 0.89554083 
0.35189703 0.50188726 0.7901124 
-0.26597413 0.6418133 0.719259 
-0.071652874 -0.0488853 0.99623096 
-0.058236755 0.9499903 0.30680126 
-0.9030795 0.42738506 -0.042302407 
-0.7868141 0.33352348 0.51931274 
-0.9689268 -0.13303667 -0.2085239 
-0.7767102 -0.57017154 0.26763 
-0.5405397 0.47845128 0.6920269 
0.13477536 0.9194396 0.3694138 
0.5159144 0.46723226 0.71800166 
0.33205563 0.5019521 0.79861337 
0.011283303 0.010925373 0.99987674 
-0.332129 0.56320775 0.75662905 
-0.37743476 0.63629705 0.672807 
-0.20199552 0.54411095 0.81433487 
-0.14899535 0.058570012 0.98710185 
-0.23816505 0.2884192 0.9274114 
0.21383496 0.96642846 0.14244552 
0.30083293 0.3910092 0.8698341 
0.114059895 0.0027554855 0.9934701 
0.10636642 0.13587406 0.9849997 
0.024223138 0.25816774 0.9657965 
-0.038292397 0.44494125 0.8947407 
-0.24486735 0.75580704 0.6072856 
0.4612781 0.4424878 0.769043 
0.8049594 0.20049725 0.55842745 
0.46171018 0.55559766 0.69147307 
0.1268067 0.3319018 0.934752 
-0.42819455 -0.41277552 0.8039067 
-0.056691233 0.1577925 0.98584366 
-0.06395437 0.32105505 0.9448987 
0.14881022 0.8368702 0.5267863 
0.11327659 0.7974547 0.5926504 
0.45884997 0.824202 0.3318856 
0.33137164 0.89164996 0.30846938 
-0.23483568 0.60639036 0.75969934 
-0.28300056 0.65402997 0.701538 
-0.32973057 0.79179716 -0.5141354 
-0.25405455 0.84257525 0.474893 
0.81481993 0.56273675 0.13926923 
0.5530938 0.4091931 0.72570544 
0.76349723 0.6387566 0.095195524 
0.8984325 0.32694754 0.29312882 
0.3926965 0.082515776 0.9159588 
0.011150252 -0.00687101 0.9999143 
0.12812577 0.45300233 0.8822543 
0.5324745 0.33300176 0.7781907 
0.098198734 0.36658728 0.9251869 
0.62077135 0.14261481 0.7709112 
0.44113544 -0.4652828 0.76740575 
0.7106922 0.44279948 0.54666746 
0.5341593 0.41544408 0.73626095 
0.6246312 0.5979803 0.50225043 
0.9003978 0.08930545 0.4258034 
0.74064696 -0.26086128 0.6191878 
0.30914962 0.37057212 0.8758441 
0.2788252 0.07961615 0.95703596 
-0.6359233 0.39941132 0.66035765 
-0.57110393 0.19227228 0.7980425 
-0.70299417 0.3434593 0.62276405 
-0.5195484 -0.43172365 0.73734945 
0.047420867 0.6335528 0.772245 
0.78867775 0.19984524 0.58142006 
0.8002276 0.52437824 0.29096982 
0.79371077 0.59705526 0.116397776 
0.13958946 0.9669591 0.21331854 
0.848724 -0.08612037 0.5217768 
0.17951326 0.6294537 0.75601786 
-0.2577919 0.6644487 0.7014637 
-0.5944792 0.6811716 0.42731693 
-0.41343004 0.47186527 0.778729 
-0.36724097 0.3180298 0.8740659 
0.03884817 0.16614169 0.98533636 
0.28408372 -0.10029978 0.95353895 
0.061100617 0.2870574 0.9559628 
-0.6524171 0.2980164 -0.6968057 
0.2880924 0.3344494 0.89729947 
0.4740252 0.09879029 0.8749519 
0.10454446 -0.29311648 0.9503437 
0.80265546 -0.22974752 0.55041844 
0.31198525 0.11024459 0.9436691 
0.060603287 0.26582608 0.9621142 
0.024850722 0.79685014 0.6036657 
-0.30990505 0.73672414 0.60099626 
-0.48828113 0.4796757 0.7290355 
-0.6423538 0.7592853 -0.1042474 
-0.49951652 0.47070283 0.72727036 
0.13446207 0.5294362 0.83762604 
-0.02772037 0.17459384 0.9842503 
-0.347828 -0.17718174 0.9206641 
-0.043418966 0.38742986 0.92087615 
-0.5472411 0.23229791 0.8040927 
-0.70050377 0.51631194 0.49266276 
-0.64764917 0.42611438 0.63164645 
-0.1829585 0.8526288 0.48943895 
-0.044414464 0.61783993 0.7850485 
-0.00471218 -0.005288261 0.9999749 
-0.19154206 0.5990645 0.77745324 
0.15860757 0.53422993 0.83032656 
-0.021599863 -0.14217705 0.9896056 
0.3656737 0.045228444 0.92964363 
-0.13673668 0.92033917 0.36644086 
0.879619 0.2889014 0.37789756 
0.8473105 -0.1755306 0.5012525 
0.18922082 0.65052485 0.7355358 
0.7587179 0.20155184 0.6194547 
0.31853816 -0.20811264 0.92478245 
0.4108894 0.048258707 0.9104071 
-0.32203045 0.3957355 0.8600523 
0.07544506 -0.13608813 0.9878199 
-0.15407269 0.11084113 0.9818228 
-0.56947887 0.2475874 0.7838331 
-0.3409965 -0.4305689 0.83566254 
-0.24086805 0.4207014 0.87463886 
-0.8144663 -0.11662596 0.5683689 
0.23392846 -0.1749634 0.9563813 
0.6580125 0.1535379 0.7371877 
-0.40660608 -0.2601983 0.8757673 
-0.7075587 0.2372633 0.6656327 
-0.17454742 0.136825 0.975096 
-0.01692227 0.53115284 0.84710705 
0.16332686 0.3392062 0.92642516 
0.32435054 0.93492085 0.1439437 
0.27830914 0.78507346 0.55335677 
-0.11439114 0.98787504 -0.10496532 
0.44663313 0.66600347 0.5974598 
0.20450091 0.6983862 0.6858835 
-0.47610655 0.7002969 0.5318899 
-0.029458238 0.20777065 0.97773397 
-0.044569727 0.29043555 0.955856 
0.24032271 0.90047073 0.36248797 
-0.4415127 0.6797515 0.5856658 
-0.0032480862 -0.24094923 0.9705323 
0.13143228 0.020638473 0.9911104 
-0.5862277 0.23318328 0.7758625 
-0.46827075 0.48001638 0.74182665 
-0.4423989 -0.52284884 0.7286374 
-0.5298667 0.41635865 0.7388416 
-0.5055871 0.8390635 0.20088375 
0.013187635 0.89823633 0.43931508 
0.11611351 0.94036716 0.3197301 
0.46960714 0.8827017 -0.017516311 
0.26272437 0.96462506 0.021784818 
0.34869933 0.7934801 0.4987966 
0.4434694 0.016921407 0.8961297 
0.46500802 0.82563794 0.3195147 
0.6125734 0.07156029 0.7871677 
0.52452385 0.1913492 0.8296146 
0.43651682 -0.19509433 0.8782889 
0.19443977 -0.31891894 0.9276227 
0.37005123 0.0031155965 0.9290062 
-0.22506987 0.7301665 0.6451361 
-0.85302675 0.44007245 -0.28050232 
-0.7335711 0.4301867 -0.5261301 
-0.3652496 0.8592154 0.35824808 
-0.69726056 0.71549517 -0.043525353 
-0.6571488 0.684559 -0.31549096 
-0.7187111 0.6193824 0.31594294 
-0.4555419 0.3777513 0.80609286 
-0.15878226 0.7182266 0.6774502 
-0.24419701 0.79793817 0.5510558 
-0.58780503 0.27698365 0.7601088 
-0.33468494 0.3152024 0.88805044 
-0.6638151 -0.19493817 0.72204477 
-0.15016568 0.59492517 0.78962934 
-0.031806093 0.45563126 0.8896002 
0.1727624 0.95785356 -0.22949927 
0.30656928 0.9225997 0.23414798 
0.22099248 0.518771 0.8258565 
-0.038625933 0.05488111 0.9977456 
0.40144402 -0.5850796 0.704645 
0.020569824 0.36351645 0.9313607 
-0.45293167 0.82596093 0.3356211 
0.3222293 0.7435331 0.58594114 
-0.07249144 0.6761735 0.73316735 
0.21879959 0.7365928 0.639967 
-0.43859464 0.084792614 0.89467597 
-0.7930442 0.416738 0.44430894 
-0.2694539 0.790291 0.5503043 
-0.2237739 0.51285946 0.82879466 
0.30242518 0.18791796 0.9344656 
0.04056058 0.06807817 0.9968552 
-0.06350095 0.69220376 0.7189031 
-0.15508482 0.90151215 0.40401068 
0.28396326 0.73388433 0.6170727 
-0.071578085 0.9865411 0.14701478 
0.425637 -0.063408844 0.9026696 
-0.2296044 0.08545271 0.9695255 
0.13365723 0.42096612 0.8971752 
-0.21266063 0.74361396 0.6338878 
-0.24840818 -0.1841611 0.95098794 
-0.32686695 -0.24717791 0.9121739 
-0.80585116 -0.33110335 0.49089155 
-0.72517455 0.439085 0.530402 
-0.15965837 -0.28886327 0.94396365 
0.12704593 -0.056424756 0.9902907 
0.37405512 0.16664286 0.91231185 
0.0332415 0.44616747 0.89433193 
-0.101735055 0.7836262 0.6128458 
-0.30404362 0.89564323 0.32462385 
-0.31616113 0.7133869 0.62539697 
-0.61552423 0.45952538 0.64028615 
-0.56110513 0.8262478 0.04975592 
-0.007900011 0.88894963 0.45793688 
0.14270802 0.4293098 0.8918114 
0.6534158 0.44522324 0.6122288 
0.45107305 0.13391925 0.8823825 
0.5940859 0.20974839 0.7765744 
0.0044050557 0.33929566 0.94066954 
-0.80845445 -0.16450046 0.5651028 
-0.87370795 -0.042074572 0.48462784 
-0.57569546 -0.59588045 0.55991197 
0.2876661 -0.28465492 0.91445065 
0.0007887543 0.25430712 0.9671232 
-0.29056355 0.21445005 0.93251497 
-0.13885775 -0.17490871 0.9747438 
-0.13515492 0.64204526 0.7546596 
-0.06854805 0.36568666 0.9282104 
-0.48200628 -0.6072222 0.6316259 
0.20640896 -0.4483159 0.8697174 
-0.0703311 -0.33027062 0.9412624 
-0.13605827 -0.005427178 0.99068606 
-0.13204286 -0.17986795 0.9747883 
0.31263214 0.016302103 0.94973445 
0.3643836 -0.34618795 0.86451066 
-0.27168003 0.1717251 0.9469427 