# OOMMF: rectangular mesh v1.0
# Segment count: 1
# Begin: Segment
# Begin: Header
# Desc: Time (s) :  7.9e-08
# Title: m
# meshtype: rectangular
# meshunit: m
# xbase: 2e-09
# ybase: 2e-09
# zbase: 5e-10
# xstepsize: 4e-09
# ystepsize: 4e-09
# zstepsize: 1e-09
# xmin: 0
# ymin: 0
# zmin: 0
# xmax: 1.024e-06
# ymax: 1.024e-06
# zmax: 1e-09
# xnodes: 256
# ynodes: 256
# znodes: 1
# ValueRangeMinMag: 1e-08
# ValueRangeMaxMag: 1
# valueunit: 
# valuemultiplier: 1
# End: Header
# Begin: Data Text
0.49085516 -0.05604115 0.869437 
0.27260134 0.1680239 0.94734186 
0.1920456 0.22222322 0.9558951 
-0.4029235 0.096309125 0.9101523 
0.5916355 0.41426274 0.6916314 
0.25920838 0.13531493 0.9562954 
0.103579916 0.35711145 -0.9283009 
0.32003322 0.8804182 -0.34991783 
0.04371965 0.7765356 0.62855476 
-0.94065106 -0.103589386 0.32317942 
-0.6450698 0.16303815 0.74652773 
-0.6662771 0.7353428 -0.12387858 
-0.06892083 0.9927104 0.09887333 
-0.37602648 0.7447152 0.5513651 
-0.10765655 0.9562953 0.27186283 
0.06306954 0.6649109 -0.7442551 
0.027892364 0.5543972 -0.8317847 
0.027932588 0.966315 0.25584197 
0.14688474 0.95066893 0.273228 
0.43981183 0.79478097 0.41819727 
-0.26386437 0.055407017 0.9629671 
-0.18703097 0.92043257 0.34325412 
-0.10067204 0.7044698 0.70255786 
-0.5954487 0.7684535 0.23435062 
-0.63438606 0.71794665 0.2865431 
-0.7833539 0.61490464 0.09082449 
-0.2417257 0.90404165 0.35253012 
0.47265437 0.7941222 -0.3820571 
0.22201066 0.96203065 -0.15877119 
0.06477061 0.9948532 -0.07792239 
-0.19072582 0.8715462 0.45169786 
-0.4128662 0.78997916 0.4532928 
-0.7421557 0.66775244 0.0575483 
0.4712343 0.8819566 -0.009540152 
0.29318404 0.19045955 0.9368929 
-0.21893986 0.4124792 0.8842661 
0.39860982 0.84123796 -0.36527935 
-0.6634231 0.285229 -0.69174725 
0.07979096 0.9612137 0.26401055 
0.4132666 0.9105778 0.0076829074 
0.6967495 0.6126592 0.37308025 
-0.51853126 0.5651507 0.641662 
-0.7774241 0.4489795 0.44048744 
-0.8555525 0.010635837 0.5176068 
-0.50090134 0.86086786 0.08946646 
-0.108879134 -0.024014542 0.9937649 
-0.013234423 0.37200236 0.9281375 
0.04542057 0.3773047 0.9249747 
-0.4472729 0.85932946 0.24799146 
-0.16065149 0.90184945 0.401072 
-0.6945806 0.37625524 0.61318016 
0.2931146 -0.10842701 0.94990915 
0.033787783 0.060994584 0.9975661 
-0.078516684 -0.15434553 0.98489225 
-0.69304764 0.029102838 0.72030425 
-0.065285034 0.74802893 0.6604473 
0.13263395 0.6553979 0.7435468 
0.38719875 0.12521878 0.9134536 
0.7977423 -0.36896333 0.4769416 
0.3337389 -0.011392555 0.94259673 
0.76500964 0.3289282 0.5536844 
0.8249957 0.30765632 0.47405672 
0.54518926 0.5228416 0.6552903 
-0.47304222 0.8340891 0.28377193 
-0.099006616 0.22940613 0.96828234 
0.46004772 0.8534854 0.2447833 
-0.24487036 0.92251426 0.29833886 
-0.24393259 0.74741954 0.61794907 
-0.45721287 0.88916045 -0.018709702 
-0.95071393 0.18242477 0.2507273 
-0.74767816 0.1286435 -0.65148157 
-0.50073093 0.2369458 -0.8325415 
-0.5897879 0.31607655 -0.74313253 
-0.5188937 -0.040974725 -0.85385615 
-0.013430789 0.82970816 -0.55803585 
0.27068713 0.92725235 -0.25871158 
-0.0042289943 -0.022288145 0.9997427 
-0.38370255 -0.16590035 0.9084325 
-0.14611074 -0.4091772 0.9006807 
-0.27624953 0.5969919 0.75318456 
0.1766055 0.9787517 0.10418999 
0.37966976 0.4066403 0.83096004 
-0.46336067 0.7817991 0.41723743 
-0.7678385 0.59089154 0.24753053 
-0.5624988 0.70353234 0.4343241 
-0.19446757 0.80719745 0.55732816 
-0.7102326 0.70347613 -0.026286142 
-0.7946257 0.42764392 -0.43091843 
-0.88164985 0.44384012 0.16031075 
0.058049344 0.950749 0.30447772 
0.49082127 0.7452651 0.45130312 
0.19386667 0.9215451 0.33640796 
-0.3553104 0.79646593 0.48928174 
-0.44173285 0.88602626 0.14081798 
-0.46652 0.79684895 0.38391495 
0.11296578 0.68364984 0.7210144 
-0.41954803 0.4772584 0.77214235 
-0.98691344 0.14230381 0.075838685 
-0.3864861 0.119925305 -0.9144651 
-0.2479226 0.73432744 -0.6319001 
0.61487776 0.7771484 0.13403617 
0.065996535 0.7850438 0.6159146 
-0.21714099 0.96135086 -0.16927622 
-0.8615762 -0.20585807 0.46401384 
-0.65248203 0.7537418 0.07836084 
-0.45639995 0.70329815 0.5450421 
-0.30606228 0.936798 0.1695155 
-0.055564005 0.8298961 0.5551443 
-0.19789045 0.8350121 0.5134144 
-0.6373794 0.7368951 -0.22524028 
0.43158412 0.81518567 0.38627395 
-0.6528059 0.7541718 -0.071199596 
-0.3126212 -0.27485722 -0.90924233 
0.15014082 0.8116674 -0.5644944 
-0.06001505 0.88031423 0.47057956 
0.13961108 0.96228904 -0.23347089 
0.2441834 0.7415478 -0.6248851 
0.8146439 0.1331826 -0.56446236 
0.7204774 0.38350615 0.57778496 
0.57670295 0.6798284 0.45304203 
0.7702583 0.2886436 0.5686714 
0.49846587 0.65808684 0.5643168 
0.750991 0.5485361 0.36758775 
0.9337358 0.1530873 -0.32357648 
0.96304303 0.26229632 0.061228067 
-0.46211287 0.7351203 0.4960342 
0.28471366 -0.046069715 0.957505 
0.026802769 0.8110488 0.5843642 
0.06681836 0.8436556 0.5327105 
-0.19922674 0.6041031 0.77160114 
-0.82737887 0.41580984 0.3775532 
-0.8282613 0.37175727 0.41926104 
-0.5798804 0.4892113 0.65146834 
-0.2000576 0.7765555 0.59744334 
0.5606262 0.53716666 0.63019854 
0.2135911 0.5591139 0.8011058 
0.40285462 0.17099887 0.8991483 
0.03297516 0.27630165 0.96050507 
0.05979944 0.9587666 0.27783242 
-0.52019966 0.44238654 0.7305385 
-0.29886705 -0.08067861 0.9508783 
0.2520755 -0.30081648 0.91976494 
0.21325043 0.016870972 0.9768519 
0.31648088 -0.02175329 0.9483494 
0.30318373 0.3303917 0.8938238 
-0.099572726 0.82055956 0.56282073 
-0.053049788 -0.28355068 0.95748883 
-0.2555686 0.21875328 0.9417175 
-0.26109126 0.06847719 0.9628822 
-0.16739562 0.848832 0.50146097 
0.35833922 0.9283031 0.09922849 
0.16866972 -0.033173118 0.98511434 
-0.18748419 0.106377766 0.97649044 
0.32882476 0.21183676 0.92032576 
0.780159 -0.062351856 0.62246615 
0.9939367 -0.011709499 0.10932899 
0.4764244 0.7058399 0.5242231 
0.5607823 0.27928925 0.7794363 
-0.18351065 0.38954902 0.9025383 
0.515464 0.49228585 0.7013926 
0.48950434 0.18379803 0.85241055 
0.71482456 -0.43227354 0.54969585 
0.54945415 0.5853169 0.59624183 
-0.104336545 0.45461282 0.884557 
0.07278988 0.5163156 0.85329944 
-0.69175375 0.6338494 0.345994 
-0.03948589 0.8352439 0.5484603 
0.42011124 0.90586734 0.05395442 
0.07752251 -0.36535218 0.9276357 
-0.5353893 -0.09812073 0.8388865 
-0.0763959 0.5013151 0.8618856 
-0.14137639 0.47529885 0.8683915 
-0.10432292 0.6693441 0.7355918 
0.32424217 -0.19973986 0.9246465 
0.43378523 -0.035827167 0.9003038 
0.5271404 0.79474396 0.30084074 
0.88896376 -0.01074809 0.45785162 
0.76594687 -0.606236 0.21401723 
0.45886856 -0.027066875 0.88809186 
0.07209098 0.7103201 0.7001774 
0.10322443 -0.14543457 0.9839683 
0.58774656 0.3799138 0.7142966 
0.45820412 0.809977 0.36604148 
0.34759063 0.7983134 -0.49180937 
0.45909652 0.5227129 -0.7183325 
0.6435073 0.76349425 0.054543994 
0.9534846 0.2420562 0.17965503 
0.47364897 -0.55288136 0.68555003 
-0.15042973 0.22081898 0.963644 
0.41389677 0.6902788 0.59346837 
0.145138 -0.07209064 0.9867816 
0.009726443 0.23510057 0.97192246 
-0.13590822 -0.37979633 0.9150322 
-0.67535335 -0.44531432 0.5878716 
-0.38886416 0.8336129 0.39226794 
-0.13885973 0.67375183 0.7257937 
-0.66370195 0.6711833 -0.33017075 
-0.59692824 0.5969847 -0.53599066 
0.54032016 0.63483006 -0.5523088 
0.14739354 0.59106225 0.7930452 
-0.06356753 -0.35271105 0.9335707 
-0.14334588 0.6173326 0.7735325 
-0.1517534 0.15953672 0.9754583 
0.67235297 0.5370408 0.50943965 
-0.15155381 0.61868244 0.7708849 
-0.12680347 0.9775595 -0.16822124 
0.8829701 0.45601687 0.11141161 
0.94483954 -0.19437182 0.26362467 
0.40177867 0.37790266 0.8341245 
0.19371845 0.49817294 0.84516084 
-0.14779101 0.32706544 0.9333736 
-0.007324827 0.19774136 0.98022693 
-0.4071345 0.67650086 0.61366785 
-0.6067821 0.4041393 0.68446106 
-0.71290445 0.5790771 0.39552107 
-0.0066136047 0.72990006 0.6835219 
0.6406715 0.7667828 -0.039802678 
0.89252114 0.4431087 0.084028475 
0.1929115 0.97845465 0.07356543 
-0.28590193 0.85892403 0.42486423 
-0.43291488 0.89412504 -0.1145645 
-0.039528705 0.7979684 0.60140175 
0.13184546 0.8301846 0.54167366 
-0.057843965 0.53260404 0.84438556 
0.18507364 0.883285 0.43076164 
0.612782 0.6538883 0.4437661 
-0.17336911 -0.14784363 0.97369677 
-0.19368231 0.5077985 0.8394212 
0.38739535 -0.012264005 0.9218322 
0.7219291 0.27643982 0.63434964 
-0.04001825 0.813563 0.5800981 
0.31509942 0.5500798 0.77338517 
0.113811366 0.63037217 0.7679049 
-0.42100248 0.86103714 0.28525773 
0.6053514 0.76110315 0.23296314 
0.12031033 0.49691373 0.8594197 
-0.22653194 0.28412035 0.9316432 
0.12836376 0.56940794 0.81197137 
0.67373693 0.3589406 0.6459414 
-0.16747963 0.4407335 0.8818757 
-0.7767018 0.091115825 0.6232433 
-0.6264701 0.75159985 0.20647793 
-0.89634645 0.30135536 0.32518923 
-0.48120221 0.7593732 0.4379461 
-0.5262039 -0.053501848 0.84867376 
-0.23440778 0.6223439 0.7468207 
-0.07040678 0.2935583 0.9533449 
-0.44130945 0.42043397 0.79276824 
-0.031885657 0.7266969 0.68621796 
-0.71900976 0.6292229 0.29513326 
-0.4682357 0.85488087 0.22345954 
-0.20643492 0.97827613 0.018989919 
-0.014273043 0.33622447 0.94167376 
-0.5875655 -0.21325655 0.7805693 
-0.3117369 0.10057911 0.9448302 
-0.15530816 0.4816957 0.86246663 
0.887319 0.4317526 -0.16203332 
0.5162193 -0.02242601 0.8561628 
0.020560797 0.13760701 0.9902735 
0.30500624 -0.12042985 0.94470525 
0.09153941 0.16757819 0.98159975 
0.29844937 0.08860549 0.9503037 
-0.041088264 -0.0060643004 0.9991371 
-0.09493995 0.6351276 0.76655024 
-0.81678045 0.34702894 0.46091282 
-0.5279369 0.16302335 0.8334904 
-0.6290788 -0.2644251 0.7309851 
-0.11780971 0.8781002 0.46374646 
-0.24247149 0.83639085 0.49158728 
-0.04350937 0.69566756 0.71704507 
0.3002168 0.86387265 0.40446746 
-0.23532255 0.9546894 -0.18218555 
-0.048359398 0.9986198 -0.020492267 
0.16574717 0.86304533 0.47715902 
0.31098163 0.8877248 0.33946294 
0.20435828 0.88731444 0.4134136 
0.3870992 0.749414 0.53715265 
0.37180656 0.81897193 0.43708688 
-0.042996768 0.4385183 0.8976933 
-0.4403103 0.5988167 0.66898847 
-0.85198295 0.5216897 0.044327177 
-0.7762874 0.40990975 0.47890684 
-0.37356752 0.73632807 0.5641527 
0.08591707 0.98334664 -0.16014896 
0.08039113 0.5093914 -0.8567716 
0.3767422 0.82982355 -0.41165313 
0.5965478 0.7924997 0.1267876 
0.22715592 0.9650053 0.13101555 
-0.33500084 0.93381506 -0.12555486 
-0.06823462 0.7083775 0.70252794 
0.37593234 -0.024617875 0.92632014 
-0.5435306 0.18949893 0.8177193 
-0.21177003 0.9109151 -0.3541006 
-0.85231555 0.519151 -0.06356655 
-0.53852224 0.61195827 0.5792245 
-0.038711235 0.64283276 0.76502776 
0.2947607 0.87042314 0.39430928 
0.13214318 0.6124119 0.7794163 
-0.47640893 0.061547514 0.8770669 
-0.21606396 -0.24457741 0.94525033 
-0.2169115 0.23881069 0.94652987 
0.06503149 0.37004828 0.9267336 
-0.068491645 0.054015532 0.99618834 
-0.017005108 0.095056884 0.99532664 
-0.6365051 0.25517857 0.727836 
0.18527865 0.7565496 0.62714 
-0.36279574 0.4109903 0.83634096 
-0.4298091 -0.08693969 0.8987245 
-0.41388953 0.329081 0.8487645 
-0.40893024 -0.08211881 0.90886337 
-0.34334323 0.5151804 0.78530544 
0.019276436 -0.024631884 0.9995107 
0.020175066 0.78129154 0.6238402 
0.06204943 -0.12668654 0.9900002 
0.44379616 0.03565937 0.8954181 
0.5243867 -0.32833534 0.78563 
0.6181616 -0.24362776 0.7473431 
0.70220244 -0.6735374 0.23077942 
-0.060445424 0.009927672 0.99812216 
-0.50316364 0.34963283 0.7903059 
-0.17495178 0.84929866 0.4980802 
-0.7601015 0.61570317 -0.207739 
-0.30401197 0.68123776 0.66595185 
-0.28890356 0.8467759 0.4466603 
-0.8200374 0.50297534 0.27304664 
-0.9794087 0.10966403 -0.16950667 
-0.71830803 0.6525994 -0.24113816 
-0.3982159 0.87363005 -0.279633 
-0.44848278 0.8672106 -0.2163537 
-0.65042716 0.62872607 -0.42620206 
-0.15682884 0.799892 -0.5792907 
-0.32751286 0.89389193 0.30609226 
-0.5175091 0.33987048 0.78528494 
-0.95204896 -0.10049899 0.28896832 
-0.9007264 0.121466614 0.4170587 
-0.2734725 0.8611407 0.42854348 
-0.1956158 0.8838581 0.4248875 
-0.5723337 0.54000336 0.6171147 
-0.63350856 0.7736544 0.011214232 
-0.6990249 0.57690895 0.42254037 
-0.695605 0.69507855 -0.18165761 
-0.49611154 0.8653215 -0.071358465 
-0.549029 0.83435225 0.049229674 
-0.033341143 0.99777687 -0.05770323 
-0.60784906 0.63212544 0.4805591 
0.4957817 0.7944016 0.35089418 
0.2193888 0.39468008 0.8922423 
0.4012002 0.49749145 0.7691169 
-0.17548469 0.56964517 0.80293804 
-0.43685612 0.8915962 0.11921816 
-0.09888294 0.97740537 0.18681811 
-0.22328545 0.83042884 0.51042295 
-0.032383513 0.4459995 0.8944472 
-0.6241371 0.7256903 0.28952807 
-0.4499966 0.8531977 0.2637361 
0.24478373 0.8143195 0.5262745 
0.42330948 0.9021196 0.08360252 
-0.42566863 0.8210683 0.38033304 
-0.28165448 0.88375825 0.37368733 
-0.5227451 0.6977484 0.4897805 
-0.57118684 0.8034868 0.16779326 
-0.20560624 0.9028565 0.37759274 
0.26560512 0.96377933 0.02415276 
0.03690005 0.2758167 0.96050173 
-0.013167757 0.893597 0.44867715 
-0.632504 0.77400625 -0.029208953 
-0.4040438 0.9014847 -0.15515736 
-0.11536799 0.9216485 -0.3704787 
-0.19408369 0.7211709 -0.6650143 
-0.5083541 0.7478204 0.42701378 
-0.21363285 0.79610264 0.56619924 
0.49451894 0.8632139 0.10155202 
0.7705678 0.5271071 0.35830623 
0.6435798 0.35335112 0.67893165 
0.48473313 0.056459047 0.872838 
0.5203429 0.47963992 0.70653296 
0.74563324 0.13519172 0.65249854 
0.6137679 0.56054735 0.5559457 
0.89689785 0.23976214 0.37160254 
0.23894884 0.37718537 0.89478195 
0.79566574 0.30299562 0.52450913 
0.030785017 0.53566194 0.8438713 
0.64169395 0.36822793 0.6727832 
0.09879917 0.9650504 0.24272728 
-0.6894461 0.24086958 0.6831149 
-0.39864045 0.19425668 0.8962981 
-0.9044441 0.32046038 0.28157765 
-0.93383634 -0.2938711 0.20393474 
-0.4450552 0.23806085 0.8632804 
0.13640545 0.6343795 0.76089174 
0.498827 -0.17335238 0.84918815 
0.66088325 -0.16921481 0.7311633 
0.7354027 0.20175432 0.64689887 
0.5255839 0.59990805 0.603218 
0.62133193 0.43176696 0.65385324 
0.04154191 0.31655112 0.94766545 
-0.041823965 -0.011301722 0.9990611 
0.07057028 -0.308812 0.9485015 
0.16502887 0.30230233 0.9388178 
0.1433807 0.124967195 0.9817461 
-0.06337104 0.5994753 0.79788065 
0.10715158 0.54664344 0.8304815 
0.52840096 0.4180278 0.7389487 
0.12942772 0.52552044 0.8408786 
-0.38512665 -0.42993423 0.8165992 
-0.052950673 0.7418536 0.6684681 
-0.072100714 0.5903414 0.80392706 
0.13754563 0.9237424 0.35746494 
0.29349315 0.29065147 0.910705 
0.40640643 0.76664746 0.4970768 
0.6867011 0.18222259 0.70373046 
0.8663999 0.10979423 0.4871309 
0.85286283 0.10285498 0.5119042 
0.60744846 -0.12909478 0.783799 
0.17292939 0.080324866 0.9816534 
0.50783044 -0.33882394 0.7920269 
0.4343935 0.17592694 0.88337535 
0.4237305 -0.045487903 0.90464544 
0.073254734 0.35111648 0.9334619 
-0.6114566 0.48027134 0.6288564 
-0.12063041 0.28061175 0.95221084 
-0.7335882 0.6764165 0.06564401 
-0.26258397 0.35335392 0.8978813 
0.25150064 0.86856085 0.4270242 
0.49993992 0.4747649 0.72433305 
0.1312383 -0.3313252 0.9343448 
-0.2834101 0.18314818 0.9413477 
-0.41957217 0.43167862 0.7985066 
0.39477938 0.17126124 0.9026732 
0.4685417 0.060636606 0.8813581 
0.760999 -0.3657976 0.5357916 
0.5370834 0.2209689 0.81407267 
0.8055583 0.3153286 0.501641 
0.5987857 -0.7600258 0.25261927 
0.6058751 0.31644806 0.72991514 
0.8417031 -0.06923303 0.5354838 
-0.2707545 -0.384928 0.88233924 
0.40407735 -0.6528353 0.6407243 
0.11557891 0.85680753 0.50251627 
-0.27456424 0.77726775 0.5661001 
0.110335924 0.9473335 0.30064145 
0.35784757 0.6993251 0.6187808 
0.41392824 0.42912072 0.8028193 
0.7956614 0.14894487 0.58714426 
0.37160212 0.59555167 0.71220094 
0.042157326 0.4905862 0.87037235 
-0.045443214 0.4274377 0.90290195 
-0.5707112 0.36281043 0.7366528 
-0.21595034 0.26005372 0.94113636 
-0.10046443 -0.43873626 0.8929823 
-0.57795936 0.3620287 0.73136735 
-0.83605266 0.09293184 0.5407215 
-0.76003593 0.35539886 0.54409283 
-0.13987616 0.9233193 -0.35765392 
0.57624847 0.8161564 -0.04273662 
-0.5920873 0.6691672 0.4490522 
-0.552661 0.31059152 0.7733684 
-0.3876713 0.78172946 0.4884772 
-0.24626178 0.3683744 0.8964683 
0.34270737 -0.19700174 0.9185543 
0.5591877 0.6423213 0.5241494 
0.7549172 0.33888295 0.5614789 
0.42635274 0.047520343 0.9033079 
0.61954206 -0.21514677 0.7549037 
0.18716636 0.19368862 0.96304387 
0.14090306 -0.1580641 0.977324 
0.07666043 -0.4071702 0.9101295 
-0.046314556 0.52015173 0.8528173 
-0.19507657 0.11341426 0.97420865 
0.018909745 0.41950822 0.90755457 
-0.65984297 0.743271 0.11025187 
-0.032935783 0.98365325 0.17703588 
0.57155114 0.765594 0.29528838 
-0.046531346 0.31750354 0.94711477 
-0.43590197 0.35373187 0.8275647 
-0.42993718 0.16560596 0.8875409 
-0.69207406 -0.06860303 0.71855915 
0.08755232 -0.25546384 0.9628463 
0.07357638 -0.025850011 0.9969545 
-0.5377603 -0.46257484 0.70486766 
-0.5403376 0.27115202 0.7965626 
-0.2819202 -0.2285795 0.93181145 
-0.4327001 -0.04168941 0.90057355 
-0.54769063 0.25633982 0.79644525 
-0.38641325 0.5563416 0.7356418 
0.11406195 0.34440422 0.9318668 
0.19959366 0.90473807 0.3763128 
-0.1560465 0.7461292 0.6472563 
-0.22532988 0.56070286 0.7967677 
-0.58328164 0.62554723 0.5181441 
-0.34819666 0.59831905 0.72164637 
0.3118957 0.048604764 0.9488724 
0.3476401 -0.10750201 0.931445 
0.09023364 0.44552055 0.8907129 
0.37050933 0.18915385 0.9093645 
-0.009612161 0.50989705 0.8601818 
0.005745229 0.6873878 0.7262679 
-0.16286986 0.7676095 0.61987823 
-0.5239154 0.825107 0.21145014 
-0.05877669 0.6564067 0.7521141 
0.12125623 0.37617192 0.91858137 
-0.17209356 0.6408568 0.748122 
0.45632672 0.40958658 0.7899398 
0.1262712 0.44473693 0.88671565 
0.6719587 0.25036544 0.6969855 
0.022951346 0.843731 0.53627557 
0.026098916 0.9803141 0.19571185 
0.8079678 0.07799513 0.58404183 
0.137226 0.25004196 0.95846134 
-0.32710093 0.23982452 0.91405106 
0.47904757 0.49370146 0.72579086 
0.8595471 0.49272487 0.13565032 
0.97072005 0.18075244 0.1582124 
0.9368312 0.07414609 0.34183308 
0.79791784 0.2012831 0.5681657 
0.6350718 0.519518 0.57165104 
-0.29614684 0.341598 0.89196855 
-0.27766076 0.27009183 0.9219301 
-0.38768753 0.12323077 0.91351664 
0.1283474 0.28070074 0.9511751 
0.10583584 0.24552481 0.96359557 
-0.3699391 0.5303194 0.76282793 
-0.59794605 0.5988726 0.5327402 
-0.48055235 0.29554242 0.82566583 
-0.20169683 0.6375872 0.7435059 
0.35610557 0.869892 0.341287 
0.031086091 0.50610787 0.86190987 
-0.0065825153 0.73571765 0.6772564 
-0.2454333 0.88714236 -0.39082077 
-0.10342569 0.98874336 0.10811935 
0.5329066 0.84558964 -0.031445604 
0.77506274 0.11690488 0.6209759 
0.6515649 0.19670016 0.7326475 
0.25848743 0.34495392 0.90232545 
-0.004000313 0.9566796 0.29111552 
-0.15544622 0.7659078 0.6238764 
-0.3662396 0.8885487 0.27631482 
-0.50017846 0.60024244 0.6241238 
-0.16685705 0.58939594 0.7904247 
-0.26156673 0.74289817 0.6161861 
-0.1440271 0.9743846 0.17271638 
0.16155876 0.92979056 0.33073902 
0.3463993 0.72446436 0.5959522 
-0.13875957 0.7183971 0.6816535 
-0.32991323 0.8818355 0.3369324 
0.3473162 0.8127761 0.467725 
0.12031083 0.7361541 0.666035 
-0.33030406 0.30165988 0.8943716 
0.018737508 0.8246933 0.56526977 
-0.33675686 0.6592393 0.6723083 
0.14680034 0.85439235 0.4984611 
-0.10282804 0.9860993 0.13051638 
0.16486664 0.5253069 0.8347885 
-0.10322161 0.057550415 0.9929921 
0.24605168 -0.32978714 0.91142696 
-0.12749924 0.099857084 0.9867992 
0.15495938 0.20852256 0.96566343 
0.36593512 -0.09993822 0.9252588 
0.16066445 0.06144909 0.9850944 
-0.11273415 0.6397929 0.7602342 
-0.7604466 0.3412161 0.55253303 
-0.44966832 0.05153269 0.8917078 
-0.095473364 0.009568695 0.995386 
-0.3943647 -0.2505777 0.88413084 
-0.61738634 -0.13366413 0.77522135 
-0.37370062 -0.48245826 0.79220074 
-0.46963868 -0.44726115 0.76118135 
-0.1950202 -0.4035444 0.8939346 
0.061307494 0.547308 0.8346828 
-0.0019419189 -0.114843816 0.99338174 
-0.3120347 -0.016070735 0.94993484 
0.3883226 0.014682762 0.9214066 
0.71293014 0.516502 0.4742956 
0.3387092 0.33862162 0.87784487 
-0.026587179 -0.3390462 0.9403939 
-0.46391752 0.19151859 0.8649285 
-0.32291022 0.9409871 -0.10135285 
-0.6285279 0.77467287 -0.069532186 
-0.5660854 0.66073525 0.49292636 
-0.54101425 0.75830686 0.3636956 
-0.5040113 0.7652513 0.40045387 
-0.637676 0.56551737 0.52302915 
-0.68096095 0.5854885 0.43988124 
-0.6913639 0.72104245 -0.045977768 
0.014087325 0.92920065 -0.36930704 
-0.26614767 0.8669839 -0.42131275 
-0.32821563 0.8630681 0.38391152 
0.04450882 0.9779989 0.20380698 
-0.5230241 0.78720707 0.3267274 
-0.6159411 0.6766206 -0.40348637 
-0.9161761 0.2954393 -0.27080816 
-0.37868005 0.89889395 -0.22043397 
0.18084364 0.983126 0.027548516 
0.20374963 0.8765356 0.43608657 
0.21411434 0.949577 0.22903837 
-0.3579496 0.5148524 0.77897316 
0.04232517 0.78912145 0.61277723 
-0.24641417 0.8529209 0.46022397 
0.22114553 0.95916337 -0.1763526 
0.7488344 0.6228441 -0.22652258 
-0.039433375 0.6294489 0.77604073 
0.336555 0.729544 0.595396 
0.7236654 -0.10562745 0.68201995 
0.30184627 0.28777882 0.9088852 
0.011630681 0.5940874 0.8043165 
-0.18893299 0.60034883 0.77710074 
0.05641758 0.8692676 0.491112 
-0.2255358 0.6176327 0.7534344 
-0.061812583 0.48536944 0.87212133 
-0.3363012 0.7938384 0.5066775 
-0.06942598 0.8076524 0.58555746 
0.32508847 0.85919905 0.39508814 
-0.31414104 0.7447498 0.5887811 
0.06481995 0.2730085 0.9598254 
-0.38292465 0.7154978 0.5843215 
0.32070303 0.7424456 0.58815324 
-0.40514052 0.37650833 0.8331282 
0.04746352 0.9062185 0.42013714 
-0.021269554 0.98185515 0.18843578 
0.3232166 0.37401488 0.86927783 
0.1991812 -0.28329962 0.9381196 
-0.25203276 0.43395087 0.86496603 
-0.4391677 0.26493406 0.85845315 
-0.3334726 0.7569079 0.5620377 
-0.15251102 0.8978685 -0.41300443 
-0.058845766 0.73467344 0.675864 
0.33836406 0.864442 0.37181965 
0.4395539 0.7713742 0.46018928 
0.6017912 0.284071 0.7464255 
0.8714536 0.21228689 0.44215712 
-0.03793481 0.20573051 0.97787315 
0.18599312 0.45758 0.8694983 
0.47423726 0.024984263 0.8800426 
0.67799443 0.7094816 0.1922485 
0.72611564 0.5436107 0.421003 
0.13256253 0.50807005 0.85105354 
0.1941023 0.4044333 0.89373267 
-0.29553834 0.103849076 0.94966966 
0.18043543 0.5580237 0.80997074 
-0.33629462 0.59159863 0.73274624 
-0.6661312 0.53377676 0.52091426 
-0.33016247 0.4911028 0.8061085 
-0.8850412 0.13167955 0.44650054 
-0.6564212 -0.33226952 0.6772801 
-0.34577274 0.563833 0.75002235 
-0.060648523 0.8021358 0.5940539 
0.642601 0.3242185 0.6942236 
0.7229723 -0.0457877 0.6893581 
0.69621265 0.28582916 0.6584753 
0.3172187 -0.22015317 0.9224451 
0.31224698 0.4106199 0.85667574 
-0.06994946 0.041917183 0.9966695 
-0.1489385 -0.040535238 0.9880153 
0.033579476 -0.6502888 0.7589447 
-0.15123007 0.30393398 0.9406135 
0.42725846 0.45328474 0.7822936 
0.41684514 0.6292052 0.6560037 
0.7193697 0.40971112 0.5609315 
0.6197196 0.6958865 0.36289078 
0.43657035 0.44456458 0.7821565 
0.5712131 0.20388079 0.7950775 
0.44114408 -0.19297163 0.87644386 
0.4579014 -0.16852485 0.8728837 
0.2953338 0.5304925 0.7945789 
0.5080155 -0.12821141 0.8517524 
0.16523294 0.48860177 0.8567185 
0.78355813 -0.31059307 0.538116 
0.20943171 -0.5385249 0.81616753 
0.3135342 0.81600714 0.48562184 
0.14949383 0.9396122 0.30786443 
0.032606985 0.11932847 0.9923193 
-0.16871868 0.43045354 0.8867039 
0.11443631 0.37245947 0.920966 
-0.055870064 0.41101947 0.90991294 
0.033923417 -0.08149357 0.9960964 
-0.7025804 0.4116 0.58048797 
-0.37403232 0.6217383 0.6881434 
-0.31888396 0.76634127 0.5577042 
-0.24411954 0.22743942 0.94269663 
0.10971848 0.8306136 0.54593295 
0.841719 0.19799495 0.5023021 
0.7545926 -0.12221664 0.6447117 
0.57218534 -0.24192023 0.7836316 
0.3617056 0.30647045 0.88048 
0.055559292 0.06291206 0.99647146 
0.48717085 -0.02512216 0.87294537 
0.63735837 0.35096538 0.6860013 
0.7702666 0.0451528 0.6361216 
0.70675606 0.6638546 0.244526 
0.3133545 0.20572369 0.92708516 
0.61225927 -0.22106919 0.7591226 
0.33995116 0.3222154 0.8835217 
0.21014284 0.12739994 0.9693345 
0.1836599 0.6902536 0.69987077 
0.23361546 0.8876898 0.39677516 
0.50337726 0.86360574 -0.028224997 
0.56518805 0.68827426 0.4547979 
0.46696094 0.5006104 0.7289285 
0.7566352 0.3713503 0.538147 
0.4575224 0.6869887 0.5645527 
0.6201442 0.3802743 0.6861579 
0.5057905 0.6508898 0.56614363 
-0.010940158 0.9867132 0.16210316 
-0.14451595 0.21267498 0.966377 
-0.50325376 -0.09382858 0.85902965 
0.16290528 -0.37865463 0.91108876 
-0.058892604 0.3035917 0.9509804 
0.46327952 -0.34065017 0.81812567 
-0.31885302 0.46537772 0.8256854 
0.23129621 0.7507913 0.61871994 
0.35211885 0.7833308 0.51225495 
0.050620742 0.8729895 0.48510504 
-0.11605419 0.91749865 0.38043103 
0.35860786 0.37468094 0.85499394 
0.44734225 0.26333064 0.8547175 
-0.05089222 0.17131808 0.9839004 
-0.1035921 0.67981875 0.726027 
0.10032443 0.4946946 0.8632568 
-0.1073407 -0.14132363 0.98412687 
0.3206797 0.7217849 0.6133443 
0.39582998 0.4970799 0.77215946 
0.8525524 0.13814755 0.5040532 
0.50284934 -0.23326355 0.83230454 
0.5024622 0.31523353 0.80508363 
0.006448569 0.12591018 0.9920207 
-0.45067486 -0.12078589 0.884479 
0.045825567 0.3049892 0.9512527 
-0.87450564 0.38067636 0.30054194 
0.21480557 0.7653223 0.6067457 
-0.27179372 0.661378 0.6990761 
-0.45951274 0.43429792 0.7747474 
0.30219173 0.63982874 0.7066113 
0.16403393 0.71882284 0.675564 
0.45541313 -0.15534425 0.8766226 
0.417603 0.60776824 0.6754447 
0.27402756 0.3244316 0.90534693 
0.0686561 0.033971116 0.99706185 
-0.1636318 0.09089899 0.98232484 
-0.33813447 -0.098729506 0.93590474 
-0.31331336 0.07143647 0.9469592 
-0.30162904 0.014409692 0.95331657 
0.10642358 0.09729987 0.9895488 
0.3789143 0.6310379 0.6769159 
0.45831117 0.2561054 0.85109407 
-0.32541338 0.5856344 0.74238706 
-0.39926904 0.48379016 0.77880126 
0.56491166 0.1637161 0.80874705 
0.5402346 0.31050745 0.7821328 
0.89207375 0.028066263 0.45101735 
0.2760997 0.34119797 0.8985282 
0.62053055 0.021133957 0.78389746 
-0.10909972 0.14256866 0.98375374 
0.087153114 0.56458825 0.8207586 
-0.5680839 0.3069518 0.76358455 
-0.83552444 0.30794504 0.45504826 
-0.24009554 0.9700763 0.03614062 
-0.13887939 0.4387957 0.88778985 
-0.31976935 0.12702209 0.93894255 
0.44559908 0.53330547 0.71904576 
0.5971566 0.42502156 0.68026525 
0.5127815 0.47574046 0.71465117 
0.09508224 0.8557676 0.508548 
0.15309425 0.91674626 0.36896935 
0.8096866 0.5179895 0.27585217 
0.015132366 0.6367922 0.770887 
0.11615123 -0.21264157 0.9702023 
-0.039983436 -0.4684494 0.8825851 
-0.10461973 -0.73708314 0.66765505 
0.992328 0.058406726 0.10896764 
0.7974235 -0.15369725 0.5835178 
0.2962383 0.44411108 0.84558165 
0.19364169 0.118290655 0.973915 
0.38626322 0.2022122 0.8999505 
-0.17617603 0.48047307 0.85913193 
0.18656714 0.50121695 0.84497005 
0.01977101 -0.21626897 0.9761337 
0.5817587 0.122256905 0.8041207 
0.3653701 0.8061058 0.4655086 
0.4583218 0.43531716 0.77488077 
-0.7724832 -0.0443475 0.6334849 
-0.18477738 0.5668219 0.8028514 
-0.009444116 0.46580893 0.884835 
-0.24429777 0.4076113 0.8798703 
0.102265306 0.31691238 0.94292545 
0.17017198 0.6363485 0.7523976 
0.37816292 0.46147352 0.802518 
0.41043288 0.5172781 0.75097835 
-0.51817566 0.12730643 0.8457465 
0.26072705 0.21282859 0.94166106 
0.28306684 0.28313354 0.91635615 
-0.087218724 0.9956916 0.03148362 
-0.050422568 0.7903096 0.6106295 
-0.03701507 0.9161806 0.39905286 
-0.5794681 0.72380674 0.37459382 
0.05394158 0.8694741 0.4910247 
0.24236041 0.9603927 -0.1375038 
0.04557559 0.69995666 0.7127297 
-0.0930257 0.99517995 0.031035136 
0.16486017 0.68265027 0.7119057 
-0.13464336 0.6176649 0.7748299 
-0.2394836 0.18094766 0.9538897 
0.7286442 0.5453373 0.41434872 
0.13544227 0.09307955 0.98640347 
0.13102655 0.13970663 0.98148566 
-0.3313835 0.6328009 0.69982004 
-0.73793143 -0.04721953 0.67322177 
-0.6647534 0.7466073 0.026087489 
-0.4395217 0.8646929 0.24316022 
0.13208173 0.3965259 0.90847224 
0.5282582 0.43401828 0.729775 
0.95281017 -0.14699435 0.26560405 
0.4712627 0.05276183 0.8804135 
0.06232612 0.0067309113 0.99803317 
-0.09207635 -0.23980387 0.96644515 
-0.48182535 0.13253745 0.866186 
-0.0023793902 0.7452038 0.6668326 
-0.5498801 0.638461 0.5385161 
-0.40693027 0.32783487 0.8526032 
-0.28751388 -0.21532884 0.9332574 
-0.27587172 0.72431654 0.63187057 
-0.321803 -0.27276528 0.9066653 
0.10750276 0.2053805 0.97275996 
-0.17271894 -0.51920915 0.8370126 
-0.14374131 0.5395891 0.8295674 
0.3350043 0.7330095 0.5920044 
-0.44906077 0.10378642 0.8874531 
-0.08418279 -0.52432704 0.84734553 
0.014768771 0.6578064 0.7530423 
0.2736215 0.29089108 0.9167954 
-0.14786564 0.3660124 0.91878766 
-0.0068131867 0.06568109 0.9978174 
0.0968665 0.41335547 0.9054027 
0.23389311 0.375911 0.8966521 
-0.7123893 0.70135975 -0.024414625 
-0.30413368 0.68460006 0.6624391 
-0.123754956 0.59839463 0.79158616 
-0.67605597 0.6882779 0.26310077 
-0.6871167 0.31457987 0.6549124 
-0.8162219 0.5777385 0.0001519705 
-0.130339 0.89049125 0.43593258 
-0.28997275 0.58260626 0.7592666 
-0.21398997 0.80902123 0.5474422 
-0.32836926 0.84509045 0.42189562 
-0.04344931 0.91235554 0.40708658 
-0.046212826 0.64081246 0.7663053 
-0.23974894 0.8315736 0.50100476 
-0.050525025 0.99784124 0.041954536 
-0.563957 0.6600808 0.4962318 
-0.7105141 0.68924713 0.14180313 
-0.60880315 0.6723678 0.42104673 
0.09639959 0.81482095 0.57164145 
-0.43951944 0.5076538 0.74101985 
-0.33913907 0.41932067 0.8421134 
-0.5907772 0.7790829 0.20979105 
-0.20612209 0.92952436 0.3057746 
0.036305703 0.9763405 0.21316938 
0.0020329298 0.81507367 0.5793538 
0.34927356 0.89720833 0.2702319 
0.23502941 0.3577109 0.9037722 
-0.07476409 0.4998025 0.8629066 
0.41442615 0.66937625 0.61659265 
-0.3858176 0.79534745 0.46751177 
-0.4391999 0.51669663 0.73493415 
0.09049331 0.7230055 0.68488985 
0.15745407 0.6573454 0.7369568 
-0.06262257 0.45695126 0.8872847 
0.046073828 0.46364564 0.884822 
0.26270744 0.60103196 0.7548149 
0.39569566 -0.1825695 0.90005183 
0.18233345 -0.6412459 0.7453579 
-0.47316566 -0.5825024 0.66091245 
-0.40133017 0.49018142 0.77372897 
-0.6194996 -0.071236245 0.7817581 
0.10742045 0.7393044 0.664748 
-0.6713631 0.35293308 0.6516977 
0.27852762 0.51392645 0.8113582 