# OOMMF: rectangular mesh v1.0
# Segment count: 1
# Begin: Segment
# Begin: Header
# Desc: Time (s) :  8.2e-08
# Title: m
# meshtype: rectangular
# meshunit: m
# xbase: 2e-09
# ybase: 2e-09
# zbase: 5e-10
# xstepsize: 4e-09
# ystepsize: 4e-09
# zstepsize: 1e-09
# xmin: 0
# ymin: 0
# zmin: 0
# xmax: 1.024e-06
# ymax: 1.024e-06
# zmax: 1e-09
# xnodes: 256
# ynodes: 256
# znodes: 1
# ValueRangeMinMag: 1e-08
# ValueRangeMaxMag: 1
# valueunit: 
# valuemultiplier: 1
# End: Header
# Begin: Data Text
0.7521579 0.5455429 0.36965057 
0.8571618 0.19770978 0.4755885 
0.07985275 0.6199631 0.78055704 
-0.5722796 0.025676243 0.81965655 
-0.7954418 -0.10118261 0.5975235 
-0.3558353 0.8035651 0.47714192 
0.021155903 0.54285455 0.83956033 
-0.046487883 0.99681276 -0.06483227 
-0.40257788 0.8436743 -0.3551688 
-0.21514694 0.9221793 0.3213989 
-0.65001255 0.7578995 0.055425067 
-0.46278393 0.82726246 0.31854036 
-0.12826733 0.9241756 0.35978723 
-0.16114596 0.9860202 0.0423822 
0.10148863 0.9734814 0.20502187 
0.20201738 0.84995216 0.48659065 
-0.3186631 0.86763424 0.38166055 
-0.111999676 0.4198038 0.900678 
0.16848055 0.7518246 0.63747483 
-0.18226174 -0.1727745 0.96795136 
0.4527702 0.8415366 -0.29464445 
0.17465086 0.8376587 0.51751816 
0.49968532 0.82943994 0.2496881 
-0.2331852 0.7844021 0.5747506 
-0.3249703 0.80568856 0.49523753 
-0.94438076 -0.028052583 0.32765535 
-0.69519967 0.6208983 0.36219174 
-0.6194143 0.78385055 0.04363995 
-0.7161631 0.64007515 -0.2782342 
-0.42349288 0.59949493 -0.679161 
-0.06097113 0.99729854 -0.040966507 
0.9217371 0.3150505 0.22615038 
0.6517206 0.07627497 0.7546141 
0.3281257 0.8627132 0.384785 
0.3378995 0.35978886 0.86969876 
-0.041406687 -0.14675304 0.9883062 
-0.565129 0.5398805 0.6238255 
0.06635057 0.68451357 0.72597444 
-0.36737508 0.37800074 0.8497947 
0.47342312 0.86754924 0.15241027 
0.40006682 0.13249521 0.90685815 
0.8847472 0.46104744 0.068246655 
-0.001018723 0.34455708 0.93876487 
0.0986644 0.89515835 0.4346918 
0.40903482 0.78649247 0.4627313 
-0.3838054 0.92320055 -0.019853344 
0.36784062 0.702663 -0.6090633 
-0.22608586 0.763066 0.60548794 
0.029922817 0.88802415 0.45882204 
-0.34265628 0.8599666 0.37821186 
-0.6584778 0.752186 -0.024966821 
-0.015215666 0.21005172 0.97757196 
0.10701787 0.844699 0.52443385 
0.2644292 0.82055783 0.50671697 
-0.19009328 0.0735402 0.9790079 
0.5660288 0.7089851 0.42065626 
0.02375811 0.24644534 0.9688655 
-0.06952244 0.3946937 0.9161788 
-0.7937204 -0.10758192 0.59869367 
-0.8463529 0.5209946 0.11068659 
-0.029819135 0.94551176 0.3242195 
-0.43107113 0.8773824 -0.21066046 
0.45917842 0.87959063 0.124400586 
-0.35293338 0.8437101 0.40446413 
-0.5541423 0.824048 -0.11777732 
0.076569505 0.9903695 -0.11534933 
0.14004223 0.97591263 0.16728018 
0.11005182 0.94483435 0.30850744 
-0.1284377 0.99146366 0.022442495 
0.12483193 0.84164953 0.52539796 
0.9002866 -0.05648587 0.43161717 
0.7230953 -0.014392875 0.69059837 
0.56876963 0.13361645 0.8115712 
0.4487729 0.66695833 0.5947853 
0.74099743 0.42658392 0.51860297 
0.46447766 0.88524175 -0.024650682 
0.46551985 0.6683662 0.58015335 
-0.08924899 0.53606796 0.8394438 
-0.3494456 0.9368932 0.010907633 
0.8748969 0.33622006 0.34858534 
-0.31858617 0.9183774 -0.2347036 
0.15486014 0.9851051 -0.07474111 
0.20315164 0.94412637 0.25952792 
-0.46626183 0.48610365 0.7391232 
0.14112073 0.5811663 0.8014553 
0.59789956 0.39177048 0.6993083 
-0.06245008 0.95146924 0.30134118 
0.29370096 0.7310998 0.61581886 
0.52896196 0.3689486 0.76424885 
0.14083655 0.6569158 0.74069345 
-0.37099755 0.5692715 0.73368305 
-0.7109325 0.61680067 -0.33783436 
-0.031061769 0.90721756 0.41951358 
-0.38249195 0.7284968 0.56832415 
-0.80167925 0.081130035 -0.5922232 
-0.34003592 0.6259943 0.70178825 
-0.08939041 -0.23211959 0.968571 
-0.6034219 0.31350282 0.73321074 
-0.48700893 0.32551134 0.81047195 
-0.15237431 0.9768825 0.14994265 
-0.44659483 0.85405445 -0.2667286 
0.014478558 0.8708074 0.4914111 
0.18429548 0.86305267 -0.4702928 
-0.29223597 0.75016606 0.59316874 
-0.25100684 0.3937941 0.88426346 
-0.75564903 0.18333079 0.62879604 
-0.77907187 0.22746979 -0.5842129 
0.45595473 0.84848505 0.26866037 
0.33971578 0.93848956 -0.06189295 
0.6262974 0.12738155 0.769107 
0.48167303 0.81119114 0.33160242 
0.9346681 0.31794697 -0.15907636 
0.977751 0.15322536 -0.14326517 
0.7800563 0.60302967 0.16693562 
-0.19472608 0.7619399 0.6176806 
0.19316493 -0.24115942 0.95106757 
0.65116936 0.47203833 0.59427124 
0.59478384 0.40574235 0.693978 
0.56366235 0.28990197 0.7734608 
0.23176861 0.6592803 0.7152852 
-0.43273574 0.85691375 0.2800689 
-0.5010585 0.7855363 0.36314332 
0.3143003 0.83900034 0.44417775 
0.091074675 0.5556144 0.826437 
-0.16145144 0.7008155 0.6948317 
-0.27600706 0.72459936 0.6314871 
-0.8941554 0.44082797 -0.07846699 
-0.756639 0.65050066 0.0659269 
-0.32628605 0.8530741 0.4071881 
-0.64490896 0.71958506 0.2574681 
-0.34257686 0.8815049 0.32494652 
-0.36948833 0.5618874 0.7401087 
0.015477827 0.5441015 0.8388768 
0.35276446 0.3342004 0.8739951 
0.30903438 -0.17028652 0.9356817 
0.01754013 0.56274754 0.8264427 
-0.023835037 0.83080405 0.55605453 
-0.19051215 0.29420856 0.93656105 
-0.4091162 -0.579286 0.705019 
-0.04212769 -0.29987067 0.95304924 
0.6031193 -0.6389461 0.47748825 
0.625976 -0.55623347 0.54658806 
0.21887738 -0.30503172 0.92684865 
0.3278438 -0.039627872 0.94390047 
0.06519648 -0.07920695 0.9947239 
-0.01358425 0.63862056 0.7694019 
-0.64059013 0.72520405 0.2524349 
-0.09448862 0.994804 0.037905756 
0.84050256 0.44244456 0.3127272 
0.3384977 0.49714842 0.7989134 
0.42981863 -0.06264684 0.9007393 
-0.59790933 0.20327419 0.7753606 
-0.5851336 0.13924327 0.798893 
-0.5171838 0.19591552 0.8331495 
-0.53332454 0.84433186 0.05165944 
-0.92666477 0.32143798 -0.19485904 
-0.47370952 0.44782603 0.7583214 
0.03574637 0.29810327 0.95386404 
0.32173553 0.4841254 0.81370074 
0.5826479 0.3359172 0.74005485 
-0.27356175 0.36669183 0.88921374 
-0.5510264 0.72738385 0.4090021 
-0.7787381 0.6048829 0.16638409 
-0.75826836 0.6101273 0.22972576 
-0.6080574 0.5452393 0.5770446 
-0.014177714 0.82235837 0.56879324 
0.004405493 0.91463846 0.4042487 
-0.20798516 0.6984849 0.68473434 
-0.41113055 0.6583889 0.6304727 
-0.65645903 -0.00063383335 0.75436145 
-0.072606154 -0.0649668 0.99524254 
0.1476215 0.9370587 0.31643185 
0.37016913 0.72924525 0.57547915 
-0.03432702 0.70613384 0.7072459 
-0.44201598 0.2283503 0.86745495 
-0.52326906 0.7255988 0.4468735 
-0.4742883 0.0936077 0.87537885 
-0.34455732 0.83215773 0.43450415 
-0.3496457 0.5433058 0.76326066 
0.5057006 0.64516044 0.5727434 
-0.0051165507 0.99708104 0.07617949 
0.6084655 0.63617843 0.47439095 
0.34987244 0.27273956 0.8962156 
0.3218118 0.06880266 0.94430053 
-0.41498673 0.9097444 -0.012302031 
0.4143938 0.90203923 -0.12084299 
0.7485441 0.5884508 -0.30562624 
0.6158777 0.686926 0.38578153 
0.9081622 0.3836671 0.16745442 
-0.33720437 0.1685104 0.9262276 
0.30413646 0.64461637 0.7014063 
0.17615648 0.15419376 0.9722105 
-0.30959958 0.74429095 0.5917594 
0.8388835 0.13284782 0.5278504 
0.85071224 0.16989525 0.49741778 
0.6102116 0.5288205 0.58990735 
0.7111521 0.69239897 0.12184603 
0.4578903 0.8292373 0.3204717 
0.6768398 0.4294693 0.5978662 
0.2920705 0.39871275 0.86932325 
0.16569747 0.46303272 0.8707153 
0.8410517 0.4684884 0.2704638 
0.66973984 0.7220795 0.17334862 
0.1532394 0.78899753 0.59497947 
0.45023096 0.8320876 0.3239173 
0.51172763 0.70447236 0.4917862 
0.4371963 0.33151746 0.8360356 
-0.07697402 0.28652242 0.9549764 
-0.09945098 0.73539793 0.670298 
-0.99388766 0.080176085 -0.075889006 
-0.5389462 0.8209929 -0.18843496 
0.16727869 0.5455155 -0.8212373 
0.014918442 0.65756994 -0.7532458 
0.4674466 0.8834701 -0.031211486 
0.4138437 0.6971446 0.5854254 
-0.16750191 0.95631546 0.2395914 
-0.62586963 0.7788987 -0.04005021 
-0.9620801 0.24806029 0.11343709 
0.50537956 0.453915 -0.7338615 
0.2943517 0.9388936 -0.1784259 
0.35228732 0.91932654 -0.17530654 
0.26748732 0.925463 -0.26827005 
0.29561967 0.6458342 -0.7039228 
0.37208387 0.8671049 -0.33118388 
0.48764563 0.21591078 -0.84592223 
0.24728982 0.9662244 0.072514065 
-0.683946 0.7282773 -0.042778924 
-0.881546 0.37731916 -0.2837376 
-0.7874377 0.551374 0.2755516 
-0.22890751 0.9203968 -0.3169718 
0.3591648 0.53526306 0.76452225 
0.3472414 0.935819 0.060549743 
0.29983836 0.94746435 0.1113934 
0.17269434 0.96084875 0.21667123 
-0.007153951 0.7794558 0.6264165 
0.0022884996 -0.028957624 0.99957806 
0.32696214 0.21367554 0.92056435 
-0.13960107 0.33565795 0.93158215 
-0.2117602 -0.018035188 0.97715527 
-0.44786555 0.62355113 0.64078116 
-0.07243297 0.97701806 0.20047255 
-0.0633638 0.8765142 -0.47718754 
0.16618617 0.87839615 0.44810975 
0.35391977 0.5493639 0.7569281 
0.0713717 0.85793525 0.5087763 
-0.21292643 0.43252227 0.8761204 
0.3255579 0.80579406 0.49467996 
0.69006085 0.5658052 0.45130974 
-0.12107817 0.63016844 0.76696014 
0.09727757 0.7387215 0.6669541 
-0.3972082 0.7259659 0.5614261 
-0.076155156 0.85910827 0.50609624 
-0.4689577 0.69732255 0.5420518 
-0.25105175 -0.121324375 0.96034026 
-0.54873174 -0.09632445 0.83043075 
0.1040565 0.22446676 0.96891016 
0.4716987 0.85056424 0.23246698 
0.60381997 0.75487745 0.25604987 
0.111545704 0.30729777 0.9450533 
-0.03715234 0.30303478 0.9522551 
-0.13770892 0.59602046 0.79107255 
-0.56687254 0.61253244 0.5508716 
-0.9212847 -0.23746912 0.30796602 
-0.20323211 0.5019282 0.84069306 
0.22620806 0.92894214 0.29308105 
0.2266822 0.7124661 0.66408384 
-0.4134271 0.5070963 0.7562615 
-0.40442324 0.78606033 0.4674945 
-0.07868313 0.9602375 0.2678672 
-0.14409031 0.80187094 0.5798629 
0.0093147 0.89503473 0.44589934 
-0.17399485 0.5752154 0.7992829 
-0.36984575 0.33073848 0.86823165 
-0.012519012 0.41451317 0.9099572 
-0.039752066 0.5445318 0.83779764 
-0.007826868 0.41863114 0.9081227 
-0.13142075 0.50567836 0.85265344 
-0.29599187 0.40733626 0.86398274 
-0.13263112 0.24511696 0.9603784 
-0.3311954 0.52680093 0.7828093 
-0.43263695 0.4964448 0.7525742 
-0.28066394 -0.012216373 0.9597284 
-0.5753291 0.38004592 0.7242663 
-0.7100892 0.6372007 0.29958087 
-0.63119334 0.7703028 -0.09071103 
-0.35765383 0.9133504 -0.19461447 
-0.2887865 0.9568618 -0.03190417 
0.8010147 0.43753058 0.40858594 
0.88977605 0.45113346 0.06911717 
0.34616235 0.78171366 0.5187441 
-0.016974924 0.56062686 0.8278946 
-0.6809656 0.24668053 0.68951774 
-0.41641855 0.9078803 -0.048466153 
0.38827145 0.59438664 0.7042371 
-0.084241584 0.75063527 0.65532434 
-0.0143959215 0.98245794 0.18592821 
0.5904846 0.5245415 0.6133386 
0.12568043 0.71936846 0.68316436 
-0.23397513 0.24483414 0.94091016 
-0.17609753 0.4124131 0.8938149 
-0.16091709 0.6037178 0.7807884 
-0.59782994 0.48852035 0.63556856 
-0.57209873 0.8006968 0.17772943 
-0.093615726 0.7277076 0.67946875 
0.338302 0.7893442 0.5123353 
-0.11640373 0.71878743 0.6854158 
0.31622633 0.8082992 0.4966421 
-0.60979134 0.52984643 0.5894213 
0.007786077 0.98759633 0.15682107 
-0.32371926 0.74193794 0.5871405 
-0.31236115 0.5085205 0.8023948 
0.16456778 0.5190717 0.8387383 
-0.11968774 0.5672744 0.81478506 
-0.61223143 0.37746137 0.69476295 
-0.1473011 0.043488555 0.9881352 
-0.047887105 0.37027204 0.9276883 
-0.28946775 0.9450264 0.15209725 
-0.008002342 0.61379987 0.78942114 
0.28616405 0.5773288 0.7647232 
0.06558653 0.7490288 0.65928316 
0.33104622 0.91296095 0.23855996 
0.1872345 0.97844726 -0.08708795 
-0.15768765 0.8339441 0.5288401 
0.20033513 0.95554996 -0.21631068 
0.79640687 0.58367896 0.15828823 
0.57142454 0.62785643 0.52846026 
0.045556683 0.42040122 0.906194 
0.33850172 0.35268125 0.87237185 
0.29498187 0.3828627 0.8754438 
0.83467156 0.110968895 0.5394528 
0.5765721 3.6562346e-06 0.81704634 
0.63559914 0.091978334 0.76652056 
0.1473462 -0.30342957 0.9413925 
-0.047583755 0.3535823 0.9341924 
-0.115265444 0.97906905 0.16774292 
0.24418974 0.80003935 0.5480041 
0.31788433 0.93640625 -0.1486367 
0.48765534 0.87293226 -0.013476593 
-0.29599556 0.48433718 0.8232887 
-0.41270617 0.47924256 0.77459687 
-0.34344527 0.7576412 0.5550002 
0.12217712 0.41453683 0.9017938 
0.06334533 0.8105094 0.5822903 
0.64759 0.3402929 0.681783 
0.3184686 -0.31744832 0.8931989 
0.47371516 -0.17431092 0.86325526 
-0.0043768794 0.5301373 0.8479006 
-0.42281887 0.71617746 0.5552604 
-0.64138937 0.39175764 0.6596557 
0.013820064 0.9153016 0.40253207 
-0.5181892 0.851469 0.08050294 
-0.4279336 0.5432032 0.7223595 
-0.33112454 0.5485174 0.76777947 
0.18073903 -0.19864118 0.96326274 
-0.64305556 0.39246643 0.6576091 
0.20913482 0.66697305 0.71512914 
-0.16868266 0.8463498 0.5052112 
0.18968539 0.95692766 0.21979289 
0.62453955 0.32295954 0.71108896 
0.3648213 0.77543014 0.515377 
-0.07685836 0.86440396 0.49688885 
-0.823429 0.1625319 0.54364353 
-0.5656437 0.7979163 0.20827134 
-0.5422288 0.63780284 0.54698765 
-0.37417477 0.88102865 0.2894508 
-0.089455806 0.5534042 0.8280951 
0.48306158 0.48255098 0.7306136 
0.053825703 0.81835014 0.5721939 
0.8218676 0.46453565 0.32975805 
0.623497 0.74630374 0.23298562 
-0.07992717 0.7447058 0.6625896 
-0.29355597 0.28496987 0.9124785 
0.55743665 0.19114268 0.80791646 
0.1656509 0.50732267 0.84568524 
0.54413193 -0.125032 0.8296309 
0.16364811 0.33610108 0.92749953 
0.08126729 0.7844147 0.6148897 
-0.45105785 0.28871644 0.8445056 
-0.3149414 0.45056748 0.83534473 
-0.3592739 0.30424163 0.8822468 
-0.3104454 0.17697252 0.9339724 
-0.56702834 0.5283321 0.6319368 
-0.5163005 0.11807349 0.84822905 
-0.60498273 0.23454967 0.760909 
-0.7493597 -0.2762063 0.6018056 
-0.5345354 0.78645283 0.30945772 
-0.5682847 0.06725987 0.82007843 
-0.2523519 0.43389064 0.8649032 
-0.2329617 0.20091546 0.9515051 
0.15632401 0.33748922 0.9282585 
-0.5687033 -0.20106776 0.7975891 
-0.16700478 0.020004135 0.9857531 
-0.12010023 0.24874274 0.96109474 
-0.036261678 0.071612485 0.9967732 
-0.11456209 -0.6131076 0.78164876 
-0.6297813 -0.40849018 0.66069 
0.61436445 -0.21575044 0.75895196 
0.4918603 -0.4924226 0.7180484 
0.1937736 -0.19618708 0.9612297 
0.00947857 -0.34902206 0.9370666 
0.5464252 0.50389415 0.668962 
0.2706555 0.50776297 0.8178768 
-0.07123614 0.095765956 0.9928517 
-0.22205856 0.80315983 0.5528331 
0.23791714 0.3664219 0.8995168 
0.58582276 0.48181874 0.65166134 
-0.20102228 0.013018333 0.97950023 
-0.030132765 0.14828779 0.98848516 
-0.19440642 0.14312463 0.97042346 
-0.37597635 0.73808104 0.5602484 
-0.6126126 0.11987864 0.78123945 
-0.2795118 0.9601337 0.004076467 
-0.25842413 0.1815924 0.9488104 
-0.5072479 0.6768399 0.5334674 
-0.13684654 0.6536161 0.7443515 
-0.020015875 0.7442357 0.6676172 
-0.35651958 0.53679127 0.76468885 
-0.09854157 0.74487144 0.659891 
-0.39117426 0.9056175 0.16382842 
-0.4735331 0.8786257 0.061509933 
-0.51701903 0.8543388 0.052882448 
-0.6325187 0.49251872 0.5977838 
0.03625089 0.7256159 0.6871444 
-0.3162669 0.5404041 0.7797042 
0.28222445 0.11156511 0.95283926 
-0.092636816 0.69157696 0.7163378 
-0.14161138 0.8635604 0.48395225 
-0.25169832 0.5095968 0.8227753 
0.06625645 0.5724693 0.81724477 
-0.65054816 0.74213845 0.16130038 
-0.4304548 0.2973062 0.85224277 
-0.3246109 0.169799 0.9304817 
-0.23786634 0.15783198 0.9583886 
-0.5446981 0.7429783 0.38895658 
0.5702013 0.81503326 -0.102913745 
0.49844575 0.86183506 0.09376716 
0.5634261 0.6471989 0.51350236 
0.20908798 0.78158075 0.5877192 
0.34315172 0.68976885 0.6375467 
0.06281925 0.9614723 0.2676281 
0.1288798 0.8441346 0.5204101 
0.41629133 0.90784574 0.050176017 
0.97566277 0.184666 0.11824025 
0.9670458 0.24089983 0.08240086 
0.8199278 0.5016784 -0.27574816 
0.83665454 -0.08300109 0.5414057 
-0.1231027 0.069159605 0.9899812 
0.02277437 0.18498158 0.9824781 
0.6103153 -0.20005992 0.7664798 
-0.1753003 -0.3448533 0.92214215 
-0.35419378 0.53436536 0.7674636 
0.27310702 0.47334188 0.83747244 
0.24793157 0.8581354 0.44959268 
0.4866696 0.67946357 0.5490739 
-0.1522088 0.6508338 0.7438064 
-0.31869695 0.6990906 0.64008176 
-0.47261328 0.41740373 0.77615124 
0.28635257 0.3093969 0.9067942 
-0.08535367 0.3650439 0.9270694 
0.033120576 -0.17086594 0.9847375 
-0.8253388 -0.33874267 0.4517403 
-0.2429857 0.31103793 0.9188109 
0.38761905 -0.046663582 0.92063785 
-0.23066483 0.75961953 0.60808885 
-0.601483 0.36453497 0.7108675 
-0.71507406 -0.3244886 0.6191738 
-0.62655586 0.74652493 0.2238935 
0.05416286 0.97299373 -0.22438738 
0.11473687 0.9933725 -0.006818429 
0.27618346 0.94336057 0.18383074 
-0.38044307 0.5058851 0.77417266 
-0.3038667 0.87734896 -0.37138098 
-0.65837127 0.7487764 -0.07668973 
-0.41780004 0.8656938 -0.27571264 
-0.26334348 0.7648929 -0.5878683 
-0.22768994 0.9342773 0.2743778 
0.16049862 0.8438497 0.5120137 
-0.026990708 0.8202353 0.57138914 
-0.06707588 0.99590147 0.060672138 
0.20384552 0.89393437 -0.3991595 
0.51535994 0.8061576 -0.2907131 
0.51106113 0.854234 0.09539844 
-0.47124013 0.64930844 0.59693503 
-0.5724686 0.55584395 0.60275817 
-0.88623977 -0.1063317 0.45085755 
-0.15392812 0.76681507 0.62313783 
0.3000123 0.87675256 0.37589592 
0.5849499 0.4291018 0.6882626 
0.8341613 0.46044537 0.303587 
0.67267734 -0.053045943 0.73803216 
0.31263223 0.122975156 0.9418802 
0.20329356 -0.12865342 0.9706287 
0.6828651 0.03189954 0.7298477 
0.032014415 -0.20954992 0.97727376 
-0.280587 0.15201777 0.94771385 
-0.34625754 0.5823958 0.7354732 
-0.30078232 0.7772402 0.55265504 
0.17577028 0.97260565 -0.1521291 
-0.35238725 0.88824135 0.29470435 
-0.08335593 0.68345267 0.72522014 
0.28505766 0.6648951 0.6904033 
-0.02896179 0.6308855 0.7753353 
-0.42588148 0.90418327 -0.0328283 
0.26619434 0.6104878 0.74595255 
-0.814957 0.4368404 0.38080928 
0.18491155 0.6144287 0.7669976 
-0.73820215 0.5568518 0.3807542 
-0.589874 0.6328484 0.5015493 
-0.8218204 0.500139 0.27289593 
-0.74791086 0.5529675 0.3672279 
-0.18288322 0.18987513 0.9646249 
0.2780275 0.11601484 0.9535414 
0.27936235 0.9596165 0.033058 
0.5957982 0.5906106 0.544246 
0.37280294 0.2641348 0.88952285 
-0.17287734 0.27900052 0.94460166 
-0.43770647 0.09972026 0.89357096 
-0.24501103 0.66661954 0.70398015 
-0.8173157 0.22566845 0.53015924 
-0.45627826 0.11244494 0.882704 
-0.204475 0.96905786 -0.13826405 
0.70994085 0.5419159 0.44979018 
0.47096378 0.639857 0.6072695 
-0.13940936 0.8368539 0.5293775 
0.24346775 0.7362414 0.63140494 
0.20665322 0.88557404 0.41599655 
0.53856426 0.77367157 0.33373803 
0.20451955 0.8854548 0.41730276 
-0.24983422 0.60108757 0.7591289 
-0.07928231 -0.051925592 0.99549896 
0.079081476 0.47506988 0.8763873 
0.3003142 0.35733595 0.88437694 
0.0008012995 0.1335653 0.9910397 
-0.46686664 -0.46118432 0.75454926 
-0.19196424 -0.41240877 0.89054406 
-0.49163103 0.058045685 0.8688669 
-0.29234144 0.021106992 0.95608115 
-0.14564988 -0.06893693 0.98693156 
-0.15995933 0.91594976 0.36803403 
-0.5503288 0.8279175 0.10812358 
-0.34092757 0.68632185 -0.64244133 
-0.15157816 0.9774496 -0.14702508 
0.4786593 0.8778792 0.014605917 
-0.1863037 0.9536763 0.23620422 
0.109783374 0.8363898 0.53702873 
-0.026465062 0.66534853 0.7460637 
0.15755947 0.29332584 0.9429396 
0.36533678 0.35791346 0.85931784 
0.064126745 0.28649616 0.9559329 
-0.24266881 0.51525867 0.82196134 
-0.43646154 0.78877425 0.43282402 
0.38586828 0.16009027 0.9085576 
0.4382445 -0.11595896 0.8913446 
0.20245737 0.43377075 0.877983 
-0.3262995 0.11473927 0.9382769 
-0.13147178 -0.40360683 0.9054373 
-0.13267002 -0.43629003 0.88997185 
-0.66996825 0.26405784 0.6938416 
-0.6780648 0.70355093 0.21270679 
-0.36242437 0.9294768 0.068713434 
-0.7124906 0.683495 0.1587194 
0.21778418 0.673343 0.7065263 
-0.13833879 0.27585584 0.95119184 
0.6794372 -0.30796957 0.6659729 
-0.01663983 0.8573323 0.51449454 
-0.17393458 0.8283272 0.5325609 
-0.30800855 0.4400274 0.84350854 
-0.24781151 0.1424743 0.9582748 
-0.6052967 0.15401375 0.78095824 
-0.25228012 -0.7472858 0.614751 
-0.19918863 0.24941847 0.947689 
0.103114575 -0.42844588 0.8976646 
-0.13286383 0.4842035 0.86480874 
0.49825284 0.50358725 0.70579326 
0.68268645 0.25255305 0.68567944 
0.39838243 0.11460097 0.910032 
0.2503563 0.6066077 0.7545521 
-0.29605463 0.66673106 0.6839747 
-0.27639386 0.6834374 0.6756625 
-0.09024031 0.8498736 0.5192028 
0.0034178838 0.6936173 0.72033566 
-0.02369624 0.88409966 0.4666974 
-0.013983581 0.60334784 0.79735565 
0.04179008 0.75058746 0.65944827 
-0.2514325 0.62277406 0.74090093 
0.36355317 0.4244733 0.8292476 
0.62932086 -0.04672021 0.77573997 
0.48957413 0.3816595 0.7839983 
-0.3785689 -0.24703585 0.89199716 
-0.17963728 0.5326939 0.82702345 
-0.3276872 0.87885684 0.34674472 
-0.051902555 0.9681789 0.2448179 
0.17722319 0.71540153 0.67586434 
-0.26324904 0.7356047 0.6241681 
0.4629024 0.78726846 0.40734473 
0.19159795 -0.13119994 0.97266483 
0.11524665 0.7401932 0.6624442 
0.14013994 0.06142079 0.98822486 
0.3063302 0.31476012 0.8983807 
0.07969423 -0.38082597 0.92120594 
-0.32072544 0.46582502 0.8247074 
-0.43761706 -0.045911714 0.8979885 
-0.6849759 0.6360234 0.35536224 
-0.5327654 0.75769633 0.37690493 
-0.20536153 0.93746877 0.28103182 
0.29823703 0.8847652 0.35811347 
-0.24373436 0.36962336 0.896645 
-0.014392539 -0.6052666 0.79589283 
0.20337209 0.4035615 0.8920639 
0.30406398 0.5091386 0.8051851 
-0.35541585 0.54152507 0.7618597 
0.52511847 0.47123066 0.7086553 
0.5057248 0.07048809 0.8598105 
0.30413806 0.75074494 0.5864147 
-0.07115317 0.28869775 0.9547728 
-0.115813605 0.6399898 0.7596053 
0.09467667 0.8223814 0.5610038 
-0.11168748 0.69667435 0.7086401 
-0.4284278 0.073455 0.9005854 
-0.81471795 0.4583369 0.3551932 
-0.05402223 0.51184875 0.8573753 
0.44674888 0.84238094 0.30134705 
0.94605005 0.21120335 0.24572827 
0.5438444 -0.16997486 0.82179195 
0.4385548 -0.4706896 0.7655854 
0.74045944 -0.15929256 0.65295154 
-0.060724657 0.09981351 0.9931514 
-0.6555507 0.1426261 0.74156 
0.11056653 0.1241279 0.9860869 
-0.18372504 0.3623502 0.9137546 
-0.22711532 0.34824646 0.90947413 
0.5540933 0.5117242 0.6565966 
0.37237695 0.25779328 0.8915594 
-0.20771515 -0.21949458 0.9532453 
-0.67999995 0.70320445 0.20761408 
-0.31456354 0.84418666 0.43404934 
-0.47840658 0.75280076 0.45212647 
-0.5682713 0.81984884 0.07011161 
-0.5783105 0.19534834 0.79208344 
-0.8403771 0.23994842 0.4859952 
-0.65692616 0.68571717 -0.31343266 
-0.8392941 0.43736377 0.32295272 
-0.7117372 0.08694046 0.69704485 
-0.7259083 0.12677534 0.6760068 
-0.22106059 0.14671594 0.96416116 
0.0036951487 -0.30077222 0.95368886 
-0.67978114 -0.5847637 0.44266146 
-0.07159009 -0.4618372 0.8840709 
-0.025444526 -0.20778595 0.9778434 
0.13117087 -0.33707383 0.93229586 
0.75801843 -0.5512081 0.3486798 
-0.13158411 -0.6893554 0.7123727 
-0.42664662 -0.40714186 0.80759406 
0.15494895 -0.49611428 0.85431933 
0.17880741 -0.49609846 0.84965545 
0.20104158 0.11187274 0.97317356 
0.25278506 0.72335625 0.6425383 
0.37180397 0.8106312 0.45237035 
0.073767394 0.7814782 0.61955637 
-0.4177242 0.63692236 0.64794797 
-0.062687024 0.21701844 0.9741526 
0.056158774 0.7895125 0.61115986 
-0.0308515 -0.27483302 0.9609969 
-0.046155404 0.1832149 0.9819888 
-0.047179963 0.6359165 0.77031446 
-0.41063538 0.44257906 0.79718417 
-0.50623816 0.17600487 0.84424233 
-0.3162743 0.74168694 0.5914991 
-0.01654221 0.386447 0.92216337 
-0.42397124 0.66777265 0.6118236 
0.004175864 0.29026857 0.9569361 
0.6145913 0.2872784 0.73467594 
-0.1431981 -0.14496976 0.979019 
-0.18784294 0.34908018 0.918073 
-0.5310594 0.60619676 0.5920317 
-0.21169397 0.9346771 -0.2855948 
0.07306836 0.86852944 -0.49022213 
0.19350904 0.9759775 -0.100111544 
0.021608982 0.4278213 0.903605 
-0.56255436 0.3906123 0.72866637 
0.012341667 0.079161 0.9967855 
0.074082226 0.04943698 0.99602604 
-0.21360272 0.68266344 0.6988165 
-0.4906807 0.35371876 0.79631376 
-0.33485454 0.36334446 0.8693983 
-0.7397186 0.36012977 0.56843907 
-0.43837622 0.09305534 0.89396137 
-0.3966795 0.30254236 0.86666805 
-0.06672238 0.9791451 0.1918937 
-0.34769282 0.77953225 0.52099836 
0.63854027 0.646616 0.4173179 
0.43259662 0.7891715 0.43596873 
-0.21657234 0.112725854 0.96973675 
-0.26389194 0.69761837 0.6661003 
0.16613786 0.5706492 0.8042125 
-0.57815194 0.78083014 0.23673739 
0.256788 0.96265733 -0.085736535 
0.8240563 0.45878088 -0.33234236 
0.40526983 0.90995187 0.08800041 
0.92591405 0.00050729775 0.37773404 
0.9520368 0.2209074 0.21172145 
0.5545642 -0.027181242 0.83169687 
-0.09059972 0.109317414 0.9898694 
0.31322518 0.50912523 0.8016742 
0.28289488 -0.09738019 0.9541947 
0.58330333 0.19670674 0.7880759 
-0.056379035 0.5675813 0.8213847 
0.09439887 0.93933916 0.32974386 
0.56590444 0.32056743 0.75959784 
-0.08335329 -0.5292739 0.84434676 
0.46819946 0.09716906 0.8782639 
-0.26146176 0.40007508 0.8783951 
0.103056245 -0.13039824 0.98609114 
0.046172224 0.25091338 0.9669078 
0.3456342 0.6400328 0.6862179 
-0.14254509 0.33800465 0.9302869 
-0.6691056 0.1581735 0.7261397 
0.01897312 -0.38010427 0.924749 
-0.33624074 -0.7729605 0.5380283 
-0.23301834 0.048624743 0.971256 
0.24863245 0.4545243 0.85533017 
0.12135192 0.15274699 0.98078644 
-0.7045989 0.591992 0.39126202 
-0.020692289 0.98745096 0.15656458 
-0.6879589 0.7038274 0.17703015 
-0.32678384 0.7764611 0.53881407 
-0.41657323 0.28518867 0.8632116 
-0.50436306 0.8335957 0.22524707 
-0.11545188 0.88808537 0.44494426 
-0.06648729 0.9440012 0.32317382 
-0.40440392 0.8919729 -0.20209365 
0.406274 0.7549496 -0.51477414 
0.23139304 0.745115 0.6255086 
0.08204822 0.4435562 0.8924831 
-0.47280222 0.376302 0.7967779 
-0.10870883 0.93200856 -0.34574905 
0.55639756 0.6907335 0.4618539 
0.14672555 0.6631695 0.7339468 
0.43635064 0.8680754 0.2367349 
0.05647975 0.6347481 0.77065235 
0.45334464 0.1831974 0.87230587 
-0.055230595 0.20769367 0.9766335 
0.10495514 0.7144616 0.691758 
0.576528 -0.1582153 0.8016131 
0.73812854 0.4000209 0.5432767 
0.5947271 -0.659502 0.4597355 
0.20438857 -0.12816301 0.97046363 
0.37121058 -0.2064746 0.9053017 
0.49975997 0.52226424 0.6909993 
0.73913705 0.3930859 0.5469551 
0.81229436 0.19648467 0.54915535 
0.7655199 -0.0020729662 0.64340883 
0.19699766 0.6746597 0.71135515 
0.13282079 0.76722693 0.6274724 
-0.050698373 0.5033378 0.86260116 
0.26677257 0.4066958 0.8737454 
0.10546596 0.67887247 0.72664243 
-0.2702892 0.6086857 0.7459528 
-0.88521165 0.2899796 0.36374772 
-0.7492233 0.11486763 0.65228057 
-0.34580883 0.9381049 0.019378366 
-0.8160332 0.50775343 0.2761817 
-0.69040745 0.5988057 0.40591788 
-0.70893526 0.3318267 0.62233585 
-0.4899602 0.8717325 -0.0046454095 
0.4455536 0.5414312 0.7129757 
-0.07896584 0.35584897 0.93120134 
-0.38954893 0.39512575 0.83194196 
0.71013767 0.6550187 -0.25817657 
0.1934762 0.65453774 0.7308539 
0.20490876 0.32062128 0.92477804 
-0.025300007 0.033017915 0.99913454 
-0.4515514 0.3231924 0.8316539 
-0.35018262 0.23612967 0.90642977 
-0.6286477 0.19378066 0.7531608 
-0.5114312 0.18273701 0.8396698 
0.05400662 0.9640217 0.2602798 
0.18468276 0.6021495 0.7767293 
-0.16398916 0.52008563 0.8382234 
-0.015442978 -0.021022193 0.99965984 
0.16460314 0.3867346 0.9073821 
0.25700676 0.6941535 0.6723827 
0.24025245 0.8773049 0.4154694 
0.49948424 0.8320711 0.24119128 
-0.024976559 0.6463382 0.7626422 
-0.13811325 0.1252101 0.98247 
-0.45416352 0.13125488 0.88119674 
0.20064504 -0.27114996 0.94139224 
0.123281635 -0.33091703 0.9355724 
-0.5150995 -0.16161641 0.8417556 
-0.4950728 -0.20615412 0.84404 
-0.69993263 0.17110914 0.693409 
-0.86598635 0.04912722 0.4976486 
-0.9654251 0.044610046 0.2568353 
-0.5545455 0.74918896 0.36220878 
-0.6886462 0.7242836 0.0343487 
-0.39467436 0.896691 0.20044304 
0.01124158 0.99983674 -0.014148841 
-0.21785425 0.5531138 0.8041174 
-0.32827985 0.87358916 0.3592693 
-0.045962583 0.988581 0.1435102 
-0.5183242 0.7382333 0.43168464 
-0.589716 -0.20423457 0.78135985 
-0.72291875 0.20010957 0.6613205 
0.15642735 0.8823809 0.44377306 
0.6974204 0.63251406 0.33694327 
0.10728336 0.022332039 0.9939777 
-0.06158002 -0.15115449 0.9865902 
-0.38072094 0.6518079 0.65589494 
-0.4558933 0.389166 0.8004445 
-0.03001968 0.006135993 0.9995305 
-0.41818023 -0.67426115 0.60868484 
-0.5575503 -0.27212262 0.7842748 
-0.6960759 0.15665628 0.70066905 
-0.09974216 0.32396996 0.9407949 
0.25389576 0.7364509 0.6270383 
-0.30768147 0.7141237 0.6287762 
-0.13206063 0.62327886 0.77076817 
0.0044223643 -0.7007899 0.71335405 
-0.63526964 0.28902593 0.7161679 
-0.07906871 0.970746 0.22671644 
-0.14662923 0.6685287 0.72908807 
0.34264952 0.6224162 0.70369697 
-0.47067952 0.028414784 0.8818466 
0.1325041 -0.650509 0.7478508 
-0.0227607 -0.99785054 0.061452597 
0.537466 -0.4616768 0.70568043 
0.27850294 -0.5007781 0.81954706 
0.0046089445 0.026851453 0.9996288 
0.22944199 0.021114003 0.9730934 
0.04246456 0.088513985 0.99516934 
0.016282897 -0.074442 0.9970925 
-0.056149613 0.118354715 0.9913826 
0.36521313 0.056440674 0.9292114 
-0.66984344 0.4605104 0.5824432 
-0.07632647 0.71977174 0.69000214 
-0.28494093 0.6184579 0.7323378 
-0.0037681484 -0.04030272 0.99918044 
-0.47665432 0.14521694 0.8670137 
0.13933112 -0.02481997 0.9899348 
0.02333152 0.617456 0.7862593 
-0.064224064 0.3849633 0.92069465 
0.107505105 -0.4564543 0.88322836 
-0.008959408 -0.25861174 0.9659398 
0.3233024 -0.14579906 0.9349964 
-0.5951032 -0.5386006 0.5964575 
-0.8405813 0.0013279305 0.5416838 
-0.21228263 0.22721279 0.9504265 
-0.13972723 -0.1373094 0.98062354 
0.089766525 0.02834891 0.9955594 
0.48808536 0.17228718 0.8556225 
-0.034016717 -0.35499895 0.9342477 
-0.17792127 -0.39401352 0.9017191 
0.5347012 0.10617663 0.8383443 
0.37806872 -0.43955314 0.81477433 
0.025102 -0.2771887 0.96048754 
-0.36093757 0.064664066 0.9303455 
-0.61316216 0.20308965 0.7634047 
-0.56225914 0.5171226 0.64532846 
-0.5135736 0.5577231 0.6520637 
-0.1683585 0.7991677 0.57704985 
-0.75334454 0.3252565 0.5715595 
-0.16188286 0.33865964 0.9268785 
0.13701957 0.6462424 0.7507307 
-0.036885142 0.31546754 0.9482193 
0.9483077 0.25973746 0.18234307 
0.5843371 0.5247175 0.61904913 
0.5970048 0.5504903 0.583563 
0.47415158 -0.20856632 0.85538316 
0.23630618 -0.19409078 0.9520967 
-0.16227409 -0.09227588 0.9824217 
0.025676545 0.71389264 0.6997843 
0.27853715 0.49374306 0.823793 
-0.22819594 0.65142655 0.7235815 
0.15805587 0.6063791 0.7793092 