# OOMMF: rectangular mesh v1.0
# Segment count: 1
# Begin: Segment
# Begin: Header
# Desc: Time (s) :  8.800000000000001e-08
# Title: m
# meshtype: rectangular
# meshunit: m
# xbase: 2e-09
# ybase: 2e-09
# zbase: 5e-10
# xstepsize: 4e-09
# ystepsize: 4e-09
# zstepsize: 1e-09
# xmin: 0
# ymin: 0
# zmin: 0
# xmax: 1.024e-06
# ymax: 1.024e-06
# zmax: 1e-09
# xnodes: 256
# ynodes: 256
# znodes: 1
# ValueRangeMinMag: 1e-08
# ValueRangeMaxMag: 1
# valueunit: 
# valuemultiplier: 1
# End: Header
# Begin: Data Text
0.63481206 0.14866072 0.75823057 
0.77936614 0.18949798 0.59722614 
0.5803752 0.7938069 0.18175595 
0.5661097 0.7220292 0.39773577 
-0.48017496 0.6679111 0.5686183 
0.56784755 0.2866577 0.7716065 
0.50822073 0.7309964 0.45536357 
-0.49408096 0.56270677 0.66275567 
-0.4842408 0.663329 0.570531 
-0.33320507 0.92765635 -0.16860634 
-0.90405893 -0.09069588 0.41767427 
-0.17039485 0.4993302 0.849491 
-0.025378857 0.7222682 0.69114727 
0.69559294 -0.25401706 0.6720311 
-0.20854717 0.55597 0.8046151 
-0.5744529 0.08400993 0.8142152 
0.0040464955 0.4153891 0.9096348 
-0.014162481 0.22277318 0.97476745 
0.29447675 0.52229613 0.8003064 
0.9354173 -0.14356557 0.32308432 
0.6411099 0.56682134 0.5173894 
0.56350124 0.7844572 0.25902385 
-0.34979436 -0.53666955 0.7678735 
0.058029845 0.39214635 0.91807073 
-0.05903822 -0.03029496 0.99779594 
0.14886746 0.5608858 0.81439906 
0.40749294 0.7956038 0.44829032 
-0.40081877 0.84738505 0.34825706 
-0.55598044 0.5997332 0.5755049 
-0.7850202 0.49251065 0.3757348 
-0.8011193 0.5776156 0.1567425 
0.34479442 0.8546874 -0.3881062 
0.351065 0.8098102 -0.47006464 
0.16181806 0.9151294 0.36926028 
-0.24758738 0.9562923 -0.15558138 
-0.647297 0.76185554 0.024142908 
-0.12974717 0.98998094 0.055709884 
0.113369 0.5285752 0.84128225 
-0.86850995 0.21059266 0.44871077 
-0.26895532 0.4907262 0.8287646 
0.021705171 0.55348027 0.8325795 
-0.10531781 0.3690601 0.9234191 
-0.31383672 0.16906199 0.93430436 
0.09540087 0.7350456 0.67127246 
-0.36613542 0.055255435 0.9289197 
0.045960747 0.2308028 0.9719145 
-0.32424733 0.8571393 0.40021998 
0.23139901 0.47590953 0.8485073 
0.164203 0.65099645 0.74110794 
-0.11496699 0.6703167 0.7331154 
0.5743494 0.6048293 0.5516379 
0.2505848 0.686207 0.6828816 
-0.090802714 -0.07661004 0.99291784 
-0.29664528 0.9206569 0.2537567 
-0.1793993 0.9600943 -0.21455741 
-0.8665486 0.3990936 -0.2996963 
-0.5607604 0.67354673 -0.48154187 
-0.9386683 0.34481436 -0.0021844062 
0.24094667 0.948925 0.20368141 
-0.16035958 0.8281887 0.53701794 
0.36289006 0.47231466 0.803262 
-0.0948838 0.508294 0.8559407 
-0.08863317 0.063477345 0.9940397 
-0.3560239 0.5697937 0.74066335 
-0.08500418 0.72120684 0.68748456 
-0.32376677 0.66735697 -0.6706786 
-0.9793523 0.04119586 0.19791946 
-0.41439617 0.6772991 0.6078996 
-0.772675 0.46727964 0.4296778 
-0.9882026 -0.14988314 -0.031476982 
-0.8145904 0.2874914 -0.5037769 
-0.88553023 0.38596234 -0.25859118 
-0.2887255 0.7099282 -0.6423703 
-0.18272543 0.8383936 -0.5135246 
0.6744081 0.7239047 -0.14538129 
0.60236585 0.665091 0.44137213 
0.42972687 0.90263456 -0.0242049 
0.45779687 0.79153 0.40484852 
0.13041791 0.9841801 0.119920164 
0.24375877 0.67299604 0.69832516 
-0.1137559 0.4509251 0.8852831 
0.20437421 -0.41687846 0.8856882 
0.2334824 0.020600567 0.9721428 
0.40354714 0.69331855 0.597042 
0.15986973 0.35903692 0.9195294 
0.08783136 -0.18429637 0.9789385 
-0.04434821 0.0013463631 0.9990152 
0.30403945 0.77425057 0.55506396 
-0.09058315 0.8935939 0.43964157 
-0.15407254 0.8313402 0.5339804 
0.095729776 0.6841802 0.72300303 
0.59654784 0.04698327 0.80120116 
0.5521155 0.7466022 0.37115186 
0.1137889 0.7101659 0.6947781 
-0.7359512 0.3336393 0.58911854 
-0.049014647 0.3384481 0.93970764 
-0.21117078 0.9440009 0.25351405 
-0.13304864 0.98628116 0.09771126 
-0.12323669 0.8750808 0.468024 
-0.06980992 0.89038956 0.44981438 
-0.32409334 0.9415182 0.09223319 
0.23568192 0.9384404 0.25255436 
0.11823612 0.73122466 0.67181164 
-0.1297406 0.76698446 0.62841254 
-0.13873291 0.23012798 0.9632208 
0.030892134 0.57235754 0.8194222 
0.12185138 0.34489986 0.9306968 
0.02576154 0.25761446 0.96590436 
-0.009148935 0.04703587 0.99885136 
-0.68097025 0.37351808 0.62989193 
-0.6212872 0.7561504 -0.2055206 
0.21063142 0.41617823 -0.88455087 
0.13395952 0.93938345 0.3156163 
-0.18055773 0.9426517 0.28072527 
0.3057942 0.7873743 -0.5352865 
0.6938385 0.6426803 -0.32488498 
0.8613492 0.4516796 0.23251456 
0.5286029 0.84384567 0.09221377 
0.44204754 0.8822859 0.16175835 
-0.19393818 0.55632955 0.80801326 
0.18900664 0.94271547 0.27488944 
0.32710016 0.93891746 0.10695561 
0.34663078 0.9351587 0.072975375 
0.29341373 0.95577013 0.020292956 
-0.13410728 0.9546884 -0.26567936 
-0.36945787 0.9152343 0.16077048 
-0.5704955 0.7646055 -0.2998557 
-0.21276973 0.9605057 -0.1793259 
-0.79353195 0.38647866 0.47004408 
-0.51457727 0.54166645 0.66468614 
-0.3048766 0.53497773 0.78793985 
-0.18202354 -0.13932635 0.9733733 
-0.10545776 0.42007673 0.9013403 
-0.66552395 -0.24967894 0.7033764 
-0.006541833 0.5175598 0.85562205 
0.16218877 0.3982695 0.9028157 
-0.55513626 -0.36986244 0.7450004 
0.2082318 0.05362024 0.9766087 
0.29933915 0.57032335 0.7649362 
0.10402014 0.887938 0.4480468 
0.19097535 0.8130705 0.54995006 
0.38403717 0.40571517 0.8294039 
0.12978515 0.13488542 0.98232466 
0.4265555 0.37688184 0.82219857 
0.5569703 0.17860967 0.81109965 
0.51917917 0.29447293 0.80233335 
0.5532351 0.085889935 0.8285855 
0.34338886 -0.07456252 0.9362289 
0.49050295 -0.41281468 0.7674575 
-0.31871143 0.5740279 0.75426453 
-0.2840319 0.92238206 0.26179633 
-0.02242493 0.30119064 0.95330024 
0.14179938 0.23176992 0.9623803 
0.6308869 -0.05381833 0.77400595 
0.21715765 0.18542035 0.9583641 
0.5690386 -0.17718717 0.8029943 
0.91630703 -0.37472484 0.14129022 
0.73589057 0.62959886 0.24913949 
0.42927352 0.28891683 0.85571694 
0.6690377 0.15734044 0.72638327 
-0.13660446 0.7637726 0.630865 
-0.49742925 0.5442352 0.6755532 
-0.5832897 0.71403486 -0.38720456 
-0.10797673 0.81060445 -0.5755533 
0.21135643 0.46167716 0.86150026 
-0.08883013 0.5499052 0.83048993 
0.6405663 0.45501852 0.6185734 
0.81310594 0.56941426 0.12093884 
0.8359917 0.23228219 0.49715477 
0.75449854 0.5692719 0.3265905 
0.19075496 0.6989907 0.6892203 
0.8516441 0.4174111 0.31697047 
0.78031576 0.026448939 0.6248264 
-0.28481743 0.71985567 0.63299847 
0.38758734 0.451429 0.8037338 
0.36493182 0.8645531 0.3455037 
0.13718008 0.6333107 0.76164246 
-0.7235078 0.27396172 0.6336256 
-0.80485433 0.5901468 0.062740594 
0.26322356 0.95213795 0.1553919 
-0.091162525 0.9955988 0.021738984 
0.012984316 0.61409307 -0.7891269 
0.19646187 0.58607626 -0.78607714 
-0.6124545 0.7252544 0.31449255 
0.00076141016 0.87984455 -0.47526115 
0.24853858 0.6737036 -0.69595414 
0.6656136 0.6404013 0.3832033 
-0.31113032 0.76288354 0.5667511 
-0.5814428 0.0054782187 0.81356895 
-0.68708396 -0.27542478 0.6723518 
-0.8226613 0.4731815 0.31516337 
-0.5762607 0.8164452 0.03661871 
-0.1518329 0.9844327 -0.088539 
0.45419082 0.89090437 -0.00034184734 
0.9531509 -0.1636567 0.25440112 
0.7108757 0.546364 0.44287935 
0.048218988 0.9134225 0.4041463 
0.059443127 0.9779613 0.20014575 
-0.11035036 0.8648471 0.48975733 
-0.35057083 0.8933654 0.28106672 
-0.583839 0.7440802 -0.324772 
-0.53589636 0.84428036 0.0024076644 
0.18770753 0.66320056 0.72452116 
-0.31719562 0.8394229 0.44131187 
-0.8724548 0.48866513 0.0053818882 
-0.6615372 0.59692454 0.45392704 
-0.24252275 0.8897435 0.3867029 
-0.09837332 0.90606827 0.41153744 
0.056876402 0.9975944 0.039630372 
-0.1008738 0.90555984 0.41205072 
0.10571332 0.63715845 0.76344866 
-0.8781871 0.081653304 0.47129646 
-0.7572242 0.29432485 -0.5830819 
-0.70154226 0.7125985 0.006477284 
-0.47452942 -0.11667806 -0.8724724 
-0.18689704 -0.06730097 -0.9800715 
0.34260863 0.9051123 -0.25177568 
0.4538767 0.3824676 -0.8048071 
0.8376395 0.42516387 -0.3429223 
0.8759039 -0.010527966 0.48237085 
0.27702108 0.23384286 0.9319747 
0.18774112 0.061634872 0.98028284 
0.2779156 -0.032241672 0.96006435 
0.2504599 -0.06467057 0.9659647 
-0.21159895 -0.018400189 0.9771834 
-0.0743103 0.80287015 0.59150445 
-0.4992756 0.86308616 0.07619869 
0.18662927 0.74903935 -0.63569623 
0.21413213 0.8580481 0.46679887 
-0.71432954 0.5734115 0.40116403 
-0.42709228 0.40717027 0.80734414 
-0.45851246 0.36072403 0.81218505 
-0.8002642 0.42215568 0.42586616 
-0.08809236 0.28831825 0.9534739 
0.20078273 0.7440579 0.63723177 
-0.4084038 -0.014750997 0.9126822 
-0.054049034 0.39520693 0.91700065 
-0.2757265 0.22788574 0.93383247 
0.12716989 0.24843192 0.96026534 
-0.5435855 0.54839754 0.63543296 
0.64739966 0.48518026 0.58777016 
0.46548986 0.33892044 0.8175893 
0.6454581 0.7296855 0.22570552 
0.9238901 0.14808854 0.35284126 
0.15467533 0.25580385 0.9542746 
-0.16242668 -0.27933925 0.94635475 
-0.40903214 0.19790176 0.8908017 
0.48782328 0.27632752 0.8280529 
-0.02093057 0.10126488 0.99463934 
0.23083042 0.60574055 0.76144326 
0.62154835 0.6342899 0.45973265 
0.24811956 0.7024114 0.66712445 
0.11185054 0.37660536 0.9195967 
-0.18675643 0.067760386 0.98006666 
0.45254788 0.49516377 0.7416289 
0.41875488 0.89805055 0.13472036 
0.4263917 0.8996881 -0.09354862 
0.9422891 0.09884048 0.31987804 
0.42880714 0.52012974 0.73864037 
0.05809061 0.528632 0.84686106 
-0.16751875 0.76382786 0.6233013 
0.4496303 0.02782906 0.8927812 
0.36481532 -0.22797441 0.90273887 
-0.5090516 0.1968751 0.83791816 
0.061402317 0.91305083 0.40319717 
-0.01957391 0.9438841 0.32969633 
0.32567832 0.79974777 0.5043187 
0.09816686 0.16662519 0.98112154 
0.1575017 0.16585399 0.9734915 
0.14077306 0.59998053 0.7875318 
0.027316913 0.31709665 0.94799984 
-0.46157318 0.37348998 0.80464625 
0.9671228 0.20606136 0.14903772 
0.30888334 0.5315479 0.78870016 
0.8083272 0.13727418 0.5725059 
0.33707684 -0.2915748 0.8951891 
0.37768462 0.12704884 0.91717666 
0.2850786 0.4618511 0.83989507 
0.19587788 0.66107506 0.72430086 
0.16778801 0.51350194 0.8415242 
0.08279339 0.2693626 0.9594734 
0.19020773 0.5664619 0.80183655 
0.010960014 0.5644182 0.82541627 
0.025061801 0.25936094 0.96545523 
0.3553034 0.42727914 0.83137953 
0.1788691 0.006163421 0.9838536 
0.21824375 0.8344399 0.5060434 
0.11496994 0.84989893 0.5142506 
0.52701455 0.83812314 0.1407315 
0.25374216 0.6312382 0.7329075 
-0.16285074 0.91949177 0.35779113 
-0.26641136 0.6034953 0.7515441 
-0.57345426 0.48578966 0.65966564 
-0.37348998 0.39526156 0.8392101 
-0.54297715 0.6918838 0.47589138 
0.077505104 0.49521646 0.8653056 
0.1940715 0.20403604 0.959534 
0.79562104 0.10438881 0.5967329 
0.31103933 0.2763259 0.9093396 
0.03496497 0.28803122 0.9569825 
0.12055361 -0.05262399 0.9913111 
0.20728207 0.06594168 0.97605634 
0.07065744 0.3820858 0.92142177 
0.78055215 -0.05285038 0.6228525 
-0.16697697 0.36567643 0.9156416 
0.27595448 0.94134724 0.19420224 
0.2866152 0.55837893 0.7785017 
0.18355605 0.796244 0.576457 
-0.0111950375 0.6948314 0.7190856 
-0.05193515 0.99181193 0.11666964 
-0.13961993 0.9607318 0.23979342 
-0.8055426 0.572329 0.15342952 
-0.7024566 0.6943938 0.15611568 
-0.24407566 0.7651651 0.59577644 
-0.5880115 0.78076917 0.21128678 
0.45317525 0.3399405 0.82405865 
-0.6449647 -0.69380736 0.32039353 
-0.21901472 -0.0012333433 0.9757209 
0.12357876 0.25055552 0.9601824 
-0.12234747 0.10288526 0.9871402 
-0.34218523 0.16450061 0.92512107 
-0.43499905 0.8436101 -0.31479818 
-0.71810013 0.6820924 -0.13813823 
-0.3689569 0.3648498 0.85484236 
-0.72812355 0.5323822 0.43174696 
-0.5692162 0.78604877 -0.24108134 
-0.35932404 0.93282443 0.026926517 
-0.8830618 0.45540842 -0.113159284 
-0.63469183 0.62250096 -0.45788532 
-0.37946033 0.8454956 -0.37569568 
0.5514081 0.7043083 0.44710076 
0.5642663 0.32591256 0.7585411 
0.28805897 0.85682124 0.42764407 
0.71923083 0.6472423 0.2525558 
-0.16161549 0.7457642 0.64630973 
-0.5633348 -0.22290097 0.7955935 
-0.20112932 0.4208699 0.8845426 
-0.45889947 0.031059181 0.88794523 
-0.29824036 -0.39485553 0.86898893 
-0.13437958 0.83411056 0.5349783 
-0.016924182 0.8896099 0.4564077 
-0.3222647 0.052388236 0.9451989 
0.07582881 0.11314048 0.99068123 
0.24339406 0.4766017 0.84475464 
0.46805695 0.5847033 0.6626045 
0.3059465 0.6304519 0.71339136 
0.21234715 0.82722396 0.5202012 
0.16362695 0.45833072 0.8735899 
-0.15585524 0.5298584 0.8336421 
0.15650216 0.79413897 0.5872396 
-0.92187417 0.031231431 0.38622892 
-0.34867775 0.3364595 0.8747679 
-0.05446214 0.7208144 0.69098526 
-0.35307232 0.77653855 0.52185035 
0.0076009347 0.7352165 0.67778975 
0.42120862 0.79078144 0.4441263 
-0.3738101 0.9234566 -0.08656783 
0.71236515 0.38133293 0.58916986 
0.8370199 0.09013367 0.5396976 
0.33710635 0.42225802 0.84146154 
-0.2736687 0.41668883 0.86687714 
0.52369756 0.3467227 0.7781544 
-0.4822518 0.30834737 0.8199726 
-0.16095132 -0.121768296 0.97942185 
-0.3097962 0.38751924 0.8682484 
-0.6695643 0.34432712 0.6581204 
-0.68770826 0.70355546 -0.17907302 
-0.24385029 0.9687042 -0.046360478 
-0.57173806 0.78633183 -0.23408909 
0.8021371 -0.06525284 -0.59356403 
0.69004166 0.595273 -0.41169477 
0.88819104 0.21498655 0.40607595 
0.8639612 0.00077393505 0.5035577 
0.88286287 0.14750189 0.44586602 
0.18373428 0.6901263 0.69997674 
0.22074856 0.15229997 0.9633664 
-0.123199135 0.7068727 0.6965293 
-0.6624484 0.30717915 0.68323 
-0.37206233 0.028682727 0.92776453 
-0.36263704 0.62904626 0.68760103 
-0.33315516 0.79766685 0.5027278 
0.15990785 0.94798076 0.2752488 
-0.14655156 0.8972208 -0.41655433 
-0.34011617 0.9374238 0.07454873 
0.23917189 0.9325304 0.27052522 
0.78390974 0.5756299 0.23267145 
0.77006316 0.6112096 0.18282706 
0.13858867 0.48750016 0.8620538 
-0.3114186 0.7005526 0.6420627 
-0.45413727 0.44966078 0.7691324 
0.28737488 -0.44667134 0.84729 
0.44340527 -0.3141354 0.8394705 
-0.4694467 0.52818096 0.7075625 
-0.56684977 0.023154356 0.8234958 
-0.34317702 0.351015 0.8712165 
0.10267821 0.8425371 0.5287613 
0.70208347 0.39888626 0.58988863 
0.45906633 -0.18796957 0.86828893 
-0.02829913 -0.098292366 0.9947552 
-0.13072892 0.5846702 0.8006689 
0.4245179 0.5439207 0.72383344 
-0.037677404 -0.05538516 0.997754 
-0.012877201 -0.67220676 0.74025154 
0.7936678 -0.32676253 0.51314497 
0.47484148 -0.81092274 0.34195036 
0.11712069 -0.14658059 0.9822408 
0.066401444 0.7524761 0.6552638 
-0.054910395 0.54769003 0.8348776 
-0.20218663 0.45914328 0.86504805 
0.67652726 0.3404418 0.65300095 
0.36203676 0.20255181 0.90989125 
0.53574103 0.37826684 0.7549144 
0.57767797 0.1253961 0.8065756 
0.820834 -0.05931223 0.568079 
0.2956748 0.39359057 0.87043846 
-0.086386554 0.6781032 0.72987217 
-0.45697492 0.61719036 0.6405076 
-0.5391137 0.23682496 0.80825156 
-0.4028692 0.8743542 -0.27055728 
0.40848774 0.8886694 0.20833726 
0.04068867 0.8919239 0.4503513 
0.37901154 0.5856429 0.71650034 
0.36759922 0.5303006 0.76397127 
-0.28857827 0.21697721 0.93254673 
0.061767843 0.05338445 0.9966619 
0.37661704 0.6031537 0.7031112 
0.25476652 0.9390886 0.2306659 
0.35291123 0.05559128 0.9340039 
0.289995 0.36167994 0.88605344 
0.18041544 -0.06266851 0.98159206 
0.4022599 0.48424733 0.776976 
0.4458316 0.7305805 0.5171909 
0.43888122 0.61415064 0.65589803 
-0.2753098 0.62610495 0.7295184 
-0.8293708 0.51935357 0.20595191 
-0.6540647 0.750145 0.09737499 
-0.4674244 0.8775385 0.10696091 
0.21709733 0.8510004 0.47819158 
0.36615145 0.8413347 0.3976041 
0.10832512 0.7060579 0.69982 
-0.05428172 0.9451856 -0.32199016 
0.601831 0.798021 -0.031014675 
0.29767197 0.9118936 0.28256246 
0.36026692 0.33987018 0.86873245 
-0.18639623 0.73601377 0.6507997 
-0.7047745 0.23554213 0.66918814 
-0.8273965 0.34236965 0.4451944 
-0.46254328 -0.16610494 0.8708978 
0.12507018 0.747181 0.6527466 
0.1408884 0.77497935 0.61608243 
0.76731724 0.51997626 0.37529865 
0.014871927 0.79355615 0.60831535 
-0.11489584 0.97301775 0.20008878 
0.7265774 0.679703 0.10044454 
0.13580595 0.8758811 0.46302167 
-0.30944425 0.6800172 0.6646962 
-0.6563218 0.4313402 0.61902136 
-0.5668765 0.82066125 0.071877584 
0.19772343 0.7571503 0.62259847 
-0.45339513 0.36901602 0.8113322 
-0.35799316 0.6403369 0.6795657 
-0.22058544 0.6289111 0.74552864 
0.014911021 0.90188706 0.43171462 
0.29685912 0.6326653 0.71526873 
0.022998214 0.7792588 0.6262802 
-0.04383887 0.4530592 0.8904019 
-0.79159147 0.42605025 0.43802306 
-0.5381595 0.5413231 0.6460291 
-0.25337496 0.92775583 -0.27398974 
-0.115363754 0.84872395 -0.5160999 
0.11113794 0.7388414 -0.66465163 
0.51215357 0.52467024 -0.68001467 
0.42707115 0.85618657 -0.29078317 
0.624039 0.75672114 -0.19480363 
0.59154433 0.8030442 0.07207818 
0.34023848 0.47319442 0.81260383 
0.48522496 -0.011159365 0.8743181 
0.6950634 -0.14094645 0.70499724 
-0.16073315 0.29138845 0.9430046 
-0.6703351 -0.5405493 0.5083871 
-0.5112397 0.41571933 0.7522045 
-0.3485746 0.89306355 0.28448755 
-0.35163966 0.75001323 0.56020504 
-0.34695387 0.5817891 0.73562527 
-0.18618032 0.46068633 0.8678162 
-0.22886384 0.21957657 0.94837105 
-0.18955107 0.3800576 0.9053324 
-0.15819854 0.9268878 0.34037068 
-0.40659264 0.73527217 0.5422705 
0.11239607 0.65461904 0.7475568 
-0.033351075 0.47263223 0.8806285 
0.43670613 0.5477778 0.7136017 
0.10659135 0.4646831 0.87903816 
0.052341837 -0.30118966 0.95212674 
0.06807327 -0.16414319 0.9840849 
0.025447149 -0.033042386 0.99912995 
0.18063954 0.5092971 0.8414191 
-0.14335324 0.0692094 0.98724866 
-0.14319342 0.48717847 0.861483 
-0.08668534 0.36929926 0.9252587 
-0.16062261 0.23172325 0.9594294 
0.33192882 -0.033472575 0.94271046 
0.5815978 -0.5494274 0.5998947 
0.42570227 -0.24329904 0.8715407 
0.55252975 -0.13355531 0.8227234 
0.5761184 -0.046110056 0.8160647 
-0.23269819 0.42526203 0.8746449 
-0.4437759 0.62338763 0.64377856 
-0.8059253 -0.021441322 0.59162885 
-0.25381678 -0.41104564 0.8755677 
-0.34770647 -0.16644831 0.9227108 
0.7097244 -0.1447397 0.6894503 
0.54346704 0.7857674 -0.295319 
0.42358407 0.7846481 0.4526631 
0.03060845 0.80477226 0.59279406 
0.06426283 0.08511198 0.9942969 
0.7377166 0.0686161 0.6716145 
0.24287638 -0.4351591 0.86697626 
0.366766 -0.5148476 0.7748643 
-0.39593574 -0.49754825 0.77180344 
-0.081922464 0.27455053 0.9580766 
-0.1661183 0.23368047 0.9580178 
0.75212395 -0.2723358 0.60011905 
0.03903097 -0.35568252 0.93379146 
0.40839076 0.58414423 0.70142186 
0.5141221 0.18013775 0.8385874 
-0.08049614 0.5060882 0.85871726 
0.30974364 -0.17656884 0.9342818 
0.8944584 0.11155394 0.43301252 
0.69026977 0.15238872 0.70732266 
0.31540877 0.23786923 0.9186597 
-0.015292675 0.74117005 0.6711431 
-0.02672961 -0.26226118 0.96462667 
0.4866643 -0.67975557 0.548717 
0.47167382 0.35562113 0.8068813 
0.31579265 0.2618074 0.9119933 
0.0393846 0.19976312 0.9790524 
0.60490835 0.47720876 0.637462 
0.35840696 -0.49496004 0.79155475 
0.011675412 -0.19858202 0.9800148 
-0.18716927 0.20784996 0.9600865 
-0.31343713 -0.21893784 0.9240257 
-0.061565407 0.03921495 0.99733245 
-0.610466 0.023593063 0.791691 
-0.3428714 0.9384395 0.04207716 
-0.2862864 0.84938335 0.44338253 
-0.35887018 0.8984616 0.2529406 
-0.29042533 0.8834015 0.36777034 
-0.44594494 0.56509215 0.6941211 
-0.53051907 0.42638233 0.7326306 
-0.9462613 0.29103136 0.14103356 
0.50195956 0.61670184 0.6063956 
0.14886439 0.37741387 0.9140013 
-0.2462896 -0.092243284 0.96479666 
-0.1182242 0.19314106 0.9740224 
0.48198214 0.6297975 0.6091374 
0.20832631 0.3978031 0.893506 
0.33599994 0.2665442 0.9033595 
-0.1912277 -0.2700621 0.9436623 
0.7071498 0.014651282 0.706912 
0.6516404 0.07759973 0.75454825 
0.31077796 0.5217246 0.7944939 
-0.15421568 0.42256054 0.8931183 
-0.36268142 0.65805775 0.6598654 
-0.05452031 0.69814944 0.7138732 
0.5694426 0.50514674 0.64850754 
0.32974416 0.8755451 0.35311434 
-0.42912883 0.8670077 0.253271 
-0.5079982 0.86017126 0.045204118 
-0.5431586 0.6046614 0.58254904 
-0.30110085 0.8580305 0.41607928 
0.18401119 0.053773023 0.9814522 
-0.11894764 0.15316297 0.98101616 
-0.225361 -0.2769272 0.93408984 
0.04840658 0.23769052 0.970134 
-0.42670262 0.67561585 0.6012223 
-0.13922295 0.024287391 0.98996323 
-0.5176827 0.75875115 0.39534977 
-0.3176872 0.8601558 0.3990073 
0.38550353 0.8952329 0.22348389 
-0.21951205 0.23002183 0.9481057 
-0.40092757 0.029976442 0.91561925 
-0.6315344 0.64196223 0.4347974 
-0.3079466 0.8353122 0.45543656 
-0.25938416 0.71986264 0.64383054 
0.49680746 0.823235 0.27471164 
0.61312485 0.65771204 0.43759897 
0.53505474 0.55364007 0.6381216 
-0.31636402 0.68308336 0.6582636 
0.21417913 0.50943965 0.8334258 
-0.46250993 0.28118563 0.8408444 
0.19753575 0.78680795 0.5847333 
-0.12871476 -0.022451047 0.99142754 
-0.39785457 -0.69301915 0.60119563 
-0.03607172 -0.20899191 0.9772519 
-0.14432554 0.8508409 0.5052128 
0.52299494 0.8473791 0.091788635 
0.30739892 0.72027284 0.6218626 
0.12890482 0.19945303 0.9713918 
-0.017516257 0.046103314 0.9987832 
-0.19274913 0.2943016 0.9360739 
0.565018 0.571923 0.5946921 
-0.22340767 0.73971033 0.634758 
-0.24553433 0.24024963 0.93914485 
-0.07227044 0.66338634 0.74477893 
0.091030724 0.6723634 0.7346026 
-0.5893051 -0.17950548 0.78771657 
-0.047061794 0.29529124 0.95424753 
0.3377826 0.2956721 0.8935776 
0.050160047 0.2360875 0.9704364 
0.18009394 0.31170627 0.9329552 
-0.11546425 0.66254413 0.74006987 
-0.3868452 0.65279806 0.6513107 
-0.06876852 0.78643495 0.6138332 
0.19702299 0.19005784 0.9618004 
0.5832966 0.3193924 0.74682903 
0.3322601 0.72932506 0.5980704 
-0.19700785 0.7119189 0.6740619 
-0.30198607 0.091465905 0.9489144 
-0.141632 -0.28574273 0.9477824 
-0.554736 0.56982 0.6062781 
-0.84941715 0.5125933 0.12545444 
-0.7608749 0.14921872 0.63150877 
0.49711218 0.836939 0.22893815 
0.8214054 0.37884462 0.42634484 
0.88634646 0.4530698 0.095487304 
0.48117587 0.87642926 -0.018481202 
0.35246423 0.9264473 0.13215347 
0.06202521 0.08799275 0.99418825 
0.37004557 0.516209 0.7723954 
0.27043232 0.1624668 0.9489315 
0.352447 -0.1665958 0.9208838 
-0.43182275 0.102639094 0.8960995 
-0.3153075 -0.36957595 0.8740681 
-0.28728348 0.18979649 0.9388534 
-0.7736129 0.37968576 0.5073084 
-0.5308669 0.80745023 0.2573025 
-0.5563448 0.6209404 0.55218977 
0.5286721 0.8482573 0.03107426 
-0.5390183 0.8379579 0.085357584 
-0.60974926 0.78622586 -0.10027347 
0.14026068 0.97435075 0.17597625 
0.15266918 0.96552944 0.21082021 
0.14193705 0.6830942 0.7164051 
-0.2822924 0.7055703 0.64998597 
-0.43899655 0.38597366 0.8113609 
-0.3608251 -0.2107867 0.90850115 
0.3731871 -0.4022667 0.8360101 
-0.27703843 0.28366736 0.918032 
0.08423184 -0.44567335 0.891224 
0.301341 0.35087886 0.88661015 
0.6441892 0.5938297 0.48206502 
0.49268457 0.26690075 0.8282669 
0.21711276 0.007988151 0.97611386 
0.019923082 0.36325812 0.9314756 
-0.39447916 0.4359635 0.80890185 
-0.41283688 0.0132869 0.91070807 
-0.7045662 -0.0030324324 0.70963186 
0.12294145 -0.5990573 0.79121155 
0.18308851 -0.6964184 0.6938876 
-0.02890235 -0.9994285 0.017531428 
0.8230207 -0.27522153 0.4968805 
0.038590178 -0.016016636 0.99912673 
-0.16764781 0.47383168 0.8645101 
0.2994154 -0.10332473 0.9485117 
0.554875 0.28058428 0.7831899 
0.97971994 -0.061440162 0.19072004 
0.44803753 -0.06369929 0.8917426 
0.64318526 0.48117444 0.5956375 
0.602655 0.23895697 0.7613846 
-0.31486425 -0.12392096 0.9410124 
-0.31919882 0.16156566 0.93381405 
0.24080727 0.04344561 0.9696001 
0.20791039 0.27484012 0.9387418 
0.04489461 0.44270438 0.89554304 
0.33563846 0.6902575 0.6410082 
0.57780606 0.59641147 0.55716574 
0.60228324 0.4970903 0.6246248 
-0.4549341 0.34027022 0.8229528 
-0.8527565 -0.075694546 0.51679486 
-0.4553149 0.33219182 0.8260369 
0.5402451 -0.071562186 0.83845943 
0.12427828 0.60163987 0.78904015 
0.40255693 -0.40638328 0.8202443 
0.03416401 0.08410354 0.99587125 
-0.13226752 -0.2657913 0.9549138 
0.36811277 0.18351121 0.91149145 
-0.26261863 0.45108917 0.85296553 
0.30648148 0.26173836 0.91518426 
-0.45309988 0.5462933 0.70446026 
-0.44646215 0.8566617 0.25846142 
0.72140616 0.678589 0.13816714 
0.20342569 0.25162622 0.9462042 
0.2763625 0.94299597 0.18542464 
-0.14920984 0.9873958 0.052782178 
0.39447674 0.48726147 0.7790792 
-0.4152573 0.58402723 0.6974766 
-0.22030517 0.8726545 0.43582067 
0.3214079 0.94598156 0.042613577 
0.403709 0.7874444 0.46577924 
0.16115618 0.87388545 0.4586425 
-0.24845551 0.007427169 0.9686149 
-0.6906373 -0.06969519 0.7198352 
-0.4762239 0.8177651 0.32321993 
-0.3474324 0.937107 -0.033486668 
-0.1527763 0.98515546 -0.078283206 
-0.2472695 0.7587679 -0.602602 
-0.35861802 0.8769585 -0.31990173 
0.10455763 0.86723256 -0.48680133 
0.9318414 0.31514755 0.17987171 
0.013220444 0.9244233 0.381139 
0.5719464 0.61293703 0.5451473 
0.15903386 0.7878698 0.59495336 
-0.61368364 0.34724998 0.70909095 
-0.1861547 0.9790319 0.08272255 
-0.31212327 0.5824769 0.7505329 
-0.361079 0.6812121 0.6368454 
0.08386676 0.9937186 -0.07409197 
0.23508957 0.9063174 0.35117185 
0.65286297 0.6151785 0.44195643 
0.6224972 0.39400882 0.6762059 
-0.0024866622 0.59075385 0.8068481 
-0.6454625 0.33759803 0.6851319 
-0.17370437 0.7495215 0.6387836 
0.047315776 0.99572957 -0.079271466 
-0.10003434 0.9168323 -0.38653815 
0.09735971 0.9350843 0.3407911 
0.29202017 0.94953454 -0.11449236 
0.009286544 0.6604113 -0.7508467 
0.29962298 0.59968334 0.74202836 
0.12056116 0.85505146 0.5043333 
-0.07124949 0.53627765 0.84102905 
-0.07113225 0.40433344 0.9118414 
-0.36738205 0.5798922 0.7271558 
-0.5110435 0.066595264 0.85697126 
0.23700836 0.3828139 0.8929057 
-0.430445 0.8574564 0.28193203 
-0.47508973 0.23815955 0.8470949 
-0.46045223 0.7064804 0.5374656 
-0.1896949 0.8234808 0.5346919 
-0.06100148 0.1727109 0.98308176 
-0.20467322 -0.42709118 0.8807395 
-0.2595314 0.67072374 0.6948188 
0.32479143 0.47489387 0.817916 
0.38122365 0.42373294 0.8216563 
0.3614386 -0.06962734 0.9297926 
-0.51299775 -0.5027023 0.69579005 
-0.013160456 0.7356406 0.67724425 
-0.10719294 0.10408396 0.98877513 
0.60703444 -0.30560043 0.733565 
0.55148745 -0.22215499 0.8040578 
-0.5743438 -0.46586892 0.67312366 
-0.54311526 -0.3705458 0.75347316 
0.27379063 -0.3315684 0.9028295 
-0.7639217 -0.119019665 0.6342382 
-0.24239966 0.31374434 0.9180452 
-0.53521246 -0.040437896 0.84374905 
0.28980306 0.3793893 0.87867963 
0.14536911 -0.11934777 0.98215276 
0.47374928 -0.5014491 0.72395474 
-0.063876174 -0.40988046 0.90989995 
0.258342 -0.57339585 0.7774809 
0.14018038 0.159914 0.9771269 
0.056732032 0.05282462 0.99699104 
-0.2339063 -0.096339345 0.9674744 
-0.46542805 -0.44496122 0.7651055 
-0.36101958 -0.61047995 0.7049675 
0.02363286 -0.5153344 0.85666335 
0.41437656 0.58069694 0.70077336 
0.6225327 -0.09746515 0.7765009 
0.4216566 0.37718058 0.8245851 
0.23330224 0.14267111 0.96188104 
0.246777 0.1366155 0.9593943 
-0.08463663 -0.68666 0.72203517 
-0.24818298 -0.943445 0.21981071 
0.4755585 -0.42766905 0.7687283 
0.6304284 0.019313531 0.77600724 
0.27329028 -0.77254534 0.57313704 
0.5044323 -0.70959425 0.49195948 
0.449611 -0.7148129 0.5356236 
0.51103723 0.71398944 0.47860223 
-0.114738226 -0.059427094 0.99161667 
0.11755044 -0.32322973 0.93899125 
0.74996877 -0.4301852 0.5024815 
0.32622665 0.1520149 0.9329885 
0.49840796 -0.3007179 0.8131165 
0.33950993 -0.09534015 0.9357581 
0.9026823 0.32566154 0.28126392 
0.26239038 0.028317213 0.96454626 
0.70351416 -0.6015186 0.37847507 
-0.16187376 -0.09881254 0.9818519 
0.38122147 0.3218948 0.8666338 
0.03908136 0.014072267 0.999137 
0.26440978 -0.48390573 0.8342199 
0.11494873 0.032834094 0.9928287 
0.1881848 -0.80501395 0.562618 
0.09864906 -0.36036095 0.92758197 
0.6401822 -0.48590374 0.5950331 
0.42763323 -0.12514138 0.89524823 
-0.18374483 -0.6100456 0.77076733 
0.69182956 0.13829568 0.7086934 
0.52219474 0.0954243 0.84747094 
-0.038291253 0.22280815 0.97411 
-0.1869107 0.2879565 0.93922603 
-0.19537157 0.21471426 0.9569367 
-0.09383595 -0.28458652 0.95404685 
-0.0580489 0.23824976 0.9694676 
0.07636456 0.020036763 0.9968786 
0.012544578 -0.48279268 0.87564486 
-0.08145632 -0.71833473 0.6909126 
0.64643914 0.06015078 0.76059085 
0.42208838 0.5821903 0.69490725 
-0.01766705 0.41422552 0.9100028 
-0.079940565 0.3000985 0.95055276 
0.5377034 0.23914298 0.80850846 
0.16269808 0.4608702 0.8724266 
-0.20875661 0.6890584 0.69398797 
0.5784051 0.68758696 0.43894395 
-0.55566734 0.105455905 0.82468957 
-0.062261242 0.23378477 0.9702929 
0.6584536 0.5866313 0.47148985 
0.2102458 0.9467541 0.24383096 
0.22311683 0.6999679 0.67842746 
0.17068477 0.75289136 0.6356267 
-0.652537 0.3292117 0.6825066 
-0.59180963 0.35727385 0.72257656 
-0.0035091366 0.7748755 0.6321041 
-0.28944823 0.14315723 0.94642794 
-0.43455285 0.014886473 0.9005234 
-0.27584174 -0.020286217 0.96098906 
0.5872486 -0.096053 0.80368716 
0.65768397 0.031465128 0.7526365 
0.039829724 0.08462762 0.99561626 
0.2892073 0.3490729 0.8913514 
-0.18239222 0.6513523 0.7365279 
0.26456195 0.7185066 0.64323825 
-0.3051423 0.79730445 0.52076274 
-0.462843 -0.078202255 0.882984 
-0.61030185 0.09672672 0.7862415 
0.037185874 0.97881037 0.20136444 
0.27781567 0.6953242 0.66282934 
0.6881136 0.6803655 0.2521956 
0.048606843 0.99824154 -0.03392912 
0.26598826 0.5460529 0.7944032 
-0.24594109 0.79205084 0.55872035 
0.29856372 0.78325796 0.5453134 
-0.4222154 0.6854932 0.5931555 
0.3460605 0.8091858 0.47482687 
0.11776466 -0.26673034 0.9565492 
0.45645165 -0.093120135 0.88486195 
0.010584651 0.07736359 0.99694675 
-0.33246642 0.5623718 0.75710243 
0.46256906 0.75072205 0.47164217 
-0.07393242 0.42127994 0.90391225 
-0.03673709 0.6660597 0.74499327 
0.69751394 0.37893456 0.60818 
0.63177603 0.0007161901 0.7751507 
0.46643618 0.4961503 0.73230606 
0.012833613 0.1368731 0.99050546 
-0.4177484 0.29854554 0.85811234 
-0.45669314 0.2936769 0.83975303 
-0.40586454 0.15851082 0.9000824 
-0.2533213 0.62532306 0.73810536 
0.020045705 0.33559167 0.94179434 
0.22351545 0.55856895 0.7987751 
0.0812458 0.71761054 0.69168943 
-0.48950884 -0.15557395 0.8580081 
-0.00062103156 0.71458614 0.6995473 
-0.40139025 0.5438096 0.7369919 
0.09986207 0.5999254 0.7937992 
-0.17825727 0.27465883 0.944874 
0.2713706 0.8101697 0.5195991 
-0.045381203 0.8881536 0.45730057 
0.29519767 -0.1804979 0.9382318 
0.29160073 0.47781914 0.8286482 