# OOMMF: rectangular mesh v1.0
# Segment count: 1
# Begin: Segment
# Begin: Header
# Desc: Time (s) :  1.0300000000000001e-07
# Title: m
# meshtype: rectangular
# meshunit: m
# xbase: 2e-09
# ybase: 2e-09
# zbase: 5e-10
# xstepsize: 4e-09
# ystepsize: 4e-09
# zstepsize: 1e-09
# xmin: 0
# ymin: 0
# zmin: 0
# xmax: 1.024e-06
# ymax: 1.024e-06
# zmax: 1e-09
# xnodes: 256
# ynodes: 256
# znodes: 1
# ValueRangeMinMag: 1e-08
# ValueRangeMaxMag: 1
# valueunit: 
# valuemultiplier: 1
# End: Header
# Begin: Data Text
0.8425751 0.20033327 0.4999339 
0.39899382 0.5259768 0.75110084 
0.25270113 -0.21258017 0.94390243 
0.462822 0.13340011 0.87635624 
-0.110130936 0.61364174 0.7818664 
-0.5027998 -0.02973921 0.8638912 
-0.33341882 0.4852632 0.80830175 
-0.5497213 0.63233936 0.54585123 
-0.56008637 0.54519016 0.6237555 
0.1343914 0.8751899 0.46473813 
0.18189852 0.6123656 0.7693642 
0.07495286 0.10833881 0.9912845 
-0.68523395 0.33259508 0.6479468 
0.05277309 0.4136607 0.9089004 
-0.10652229 0.67707837 0.7281607 
-0.07486428 0.9411202 0.3296788 
0.07812629 0.5640094 0.8220643 
0.22255412 0.40713316 0.8858399 
0.51188916 0.2374743 0.8255758 
-0.24209866 -0.15713131 0.9574435 
-0.90050817 -0.252475 0.35403585 
-0.89950514 -0.37476644 0.22459008 
-0.48792103 -0.042202212 0.8718671 
-0.2980878 0.17889911 0.93762404 
-0.48207915 0.29267186 0.82579833 
-0.6319497 0.5558917 0.5400223 
-0.24406949 0.068372495 0.96734446 
0.0018262264 0.406582 0.9136125 
-0.11542831 0.24340554 0.9630317 
-0.798247 0.27411175 0.5363438 
-0.84406155 0.4384157 0.30879113 
-0.4284497 0.88546646 -0.17994459 
-0.35805264 0.8954975 -0.2643529 
-0.78335136 0.39943084 -0.47625166 
-0.69908565 0.6631694 0.26736802 
0.4004884 0.60996366 0.6837788 
-0.051545944 0.6455977 0.7619361 
-0.60501635 0.77756333 -0.17132029 
-0.027489282 0.99959797 -0.006955765 
0.7048547 0.7069023 0.058898125 
0.39866212 0.33240053 0.8547388 
-0.06561572 0.070751585 0.9953336 
0.011421524 -0.6046806 0.7963861 
0.9187122 -0.11813284 0.3768455 
0.11484281 0.51378417 0.8501982 
0.06253859 0.97120595 0.229887 
-0.42216033 0.8904446 0.1699683 
0.53628033 0.72666925 -0.4293661 
0.8067128 0.34608367 0.47899976 
0.09459252 0.7496556 -0.6550334 
-0.4442618 0.70986825 -0.5465515 
0.34095773 0.47366953 0.8120253 
0.3808202 0.49534512 0.78077483 
0.7522708 0.4685664 0.4631786 
0.37835094 0.17619501 0.90873873 
0.40222958 0.13677786 0.90526414 
0.055711027 0.28379178 0.9572662 
0.84042627 -0.055970762 0.53902775 
0.6204011 0.37363046 0.68956715 
0.14987317 0.659187 0.7368926 
-0.32631975 0.8096283 0.48787048 
-0.10079059 0.8384649 0.53555393 
0.28299826 0.92845756 0.24057972 
0.1564109 0.5860188 0.7950583 
0.36923233 -0.17578505 0.91256076 
-0.5652699 0.13889149 0.8131293 
-0.27649817 -0.5227426 0.806405 
-0.914721 0.37046903 -0.16136372 
-0.75047815 0.65400654 -0.09517343 
-0.864621 0.34344876 0.3667062 
0.038462445 -0.08967952 0.99522775 
0.5799298 -0.24013242 0.77847147 
0.4915295 0.16799968 0.8545028 
-0.16388471 0.8272877 0.53734267 
-0.098601155 0.38858083 0.91612375 
-0.8065679 0.55216867 0.21108764 
0.114566475 0.99126935 0.065266 
0.066885866 0.98152703 0.17925155 
0.57660973 0.46972638 0.66848963 
0.25772625 0.9572779 0.13113464 
-0.08911875 0.99046296 0.1050763 
-0.51610005 0.853729 -0.06919202 
-0.17479537 0.08003808 0.98134625 
-0.40745255 -0.23996694 0.88113475 
-0.6375074 0.68082714 -0.36063677 
-0.7141517 0.5514067 -0.43120542 
0.14150392 0.7482655 -0.64813226 
0.7100196 0.4279286 0.55924 
0.7181042 0.6957753 -0.014942463 
0.49499753 0.7584655 0.4239195 
0.6988611 0.5278216 0.48269832 
0.95041186 0.2694498 0.15528774 
0.9963942 0.011714988 0.08403188 
0.8698442 0.42920205 0.24322155 
0.69745123 0.50505054 0.5084149 
0.4820556 0.66001195 0.5762003 
0.2533858 0.9673574 -0.003920607 
0.037390452 0.9087845 -0.41558734 
0.5256841 0.8504198 -0.021030482 
0.790503 0.54652864 0.2764263 
0.4429826 0.35923067 0.8214134 
0.0014422891 0.05075373 0.99871016 
-0.22269091 0.092526704 0.97048837 
-0.21002077 -0.0055756085 0.97768104 
-0.46533367 0.704945 0.5352729 
-0.3854994 0.42553133 0.8187267 
-0.6550042 0.31942728 0.6847889 
-0.9012084 0.43334407 0.006044416 
-0.52462363 -0.84793884 0.07595877 
-0.8725437 -0.1726002 0.45703027 
-0.74790955 0.6593966 0.0763376 
-0.32246873 -0.06198795 -0.9445483 
0.07737146 0.17350486 -0.98178905 
0.29002452 0.32650712 -0.8995993 
0.5587893 -0.36592805 -0.7442118 
0.5784079 0.63814527 -0.5081486 
0.7981216 0.26882243 0.5392 
0.7584238 0.6436 0.10282257 
-0.25806543 0.92338353 -0.28419226 
0.106786825 0.7256147 0.67976457 
0.47887933 0.73782134 -0.4757041 
0.13239318 0.37396652 0.917944 
0.118006885 0.660948 0.7410953 
-0.57851666 0.7681839 0.27424836 
-0.9609962 0.10852887 0.2543774 
-0.97432166 0.16995502 0.14769134 
-0.09485188 0.14147402 0.98538744 
0.67913765 0.52038527 0.5176595 
0.31413734 0.93416405 0.16927892 
0.2611251 0.77917665 0.5698224 
-0.1647706 0.5669106 0.8071326 
-0.07683613 0.9443246 0.31991777 
0.25216496 0.838644 -0.4827931 
0.31018898 0.930054 0.19693238 
0.69347394 0.70356065 0.15522991 
0.030448824 0.75786495 0.6517005 
-0.7848861 0.61950415 -0.012975623 
-0.46188846 0.86574817 0.19271584 
-0.35882458 0.91659075 0.17637046 
-0.15760478 0.87061876 0.46602982 
0.7605591 0.5498195 0.3453235 
0.22697066 0.38122553 0.8961871 
0.32110298 0.35625115 0.87748396 
0.24284784 0.80269396 0.5447087 
-0.950604 0.19958696 0.23773347 
-0.49793205 0.85615116 -0.13808984 
-0.043052595 0.3546985 0.933989 
0.101771906 0.75712925 0.64528906 
0.4976726 0.16793607 0.8509522 
0.26094326 0.58421534 0.7685058 
0.23702098 0.92522365 -0.29628098 
-0.29682297 0.94863796 -0.1094641 
-0.12323237 0.986948 -0.103670776 
0.24902323 0.9414303 0.22736834 
0.19074072 0.882927 0.42901978 
-0.21665263 0.93690765 0.27434617 
-0.46219394 0.805251 0.37141293 
-0.4195955 0.56807023 0.7079801 
-0.57951534 0.41251758 0.70284516 
-0.35452408 0.04535127 0.9339465 
-0.36019722 0.38374612 0.85029227 
-0.5498577 0.4930428 0.6742147 
-0.9052772 0.2159869 0.3658182 
-0.7455272 0.45114553 0.49056798 
-0.8530469 -0.40438682 0.32982183 
-0.3065129 0.81472063 -0.49221972 
-0.79317206 0.6032372 0.08356403 
-0.8984292 0.3827973 0.21515377 
-0.19018343 0.3515693 0.9166403 
-0.106073 0.6068334 0.78771937 
-0.4409069 0.72276276 0.53217965 
-0.48864406 0.85258234 -0.18528487 
-0.48002204 0.6023268 0.6377941 
-0.12912078 0.58531624 0.80045795 
-0.18569918 0.6341035 0.75061893 
0.20986526 0.45992914 0.8627988 
0.3958253 0.10362543 0.9124605 
-0.30338404 0.6428824 0.70332104 
0.27085578 0.95106316 -0.14871484 
0.028422281 0.9772709 0.21008039 
-0.20412521 0.96766675 0.14816861 
0.2596232 0.7562176 0.6006087 
0.37365258 0.90667576 0.1957626 
0.08532539 0.9673902 0.23848645 
-0.31058282 0.6604497 0.6836261 
-0.30691367 0.85187024 0.42440677 
-0.60943496 0.64604765 0.45957753 
-0.47044894 0.6576277 0.58839065 
-0.44594297 0.6608115 0.6037078 
-0.89566267 -0.34691313 0.27827996 
-0.51248777 0.7947402 -0.32518348 
-0.58094805 0.8129502 -0.040143177 
-0.66838473 0.666841 -0.32952243 
0.0342084 -0.034964453 -0.998803 
-0.11283101 -0.023618028 -0.99333346 
0.37305763 0.20448552 -0.90499383 
0.7311297 0.5357683 0.42237633 
0.23222956 0.65033233 0.72328234 
0.1682854 0.95508516 0.24391092 
-0.09142652 0.49700728 0.8629166 
0.13454811 0.6318315 0.7633387 
0.040998958 0.819586 -0.5714874 
-0.017242797 0.8865101 0.46238795 
-0.61889094 0.78484064 0.031609055 
-0.3741256 0.89755934 0.23327541 
-0.50796956 0.78833014 0.3471347 
0.26673535 0.58900595 0.7628396 
-0.40890315 0.14190407 0.9014774 
-0.39527142 0.5683644 0.721611 
0.045205187 -0.4903764 0.8703376 
-0.40669912 0.015714692 0.9134271 
-0.3943973 0.31025755 0.8649804 
-0.113654785 0.6376965 0.76185685 
-0.34439534 0.84165025 0.41595283 
-0.52169967 0.7281952 0.44447872 
0.35586902 0.74671626 0.56193614 
-0.4553012 0.8044262 0.3815747 
-0.48950246 0.7517836 -0.44182464 
-0.05532427 0.97251624 0.22616702 
-0.31840327 0.947077 0.040799785 
0.018480776 0.9732197 -0.22913307 
-0.12127738 0.7585721 0.6402033 
0.36201742 0.89824235 -0.24920681 
-0.20394892 0.7069439 -0.67722607 
0.46547544 0.88283134 -0.06278073 
-0.10905727 0.30443606 0.9462691 
-0.47341794 0.33580646 0.81431544 
-0.0832802 0.48995024 0.8677633 
-0.893937 -0.22365932 -0.3883981 
-0.47951418 0.8594189 -0.1773847 
0.47055924 0.8461785 -0.2501122 
0.851417 0.5203504 -0.06576214 
0.21570973 0.6935918 0.6873135 
-0.88883543 0.31930223 0.3286607 
-0.80153024 0.4906017 0.34184706 
-0.6791521 0.50724745 0.5305211 
-0.41222447 0.85925096 -0.3029173 
-0.55036163 0.82356495 0.13726951 
-0.6976992 0.21350226 0.6838368 
-0.65484905 -0.055590525 0.7537125 
-0.7898843 -0.190379 0.58295673 
-0.74008554 -0.0388327 0.67139065 
-0.57007366 0.8215118 -0.011592769 
-0.38717055 0.1529518 0.9092331 
-0.104648605 0.6272864 0.7717258 
-0.6753412 0.72929883 0.10971553 
-0.45689887 0.8303839 0.318914 
-0.09395813 0.85511386 0.50985515 
-0.15054086 0.9814529 0.118691705 
-0.09372232 0.30948815 0.9462733 
-0.3086479 0.9353087 0.17301513 
-0.78065556 0.6083939 0.14294682 
0.06519879 0.96275413 -0.26239976 
0.75572693 0.5395931 -0.37110138 
0.8073281 0.58736676 0.056759544 
0.44497094 0.78855306 0.42448226 
0.14701709 -0.1426437 0.9787946 
0.22253586 0.50089175 0.8364121 
-0.22516955 -0.57854396 0.78395516 
-0.25671896 -0.15896514 0.9533234 
-0.3499552 -0.60081077 0.71871966 
-0.43773803 -0.16153799 0.8844722 
-0.5652285 -0.08327111 0.8207209 
-0.035532743 0.15105852 0.9878861 
-0.3186689 0.12894604 0.9390544 
-0.25201336 0.2706028 0.92911977 
-0.4069404 0.25732306 0.87646127 
-0.24369635 0.27865455 0.9289585 
0.2738048 0.15816271 0.94869155 
-0.2995548 0.32573763 0.89675087 
-0.6808002 0.49991974 0.5353424 
-0.37888664 0.31053403 0.87178755 
-0.7365491 0.30774024 0.60232174 
-0.47090414 0.08370263 0.8782045 
-0.19143324 0.38818154 0.9014813 
-0.01677118 -0.3584116 0.933413 
-0.15465268 0.22930928 0.96098894 
-0.36483383 -0.22179177 0.9042703 
-0.03200352 0.22419126 0.9740195 
-0.1932027 0.8825111 0.4287739 
-0.20273212 0.9488338 0.2421033 
-0.2711682 0.76593965 0.5829275 
-0.11059101 0.13487926 0.9846712 
0.040357478 -0.7272816 0.6851517 
0.27758607 -0.40241313 0.8723587 
-0.6290875 0.20597872 0.74954766 
-0.86037314 0.14156224 0.4896102 
-0.92357165 0.31391382 0.22016735 
-0.53191733 0.38920218 -0.75205433 
0.19682455 0.8468932 0.493996 
-0.74306506 0.6076762 0.28032842 
0.06285361 0.69941014 0.71195155 
0.011751202 0.6347204 0.7726525 
-0.819941 0.5032887 0.2727586 
-0.48232794 0.73360425 -0.47873238 
0.34162924 0.7354641 -0.5851343 
0.7991432 0.5978037 0.063253 
0.26803416 0.058041945 0.96165943 
0.08669632 -0.54128945 0.836355 
0.22193001 -0.18073703 0.9581655 
0.28005612 0.34771374 0.89479816 
0.6068531 0.17085545 0.77623314 
0.20231093 0.40432855 0.89195776 
0.14246131 0.8903373 0.43243998 
-0.02046195 0.7893836 0.6135592 
0.0417163 0.77387536 -0.6319625 
0.5245256 0.7985408 -0.29530603 
0.39413068 0.5811251 0.7120076 
0.10985122 0.9874572 0.11340704 
-0.22087412 0.76651794 0.60304636 
0.55064535 0.5220514 0.6513464 
0.40227693 0.32138637 0.85725385 
0.1434933 -0.30229703 0.9423514 
0.6319437 0.14185084 0.7619223 
0.11971275 0.076554015 0.9898527 
0.21575655 0.3127539 0.925005 
0.45744807 0.4569042 0.7628761 
0.044958413 0.47044823 0.8812816 
-0.3456829 0.31923917 0.8823774 
0.3232738 -0.047027774 0.94513625 
0.32559872 -0.35425895 0.8766334 
-0.23248968 0.039977387 0.97177696 
-0.29369944 -0.14816055 0.9443459 
-0.91807586 0.38622877 0.089241266 
-0.86876273 0.49384713 0.036963098 
-0.5892059 0.7491396 0.30269852 
-0.23451942 0.030877413 0.971621 
-0.47086102 -0.7274247 0.49914262 
-0.26757154 0.22014305 0.9380526 
-0.23326766 0.6785142 0.69656634 
-0.61018085 0.3405857 0.7153186 
-0.5769764 0.5747062 -0.5803542 
-0.09362434 0.89168745 0.44286335 
0.28127292 0.3018261 0.9109262 
-0.08281332 0.6706958 0.7370951 
-0.48393407 0.8632292 0.1436776 
-0.46268022 0.80145633 -0.3789391 
-0.1747573 0.67615867 -0.71573 
0.18429618 0.87829834 0.44116554 
-0.10140291 0.27382842 0.95641804 
-0.9044641 0.39531678 -0.16021672 
-0.41321233 0.003673926 -0.9106273 
0.39992356 0.8153389 -0.4186689 
0.9635673 0.17922455 0.19853607 
0.80671996 0.2489587 0.5359316 
0.6726693 0.67684567 0.29899162 
0.46897745 0.71901363 0.5129129 
0.45441896 0.595501 0.66248167 
0.98075217 0.19148971 0.038168307 
0.8280789 0.552107 0.097279325 
0.7054016 0.41813758 0.572337 
0.5082238 0.5791499 0.63741195 
0.19568416 0.4570008 0.867674 
-0.13351947 0.21311574 0.96786076 
0.24936564 0.69018215 0.6793125 
0.31723416 0.42474148 0.8479134 
0.6889365 0.033002384 0.7240701 
0.5198571 -0.33391294 0.78628916 
-0.34642342 0.3208625 0.8814976 
-0.3547878 0.2831854 0.8910285 
0.17417824 0.57829505 0.79701746 
-0.12780035 0.54613423 0.82789165 
-0.36052236 0.7770752 0.5159242 
-0.3548044 0.55734295 0.7506548 
-0.6896506 0.28479108 0.6657899 
-0.7413413 0.6205903 0.2555011 
-0.9213023 0.33564186 -0.19633293 
-0.6368873 0.10760894 -0.76341003 
0.27560812 0.44039917 -0.8544524 
0.06612035 0.74605656 -0.66259176 
-0.30034903 0.60460514 -0.7377284 
-0.40004125 0.8764359 -0.26800594 
0.20028855 0.864782 0.46047422 
0.041043803 0.45401925 0.89004606 
0.44132406 0.83861274 0.31931466 
0.54648775 0.6492484 0.5289874 
0.050493594 0.8807225 0.47093344 
0.13664356 0.7402565 0.65829253 
0.050962947 0.2488582 0.9671983 
-0.13591723 -0.027796196 0.9903303 
-0.8554119 -0.12922259 0.5015695 
0.012882508 0.97491336 0.22221202 
0.377769 0.70905674 0.5954236 
0.26695886 0.4985284 0.824744 
0.3606184 0.8508914 0.38201863 
0.0043358975 0.94463015 0.32810855 
-0.031222718 0.8564073 0.515356 
0.5449936 0.7119641 0.44281957 
0.45474556 0.89031595 0.023323352 
0.9013194 0.42320034 0.09233033 
0.33153126 0.16498762 0.92890596 
0.50263864 0.43051136 0.7496762 
0.03894531 0.94123304 0.33550525 
-0.46065855 0.5849051 0.6675925 
-0.048095856 0.8160703 0.575948 
0.5909476 0.2636013 0.7624273 
0.8360624 0.21468355 0.50488675 
0.43396074 -0.49689817 0.75151193 
0.66797906 0.0978517 0.7377189 
0.29173693 0.12808357 0.9478841 
-0.2791467 0.7446978 0.60621977 
0.3136442 0.6986689 0.6430313 
0.202937 0.28211313 0.937672 
-0.1463394 0.45628843 0.8777161 
0.69600034 0.2535247 0.6717952 
0.081020236 0.5156094 0.8529846 
-0.12785175 0.8345847 0.53583795 
-0.3186626 0.3864325 0.8655196 
-0.1850583 0.671075 0.71792185 
-0.102701895 0.9909831 0.086050734 
0.72253 0.68183213 -0.11426009 
-0.14396925 0.6273452 0.76531756 
0.08818281 0.21131463 0.9734321 
-0.25766096 0.29376817 0.92049503 
-0.5768961 0.23471099 0.78236926 
0.029339002 0.51238513 0.8582545 
-0.5060181 0.12629536 0.85322636 
-0.74396706 0.181645 0.64305377 
-0.5891982 -0.19712111 0.7835745 
-0.83932394 0.17315249 0.5153189 
-0.78360814 0.10461156 0.6123846 
-0.20296575 0.85176164 0.4830187 
-0.092567004 0.6547687 0.7501396 
-0.5079693 0.12186628 0.85271084 
-0.7976758 0.19765353 0.5697775 
0.043502666 0.62695616 0.77783906 
-0.23959123 0.89027333 0.3873106 
0.1431863 0.93404645 0.3271927 
-0.19661137 0.5509132 0.8110726 
-0.5068218 -0.026263427 0.8616507 
0.26195624 0.75830996 0.5969463 
-0.12830827 0.8007343 0.5851168 
-0.17311144 0.33019304 0.9279036 
-0.02460321 0.44885707 0.8932649 
0.051862083 0.90660316 0.41878545 
-0.42813152 0.7243354 0.5404088 
0.09987168 0.5104538 0.85408574 
0.30563697 0.6361997 0.7084039 
-0.69537735 0.7092141 0.11604189 
0.1460065 0.9572889 0.24955972 
-0.5282929 0.3795486 0.7595061 
-0.19178313 0.032895062 0.9808859 
-0.45961422 0.25887856 0.84955096 
-0.5955487 0.68171895 0.42494836 
-0.49491033 0.8065839 0.3232433 
-0.41000018 0.8774312 0.24902691 
0.11392079 0.9596229 0.25718847 
0.021696396 0.9726276 0.23135465 
0.0455055 0.9814559 0.1862086 
-0.24528381 0.90277946 -0.35330603 
0.23299563 0.12685733 -0.96416825 
0.8900574 0.4429831 -0.107535765 
0.65349644 0.75591576 -0.039164204 
0.5347435 0.5660632 0.627393 
0.40970522 0.6594785 0.63026166 
-0.33198428 0.65247047 0.68122596 
-0.48019126 0.55196077 0.6817299 
-0.08022833 0.52944165 0.84454423 
0.252327 0.9337129 0.2539909 
-0.27152586 0.94626117 -0.17568052 
-0.39352664 0.6079234 0.689613 
-0.16371171 0.80569875 0.56925213 
0.02960693 0.9780891 0.2060709 
-0.1329187 0.29125577 0.9473662 
0.10177313 0.19001123 0.97649276 
0.5097595 0.69316846 0.5095712 
0.3602024 0.1999081 0.91120315 
-0.07285132 0.039801635 0.99654835 
-0.3227475 0.021688784 0.9462366 
-0.5588922 -0.021446558 0.828963 
-0.46630192 0.783477 0.41076303 
0.023885353 0.5985903 0.80069923 
0.15160066 0.98569894 0.07358619 
-0.5388853 0.84163016 0.03551752 
-0.512792 0.842013 0.16750659 
0.0036847563 0.7500459 0.6613755 
0.56349605 0.8261031 0.005090391 
-0.16261666 0.8838945 0.43850473 
0.057807162 0.61873126 0.78347313 
0.29907042 0.09153965 0.94983023 
-0.039081655 0.41643378 0.9083258 
-0.5702177 0.39567792 0.71992415 
-0.2073117 0.26080266 0.94287 
0.021885555 0.6468857 0.76227283 
-0.3213087 0.945888 -0.045350175 
-0.34314978 0.9391833 0.013529589 
-0.4482568 0.86230093 0.23559074 
0.23442082 0.87522215 0.42312285 
-0.5566487 0.50766325 0.65758675 
0.15158129 -0.23340505 0.9604922 
-0.7822618 0.395725 0.4811115 
-0.67672056 0.67180437 0.3012114 
0.29951346 0.7323246 0.6115492 
-0.26885656 0.86984885 0.41361737 
-0.40665522 0.9020623 0.1446206 
-0.36375287 0.8124329 0.45567176 
-0.68316543 -0.04419473 0.7289251 
-0.8833114 0.45982978 0.09120139 
-0.076180875 0.5712641 0.8172233 
0.15160218 -0.23275748 0.960646 
0.1511209 0.023646303 0.98823243 
-0.35089263 0.8351091 0.42363554 
-0.46633783 0.59242576 0.65693295 
0.067927666 0.966526 0.24741347 
0.18153952 0.9233469 0.3383401 
0.06886764 0.33184814 0.9408156 
-0.11248093 0.8013302 0.58755255 
0.031321142 0.25226617 0.96715087 
0.09454849 0.83420944 0.54328185 
0.50378126 0.4821406 0.71676 
0.59372056 0.7537573 -0.28168413 
0.6698154 0.32945868 0.6654355 
0.71810466 0.66333205 0.21051477 
0.40223187 0.36564377 0.8393534 
0.5042347 0.12356853 0.8546802 
0.056401186 -0.6173218 0.7846864 
0.2378577 -0.7157365 0.6566163 
0.54303205 -0.5052407 0.6707072 
-0.10806083 0.22343999 0.9687092 
-0.4887038 -0.557905 0.67075384 
-0.35129094 -0.14521486 0.9249365 
0.2453808 0.39318246 0.8861128 
-0.08780192 0.46727335 0.87974226 
-0.21820453 0.70433503 0.675499 
0.012915013 0.07799858 0.9968698 
0.025882436 0.30599314 0.95168185 
-0.20464312 0.31802014 0.9257345 
0.21566916 -0.04051869 0.9756255 
0.29045513 0.48351023 0.8257444 
0.025979353 -0.16407788 0.9861053 
-0.4220539 -0.15228045 0.8936897 
0.36385044 -0.75165105 0.5501216 
0.71929014 -0.35850483 0.5950597 
-0.16830906 0.017546443 0.9855781 
-0.7087171 0.40545514 0.5773442 
-0.20759958 0.9448929 0.2531402 
-0.21370709 0.66951185 0.7113953 
-0.25512707 0.4461355 0.8578307 
-0.36353812 -0.37590116 0.85237217 
-0.055983357 -0.92263854 0.38158083 
-0.1785166 -0.8554907 0.4860736 
-0.075431116 -0.16942386 0.9826524 
-0.9530612 -0.11559044 0.27984518 
-0.85358405 -0.042755198 0.5191977 
-0.8594122 0.0869613 0.5038337 
0.026471056 0.72999763 0.6829369 
-0.34558323 0.9345765 -0.08449312 
-0.88185126 0.45002103 0.1407824 
-0.5479683 0.09360311 0.8312456 
-0.70096725 0.41127804 0.5826622 
-0.10555889 0.9359403 -0.33596587 
-0.014576041 0.99236 -0.12251187 
0.7795123 0.606049 -0.15832055 
0.9482418 -0.07107313 0.30949366 
0.54955673 -0.062258676 0.83313346 
0.5390748 -0.1687629 0.8251774 
0.92390317 -0.11633017 0.36451387 
0.9012762 -0.03234389 0.4320361 
-0.11006321 0.2913669 0.9502587 
0.4891491 0.42862225 0.75961584 
-0.44129863 0.14346749 0.88581747 
-0.041612234 0.83930504 -0.542066 
0.16948415 0.73677534 -0.65455115 
0.43832582 0.50883824 0.7409144 
0.6785528 0.11471761 0.72553843 
-0.039517757 0.23968813 0.9700453 
0.3123213 0.6934939 0.649247 
0.83054525 0.28134912 0.48066342 
0.8832527 -0.036955107 0.46743888 
-0.05500984 0.4572966 0.8876112 
-0.12735662 -0.35572627 0.9258721 
0.17208174 0.33777153 0.9253639 
-0.14800693 -0.2524018 0.956236 
-0.08526116 -0.08512374 0.9927158 
-0.7525532 0.1700258 0.6362035 
0.026910337 0.082007356 0.9962684 
0.040002294 0.033528067 0.9986369 
-0.21360318 -0.0975128 0.9720417 
-0.05758507 0.13456832 0.9892297 
-0.36177313 0.19596101 0.9114382 
-0.7871776 0.4166716 0.4546825 
-0.81787294 0.18033378 0.54640967 
-0.042155396 0.5482934 0.8352229 
-0.07067528 -0.1454608 0.9868365 
-0.030118745 0.2775835 0.9602293 
-0.6611901 0.2566095 0.70496756 
-0.12482647 0.45694518 0.8806926 
-0.0006639208 0.97080505 0.2398694 
-0.22275959 0.5151183 0.82766616 
0.2882459 0.15623872 0.9447242 
-0.3854953 0.52350247 0.75982803 
-0.2380727 0.66430295 0.7085358 
-0.8654373 0.28795078 -0.41000327 
-0.4201385 0.48797235 -0.76509255 
0.05901009 0.92633873 0.37204093 
-0.4461347 0.88787603 -0.112427235 
-0.6150515 0.33901238 0.7118864 
-0.48264173 0.86163205 -0.15699467 
-0.32288438 0.8628284 -0.38893834 
-0.20202921 0.96312666 0.17768331 
0.15833654 0.8487248 0.50457495 
0.98314923 0.18249685 0.010602845 
0.28774592 0.11937603 0.95023775 
0.71525097 0.023862021 0.6984602 
0.63206565 0.7592575 0.15498795 
0.8462546 0.44156966 0.29810986 
0.772893 0.40845785 0.4855912 
0.1033332 0.32425064 0.94031054 
0.41530654 -0.024133788 0.90936136 
-0.37531248 0.2817578 0.8830364 
-0.2603932 0.31426898 0.9129241 
0.65826595 0.36137554 0.6603739 
0.7367586 0.47876522 0.4774627 
0.5821778 0.23721051 0.7776891 
-0.26406467 0.19387503 0.94481874 
0.43014547 -0.03587982 0.9020463 
0.3416053 -0.30507866 0.8889505 
0.043552164 0.34089163 0.9390933 
-0.43861485 0.30518645 0.8452682 
-0.71217847 0.3964385 0.57934314 
-0.75126487 0.6598885 0.012175628 
-0.07133902 0.40171686 0.91298103 
-0.8169416 0.5678158 0.10095486 
-0.29947543 0.10628762 -0.9481653 
0.38115686 0.33331704 -0.8623336 
0.06473804 0.7200991 -0.6908446 
0.34116536 0.6141937 0.71159846 
0.025610754 0.6156604 0.7875953 
-0.44656911 -0.027876923 0.8943149 
-0.121849865 0.4896742 0.8633492 
0.58513474 0.56904715 0.5777567 
0.59985465 0.76198375 0.24403928 
0.27230638 0.66971254 0.69089395 
-0.43595073 -0.14272013 0.88858205 
-0.23753606 0.18696253 0.9532165 
-0.7315979 0.06580094 0.6785534 
0.12349687 0.22014627 0.9676178 
0.06480018 0.8711944 0.4866428 
0.19747815 0.8958618 0.39803785 
0.09887728 0.5898932 0.80140465 
0.12926197 0.7779037 0.614945 
-0.23527218 0.7643657 0.6003268 
-0.16396973 0.5932601 0.7881348 
-0.32074204 0.8689637 -0.3768643 
0.29778573 0.88957256 -0.34638748 
0.8908072 0.03977182 0.4526374 
0.8689809 -0.14028543 0.47454414 
0.0208633 0.6777283 0.7350164 
0.07104821 0.8238082 0.5623986 
0.21277049 0.266475 0.9400637 
-0.5160774 0.65135574 0.5562373 
0.60434693 0.74604064 0.27962148 
0.9384015 0.345002 -0.019401042 
0.63871974 0.27479333 0.71869725 
-0.6584292 0.50222915 0.56056833 
-0.4026453 -0.015998047 0.91521627 
-0.3726346 0.45361015 0.80955637 
-0.43281424 0.26963758 0.8602136 
-0.3332641 0.250554 0.9089322 
0.38434815 0.6958122 0.6067305 
0.11350781 -0.3109507 0.9436238 
-0.34733734 -0.016205655 0.9376002 
-0.25000468 0.30250666 0.9197757 
-0.079842046 0.77281994 0.6295828 
0.34978032 0.5963964 0.72247154 
0.16335106 0.69646674 0.6987493 
0.3979292 0.36145073 0.84321165 
0.6300051 0.34956768 0.69346666 
0.6297362 0.14299254 0.7635349 
0.2961961 -0.35613135 0.88624966 
-0.40100473 0.30178803 0.86493886 
0.050675977 0.25453094 0.96573603 
0.106348336 -0.004091116 0.9943205 
-0.91039765 0.25693744 0.32428288 
-0.5697351 -0.014352444 0.821703 
-0.9616431 -0.043157622 0.2708877 
-0.56032085 0.31513858 0.7659819 
-0.17639051 0.78400767 0.59516263 
0.09708682 0.15977432 0.98236775 
-0.8798136 0.28055382 0.3836894 
-0.454836 0.8342627 0.31165674 
-0.33814353 -0.23869446 0.9103208 
-0.10427558 0.34796572 0.9316901 
0.2293121 0.8000108 0.5544355 
-0.3361598 0.5742326 0.7464942 
0.1896277 0.26309475 0.9459507 
0.432454 0.673297 0.5997122 
0.14702208 0.8012361 0.5800046 
-0.24425243 0.39500585 0.8856134 
0.3066673 0.78375 0.5400845 
0.08667528 0.6006877 0.7947715 
0.27626067 0.25042433 0.92788357 
-0.004681872 0.6892885 0.72447187 
0.13614178 0.67936146 0.7210641 
-0.5480292 0.572352 0.6099814 
-0.46562025 0.35288352 0.81158555 
-0.18168597 0.14080495 0.9732237 
-0.4544132 0.845349 0.2808802 
-0.38784492 0.3673214 0.8453706 
-0.52655375 0.49834788 0.6887603 
-0.5165452 0.75983423 0.394757 
-0.334383 0.81527394 0.47277525 
0.33362657 0.8885172 0.31500873 
-0.071913406 0.91673994 0.3929584 
-0.1356585 0.9800278 0.14540386 
0.22024272 0.7564415 0.6158648 
0.18233553 0.9487988 -0.2579431 
0.4727078 0.8674331 -0.15526488 
0.629944 0.6364345 0.44510877 
0.5132998 0.3599081 0.7790954 
0.31344903 0.5385755 0.78210384 
-0.28982332 0.17129153 0.94162714 
0.17508177 -0.02068338 0.9843367 
0.067435734 0.15031902 0.986335 
-0.38556686 0.80374503 0.45313594 
-0.849863 -0.02004705 0.52662235 
-0.38045022 0.10502528 0.91881853 
-0.1052602 0.9061684 0.40960866 
0.3544614 0.18841366 0.91589165 
0.4976779 0.66367656 0.5584356 
0.13769822 0.24477847 0.95975137 
0.55549586 0.43741402 0.7071729 
0.14124398 -0.5051605 0.85138893 
0.31195408 0.021036973 0.94986427 
0.6260082 0.2363644 0.7431323 
-0.32133842 -0.2793384 0.9048269 
-0.46549618 0.4831979 0.7415073 
-0.5355362 0.657442 0.530067 
-0.38922307 0.19338602 0.9006149 
-0.5420297 0.76642853 0.3446611 
0.44936475 0.89158785 0.056058988 
0.39050058 0.90629154 0.16169426 
0.051790144 0.89334226 0.44638267 
0.39334798 0.74210876 0.5427265 
0.55588514 0.44544008 0.7018369 
-0.23930117 0.3488896 0.90609664 
0.11355657 -0.15070067 0.98203576 
-0.37265128 0.33772594 0.86433345 
-0.1259435 0.7497065 0.6496757 
-0.36966592 0.739509 0.56255996 
0.28156084 0.7669624 0.5766215 
0.09296116 0.34531838 0.93387014 
-0.026265657 0.6647331 0.7466191 
0.34653613 0.7521808 0.5604791 
-0.25162745 0.34030503 0.90602225 
0.03575008 0.24693404 0.9683727 
-0.10873356 0.8683584 0.48387057 
0.037056226 0.80408156 0.593363 
0.70810974 0.5314372 0.46492478 
-0.32955393 0.4348095 0.8380542 
-0.2812035 0.6337863 0.7205828 
-0.42667815 0.80323505 0.41564313 
0.028023617 0.31673372 0.94810045 
-0.3193333 0.8441154 0.43069193 
-0.43282175 0.1098814 0.8947577 
0.00025427388 -0.27340215 0.9618998 
-0.1956454 0.02388367 0.9803839 
-0.17075725 0.10649068 0.9795416 
-0.48744437 0.47238287 0.73433816 
0.33047187 0.12750104 0.93516415 
0.15700038 0.06831086 0.9852333 
-0.09155563 0.09612678 0.9911494 
-0.49342206 -0.3355836 0.80244523 
-0.6067864 0.62260586 0.49413785 
0.016572308 0.5610409 0.8276223 
0.039522924 0.8660148 0.49845403 
-0.4162841 0.8823609 0.21942393 
-0.5589887 0.6348591 0.53337204 
0.5110835 0.8568949 0.0672665 
0.95915693 -0.022228207 0.282 
0.31773952 -0.33922252 0.88542074 
-0.35183716 -0.39568904 0.8483165 
-0.6049544 0.2561469 0.75393564 
0.12760283 0.29569614 0.9467213 
0.0046159127 -0.16907395 0.98559254 
0.12882648 -0.1997634 0.97133845 
-0.3345983 0.5831025 0.7402943 
-0.060738087 -0.33360064 0.94075584 
-0.03695993 0.3749093 0.9263245 
0.30069685 0.2819058 0.9111041 
-0.21705283 -0.55249405 0.8047599 
0.03440133 0.24072255 0.9699842 
0.35191596 0.27505463 0.8947068 
-0.02415302 0.11971915 0.99251395 
-0.07785846 0.3510706 0.93310636 
-0.39239046 -0.18875837 0.90022224 
-0.9775291 -0.15362537 0.14434788 
-0.7621958 -0.60888743 0.21980375 
0.10426672 -0.54538584 0.83167475 
-0.41922027 -0.018278996 0.9077006 
-0.8120371 0.021781376 0.5831993 
-0.9705126 0.20241034 0.13090155 
0.12499073 -0.040525977 0.9913299 
0.049493864 0.48999023 0.87032175 
0.43007785 0.12282208 0.8943981 
-0.70058036 0.5945847 0.39453292 
-0.23681031 -0.39863816 0.88600713 
-0.38663548 -0.119994186 0.91439295 
-0.9052224 0.26999307 0.3281404 
-0.89294153 -0.3051186 0.33099562 
-0.8252374 0.18020459 0.53526604 
-0.53907704 0.74107355 0.40025753 
-0.15643959 0.82286525 0.5462778 
-0.6976594 0.56386 0.44196537 
-0.12819698 0.16328728 0.97821414 
-0.8871387 0.18480046 0.42288736 
0.0032905755 0.8712594 0.49081197 
0.03368195 0.8322977 0.5533049 
0.38018233 0.4827022 0.7889614 
0.7506852 -0.039060447 0.65950435 
0.7739919 -0.33549568 0.5370097 
0.6304179 -0.116560854 0.7674548 
0.510205 0.08484596 0.8558575 
0.86858255 -0.056566842 0.49230552 
-0.038486313 0.4367086 0.89877945 
0.19342323 0.34247378 0.9194016 
0.2963521 0.8052118 0.51362395 
0.2760141 0.9565279 0.09418373 
-0.5230551 0.7786085 0.34667316 
0.10487641 0.99022 0.09200765 
0.74157375 0.5703364 0.3532489 
0.6149168 0.7702418 0.1691299 
0.2954953 0.60073847 0.7428296 
0.72180593 0.17060773 0.67073786 
0.95347583 0.13971797 0.26713803 
0.22920166 0.05197584 0.97199035 
-0.0075921062 0.43120444 0.9022224 
0.35698882 -0.14021605 0.92352504 
-0.23754567 0.51444054 0.8239679 
-0.67711943 0.6395548 0.36397666 
-0.40620938 0.36202216 0.8390077 
0.5977906 0.34461617 0.72379977 
-0.009380617 0.37757295 0.9259323 
-0.3757926 -0.104621075 0.9207793 
-0.25758883 -0.4125873 0.87373894 
-0.16330092 -0.112507455 0.9801403 
-0.28033772 -0.45354158 0.8459969 
-0.46925512 0.23310186 0.85174125 
-0.6178111 -0.4687887 0.6313055 
-0.01136632 0.24375132 0.9697712 
-0.09232486 0.5797155 0.8095715 
0.22196995 0.5529375 0.8031123 
0.1462965 0.1344619 0.9800599 
-0.41935816 0.6869566 0.59348917 
-0.013598706 0.4540576 0.8908686 
-0.13091531 0.22656778 0.96515715 
-0.51637733 0.23470198 0.8235712 
-0.36649728 0.93024665 0.017917689 
-0.6539868 0.5891873 0.47450995 
-0.34548432 0.91409415 0.21230316 
-0.17412816 0.91117454 0.37341702 
-0.47515053 0.58262247 0.6593809 
-0.83199334 0.4348711 0.34449133 
-0.52480006 0.5169757 0.6762552 
-0.2704319 0.90305984 0.33369097 
0.22160633 0.9295303 0.29472718 
-0.12473746 0.9785209 0.16412659 
0.31636718 0.663448 0.67804766 
0.36179796 0.54124445 0.75904995 
0.8617925 -0.21834005 0.45786616 
0.58707553 0.6101419 0.53204256 
0.3233027 0.7480668 0.57954425 
0.50656337 0.7219264 0.47139788 
0.7522883 -0.4837627 0.44725385 
0.59187454 -0.23050453 0.77236795 
0.46405956 0.35743493 0.81048703 
0.606778 0.7602199 0.23213412 
0.64489365 0.7238836 0.24516256 
-0.012784998 0.67283386 0.73968315 
-0.36170518 0.5536896 0.7500648 
-0.44398242 0.24325329 0.8623848 
-0.41014263 0.3538833 0.840565 
-0.011376876 -0.51357615 0.8579687 
-0.06981692 0.48081478 0.8740383 
-0.54524606 0.6352877 0.5469153 