# OOMMF: rectangular mesh v1.0
# Segment count: 1
# Begin: Segment
# Begin: Header
# Desc: Time (s) :  1.0600000000000001e-07
# Title: m
# meshtype: rectangular
# meshunit: m
# xbase: 2e-09
# ybase: 2e-09
# zbase: 5e-10
# xstepsize: 4e-09
# ystepsize: 4e-09
# zstepsize: 1e-09
# xmin: 0
# ymin: 0
# zmin: 0
# xmax: 1.024e-06
# ymax: 1.024e-06
# zmax: 1e-09
# xnodes: 256
# ynodes: 256
# znodes: 1
# ValueRangeMinMag: 1e-08
# ValueRangeMaxMag: 1
# valueunit: 
# valuemultiplier: 1
# End: Header
# Begin: Data Text
0.3261688 0.45894685 -0.8264271 
0.545436 0.4022139 -0.7353391 
0.98659587 -0.057855397 0.15258287 
0.90892 0.412691 -0.059587426 
0.54986984 0.78996676 0.27128556 
0.873421 0.13745886 0.46716246 
0.553073 -0.12794381 0.8232501 
0.19445235 0.67661154 0.7102008 
-0.29749963 0.46287054 0.8350119 
0.78348255 0.45168802 0.42677054 
0.08002083 0.43074998 0.89891666 
0.42338043 0.5544537 0.7164706 
0.15664732 0.83151674 0.53295547 
0.07187862 0.73011136 0.6795373 
-0.013674394 0.72514755 0.6884577 
0.51573765 0.45021984 0.7289149 
-0.224569 0.6389346 0.7357522 
-0.24871899 0.8553395 0.45445928 
-0.31082726 0.95034975 -0.014898529 
0.38092503 0.53648734 0.7530455 
0.36540687 0.8183751 0.44355404 
-0.57278866 0.7991987 -0.1821938 
0.5507537 0.7902978 -0.26851386 
0.764757 0.2711573 -0.5844832 
0.9711584 0.23832126 0.0073755397 
0.7279376 0.45422706 -0.5135999 
-0.16380104 0.87780386 0.450144 
0.10036274 0.5379881 0.83695656 
-0.40199938 0.5028435 0.7652092 
-0.019125387 0.25813758 0.9659189 
-0.015359164 0.54792243 0.8363881 
-0.36181417 0.5772794 0.7320103 
-0.08316172 0.9572031 0.2772118 
-0.023149155 0.05738588 0.99808365 
0.2901894 0.47806767 0.8290003 
0.38260034 0.91739166 0.10958893 
0.1936473 0.9763409 -0.09622561 
-0.03287555 0.9629788 -0.2675653 
0.1309839 0.90201443 0.41135526 
0.088665195 0.96399045 0.2507208 
0.78293705 0.06558285 0.61863446 
0.5653217 0.7229028 0.39726943 
0.46764374 0.7946169 0.38716075 
-0.12586184 0.39792335 0.9087441 
0.2509759 0.65130806 0.71610683 
0.10224307 0.8620186 0.49645796 
0.3321602 0.4120767 0.8484471 
-0.10861933 0.7649961 0.6348094 
0.67163193 0.37650374 0.63808745 
0.24647114 0.30831197 0.91880125 
0.26037407 0.14794056 0.9541064 
-0.23795849 0.45830724 0.8563471 
0.29348835 0.9510425 0.09686484 
0.04808205 0.1676967 0.9846654 
-0.24691533 0.9554158 -0.16190585 
-0.18103638 0.89107454 -0.41618758 
0.46821222 0.88026065 -0.07693194 
0.7838744 0.32117647 -0.53140056 
0.021710912 0.98870575 0.14828879 
0.492019 0.84638834 -0.20382407 
0.1449186 0.95362747 0.26380563 
-0.3969651 0.8988356 0.18577772 
0.10095897 0.9402105 0.32528687 
0.41398144 0.6279627 0.659001 
0.31779614 0.927337 0.19761549 
0.07327813 0.8135028 0.576926 
0.15328093 0.46058738 0.8742793 
-0.4961401 0.09050826 0.8635122 
-0.5587539 0.59944165 0.5731177 
-0.80577034 0.51084024 0.29962733 
0.025547076 0.30114013 -0.95323765 
0.37110478 0.9251965 -0.07932672 
0.23110585 0.93848604 -0.25658163 
-0.52553725 0.7220441 0.44995898 
0.7839675 0.607125 0.12959334 
0.56727004 0.8221607 -0.04750199 
0.15374717 0.7551749 0.6372384 
0.04316153 0.059641533 0.9972864 
-0.30556026 0.01354799 0.95207644 
0.038708095 0.26652232 0.9630512 
-0.2822079 0.25684848 0.9243309 
-0.22505006 0.629738 0.7434935 
-0.55143875 0.32961455 0.7663352 
-0.9469621 0.25463635 -0.19601841 
0.21077092 0.9760744 -0.053427607 
-0.14648779 -0.031181935 0.98872095 
0.45380104 0.6611421 0.59745777 
0.27921528 0.5994275 0.75015044 
0.44727528 0.7872472 0.42448416 
0.6324465 -0.24114227 0.73611265 
0.3686667 0.34397516 0.8635774 
0.3667907 0.03216033 0.9297475 
-0.35965264 -0.11022453 0.92655313 
0.3215828 -0.4287482 0.84425086 
0.1290499 0.12102551 0.9842251 
0.5231098 0.54369277 0.65631884 
-0.19584857 0.79557264 0.57333034 
-0.0075798067 0.39960906 0.91665435 
-0.29658926 0.6576675 0.6924655 
-0.47281867 0.8021401 0.36471048 
-0.31282222 0.81109554 0.49423322 
-0.47183228 0.4796063 0.7398325 
-0.06698436 -0.67731506 0.7326374 
0.75600964 0.10724035 0.6457159 
0.19933383 -0.2969519 0.93385524 
-0.6701943 -0.32036206 0.6694833 
-0.68582493 0.0093922075 0.72770596 
-0.59243435 0.5197524 0.6155316 
-0.6635997 0.32347828 0.6745348 
-0.7979998 0.2856955 0.5306358 
-0.4738619 0.86801267 -0.14835413 
-0.6347034 0.44352135 0.63280374 
-0.29026216 0.94376045 0.15831688 
-0.2005399 0.9774875 0.06558892 
-0.9678693 0.15636277 -0.19692595 
-0.842694 -0.09791506 0.5294145 
-0.8254884 0.26186752 0.49999443 
-0.682088 0.7101758 -0.17437434 
-0.88997614 0.41103768 0.19746052 
-0.9750498 0.2040261 -0.08747154 
-0.94574606 0.28575563 0.15462285 
-0.23103894 0.8586315 0.45757285 
-0.19978264 0.67292 0.71222585 
0.27049953 0.43567863 0.85849524 
0.29642874 0.9291731 0.22083332 
-0.8248017 0.5544279 -0.11095894 
-0.40065253 0.823553 -0.40154472 
0.49557573 -0.0026627698 0.8685606 
0.5685534 -0.36385986 0.7378029 
-0.7262925 0.3125469 0.6122203 
-0.87476695 0.39365283 0.2825247 
-0.4169973 0.9001058 0.12618624 
-0.44044834 0.62860435 0.64098513 
-0.4448211 0.4901635 0.7495826 
-0.22777684 0.81374276 -0.5347341 
0.48706794 0.43340543 -0.7582377 
0.50936484 0.8590195 -0.051313076 
0.7632524 0.1261245 0.6336707 
0.8774122 -0.10989635 0.46698037 
0.29495543 0.007852489 0.95547885 
0.21725352 0.45230815 0.86499614 
0.52830577 0.32296383 0.7852309 
0.32491565 -0.23840043 0.91520226 
-0.20860294 -0.29537714 0.9323289 
-0.47166392 0.8385503 0.27270237 
-0.38741738 0.80145246 -0.4556116 
-0.6009019 0.7957588 0.0753982 
-0.51181996 0.84842 0.13499624 
-0.26021546 0.8844169 0.38742077 
-0.79284316 0.5838676 0.1746383 
-0.33057106 0.8958368 0.29698375 
0.42396522 0.8971379 0.12408488 
0.55606604 0.8108306 0.18260407 
0.61144024 0.7356398 0.2915046 
0.04227029 0.70632386 0.7066257 
-0.62914306 0.16339126 0.7599226 
0.44673288 0.35505933 0.8211959 
-0.16791025 0.8961574 0.4107411 
0.1893754 -0.1211539 0.9744018 
0.42315027 0.12927487 0.8967898 
0.26477778 0.48386487 0.83412683 
-0.47689876 0.64156884 0.6007971 
-0.013430344 0.8199839 0.57222915 
-0.35627067 0.6750021 0.6460987 
-0.041089594 0.9075326 0.41796684 
-0.12512605 0.3948593 0.91018116 
-0.3758425 0.9266574 0.00697663 
-0.3855216 0.7134731 -0.5850891 
0.7320937 0.6775162 0.070786424 
0.35358778 0.8039174 0.478218 
0.5725745 0.24341835 0.78288305 
0.7902857 0.2415197 0.56313133 
0.64642256 0.52730554 0.5514406 
0.42849302 0.46982545 0.7717887 
0.52540106 0.73662394 0.42583916 
-0.04073434 0.6718737 0.7395448 
-0.6436897 0.33038706 0.69029564 
-0.35389838 0.84515774 0.40057993 
0.34038404 0.25629184 0.9046841 
0.24077637 0.38253406 -0.892017 
0.09710728 0.68344176 -0.7235175 
0.59880435 0.693238 -0.40106666 
0.3198655 0.7145331 0.6221966 
-0.10910329 0.98578876 0.12773848 
0.24538009 0.7161844 0.6533519 
0.32267895 0.39123902 0.86186445 
0.23912345 0.4493921 0.86073625 
-0.3922157 0.28221488 0.8755122 
-0.2969344 0.70255274 0.6467223 
-0.1313456 0.7287327 0.67208415 
0.07706967 -0.12862144 0.98869455 
-0.13546322 -0.092011616 0.98650074 
0.73196775 -0.5253801 0.4338191 
0.0631717 0.109288104 0.9920008 
-0.2950103 -0.35428444 0.88738465 
-0.27878165 -0.07963922 0.95704675 
-0.04284507 0.4067741 0.9125235 
0.28669685 0.39973837 0.87064016 
-0.31711617 0.1446168 0.93729573 
-0.47209185 0.2819185 0.8352552 
-0.84857726 0.39102846 0.3563894 
-0.46306068 0.5183655 0.7189381 
-0.74008846 0.15199585 0.6551079 
0.41580305 0.7606106 0.49857742 
0.47800878 0.81224316 0.33431843 
-0.47327238 0.8345909 0.2819066 
-0.22701436 0.90223837 0.36664766 
0.42432547 0.8813681 0.20769754 
0.087362185 0.908086 0.40957013 
0.23706104 0.7069722 0.66632766 
0.18652707 -0.043280847 0.98149604 
-0.13940215 0.8174742 0.5588409 
-0.90865874 0.17090683 -0.38095963 
0.029729275 0.99910057 -0.030238478 
-0.6271066 0.7137748 -0.3118701 
-0.74467224 0.32125533 -0.5850285 
-0.64748806 0.7598411 0.058316473 
-0.21694791 0.34677985 -0.9125115 
0.09733589 0.68414813 -0.7228189 
0.80036473 0.55777633 0.21977721 
0.37052283 0.14940988 0.91672766 
0.2324597 -0.47743857 0.8473577 
0.5068388 -0.5540418 0.6604182 
0.63076013 -0.23246504 0.740339 
0.35592562 -0.0040042703 0.9345057 
0.3488813 0.48781744 0.8001976 
0.35815734 0.5872622 0.72584194 
0.63607174 -0.013991542 0.7715031 
0.38524687 0.09202861 0.9182133 
0.5178483 0.5480588 0.65685976 
-0.23724982 -0.12514502 0.9633542 
-0.45206037 -0.14853552 0.87953323 
-0.23250736 0.0675372 0.970247 
0.08706442 0.73216534 0.6755397 
0.46207625 0.64963245 0.60370797 
-0.19817479 0.965132 0.17101787 
0.07577691 0.658866 0.74843407 
-0.21255554 0.54153365 0.8133644 
0.8437635 0.47453383 0.25076097 
0.82278633 -0.21508533 0.5260807 
0.9682986 0.16160385 0.19047874 
0.5394442 0.4145342 0.7329129 
0.0366828 0.99889797 -0.029279767 
-0.2773761 0.823613 0.49469617 
-0.3039246 0.8883996 0.3440582 
-0.27439752 0.94517213 -0.17707546 
-0.117461234 0.98825747 -0.0977252 
-0.3089497 0.78299433 -0.53987956 
0.6325424 0.38005885 -0.674867 
-0.20977819 -0.933743 0.29002976 
0.79331714 0.15860508 0.5877859 
0.46257687 0.77559155 0.42951202 
-0.44367206 0.86737454 0.22542557 
-0.0550912 0.85628676 -0.5135543 
0.006849615 0.5408789 0.84107274 
0.5141677 0.8416768 0.16495964 
0.1299679 0.92049336 -0.36851108 
0.29945448 0.77876276 -0.5512311 
0.8727793 0.23815663 -0.4260727 
0.46234182 0.88547045 0.046714768 
0.58867604 0.79031837 0.1698748 
0.87619746 0.06400313 0.47768363 
0.48357335 0.41277617 0.77186316 
0.20367998 0.63624424 0.7441155 
0.52113754 0.25258696 0.81523955 
0.5821491 -0.11784133 0.80449736 
0.54008657 -0.042339977 0.8405438 
0.331033 0.91008306 0.24933118 
0.03367978 0.7661646 0.64176136 
0.33837038 -0.28856492 0.89567614 
0.22454953 0.44681093 0.8659893 
0.76852494 0.2529575 0.5876921 
0.8223416 0.27681857 0.49711752 
0.2576109 0.3466906 0.90191036 
0.25797817 0.49396864 0.83032674 
-0.11478272 0.8201336 0.5605406 
0.15472624 0.96520007 0.21082841 
-0.29172063 0.9564961 -0.0037819732 
0.5850538 0.71894395 -0.37527552 
0.6135095 0.4423577 -0.6541605 
0.7108414 0.6803407 -0.17844047 
0.75123316 0.27363056 0.60064566 
0.12800984 0.50412023 0.85409385 
-0.19063292 0.46464983 0.864731 
-0.15336935 0.72258073 0.67405856 
-0.3741785 0.2794269 0.8842573 
-0.38667125 0.84459275 0.37033564 
-0.25860244 0.7875007 0.55943495 
0.058165736 0.16864051 0.9839599 
0.26132056 -0.22436328 0.9388145 
-0.17422038 0.16211535 0.9712703 
-0.6522592 0.60758615 0.4532075 
-0.16367756 0.9647115 -0.2062561 
0.17126088 0.9338612 -0.3139636 
0.8356336 0.3749428 0.4014154 
0.7082865 0.5930179 0.38296223 
0.55154204 0.7309782 0.4018363 
0.7843755 0.41050935 0.46501312 
0.40821376 0.21633446 0.8868827 
0.20724733 0.26218927 0.9424995 
-0.32207644 0.6639553 0.6748557 
-0.023418179 -0.20031132 0.97945243 
0.48546615 -0.19232464 0.85283875 
0.45604655 0.38778904 0.80102503 
0.29525173 -0.03099125 0.9549167 
0.36716655 -0.17160448 0.9141885 
0.83238953 0.012734488 0.5540448 
0.4997632 0.61842984 0.60644984 
0.45480648 0.8711085 0.18525964 
0.2973553 0.5122343 0.805727 
0.047045916 0.97551346 -0.2148495 
0.58003235 0.8088577 0.09649738 
0.29168797 0.83055055 -0.47445136 
0.5179922 0.7768904 -0.35794604 
0.6270314 0.76055425 0.16849054 
0.54297155 0.7851537 -0.29785192 
0.13201134 0.96089345 0.24342746 
0.19420724 0.88437057 0.4244669 
0.007156452 0.6741286 0.73857945 
0.05701615 0.46785715 0.8819632 
-0.056953575 0.44952497 0.89145035 
-0.22755694 0.18084942 0.9568235 
-0.09946342 0.5316234 0.8411205 
-0.18940453 0.3756143 0.9072154 
0.26104853 0.6811263 0.6840473 
0.337111 -0.16556108 0.92679334 
-0.45010367 0.89130914 -0.054540593 
0.46756917 0.88355 0.02680756 
0.20376444 0.8660714 -0.45650893 
0.26611146 0.95803285 -0.10657342 
0.6895421 0.2784079 -0.66859615 
0.7233116 0.6898675 -0.030053468 
0.2777034 0.43015558 0.85898024 
0.4676326 0.06508173 0.88152385 
0.27002534 -0.10436896 0.95718 
0.50553787 0.2797466 0.81619453 
0.17109407 0.07506411 0.98239106 
0.25319526 0.44666952 0.85812503 
-0.37598032 0.33176163 0.8652012 
-0.18070349 0.8579886 0.48083463 
0.29454333 0.6012169 0.7428206 
-0.093066506 -0.15921563 0.9828474 
0.09503289 0.58211946 0.80753064 
0.4142972 0.08308832 0.90634114 
-0.13242811 -0.046414915 0.9901053 
-0.2846438 -0.0350834 0.9579912 
0.663264 -0.101294875 0.74149865 
0.36370167 0.091074966 0.9270526 
0.5108044 0.47712076 0.71514666 
0.28563896 -0.18139157 0.9410142 
0.5389652 0.5158098 0.6659256 
0.024812644 0.43795395 0.89865494 
-0.052468307 0.7119589 0.7002584 
0.12398349 0.8316549 0.5412748 
0.15249613 0.67678463 0.72021353 
0.041989285 0.40105698 0.9150904 
-0.30428642 0.58343595 0.75300217 
-0.78967696 0.5803277 0.19907342 
0.25202817 -0.5058159 0.82500434 
-0.3534198 -0.12621413 0.9269113 
0.14601302 0.39831933 0.9055506 
-0.6097491 -0.6809683 0.40557173 
-0.44159552 -0.20521216 0.8734308 
-0.84279203 0.18311168 0.50613403 
-0.5839552 0.6537496 0.48125657 
-0.651141 0.19688332 0.73297507 
-0.56222993 0.73386496 0.38123447 
-0.6341051 0.7105517 0.30500364 
-0.3846766 0.9181484 0.095013 
-0.31297198 0.87875825 0.36032304 
-0.92016715 0.35835508 -0.1577156 
-0.5184035 0.6126792 0.5965586 
-0.58224684 0.78254175 -0.22049302 
-0.18530992 0.9326726 0.30948672 
-0.43251306 0.627733 0.6472123 
-0.9016907 -0.058407195 0.42841855 
-0.7490363 0.62367296 0.22355473 
0.014364639 0.21872064 0.9756818 
-0.3338521 0.22218186 0.91606665 
0.16987701 0.5204698 0.8368113 
-0.3861428 0.865889 -0.31800932 
-0.40473822 0.8348104 0.3732007 
0.073792286 0.8264008 0.5582263 
0.29026616 0.28925204 0.9121836 
0.45059478 0.13297388 0.8827697 
-0.6366489 0.59186196 0.49434566 
-0.67721975 0.44915092 0.5827838 
-0.45375487 0.5492518 0.70173293 
-0.17190105 0.3472667 0.9218764 
-0.77119046 0.1306283 0.6230583 
0.052326716 0.8665351 0.49636582 
0.23347965 0.88021255 0.41317472 
0.29352087 0.43223512 0.8526538 
0.5510345 0.19623458 0.81108147 
-0.11132755 0.1047376 0.9882491 
-0.28359783 0.49550417 0.82100415 
0.30981684 0.8822491 0.3544717 
-0.65285015 0.40549597 0.6398123 
-0.3908105 -0.18342595 0.90201014 
-0.35303617 0.30067152 0.8859809 
-0.3818473 0.36024994 0.8511243 
-0.8063301 0.4583745 0.37379768 
-0.6190073 0.5112546 0.5961952 
0.007019474 -0.31778336 0.9481374 
-0.3575386 0.18562473 0.9152648 
-0.43655914 0.27874956 0.85540336 
-0.26866737 0.5923956 0.7595296 
0.17468208 0.60333574 0.77812093 
0.48136342 0.66630733 0.5694944 
0.9998164 -0.019162377 -0.00022288351 
0.07320436 -0.38807407 0.9187163 
-0.6255841 -0.4054618 0.6665173 
-0.15738381 -0.13726644 0.97795105 
0.7042408 0.43732822 0.5592754 
0.5237624 0.4532478 0.7212762 
-0.18548717 0.27628672 0.9430059 
-0.14125687 0.04902233 0.9887585 
-0.427144 0.18604702 0.88483584 
-0.16404651 0.7622879 0.6261038 
0.28278142 0.7692901 0.5729113 
0.54433596 0.5428237 0.639563 
-0.36943105 0.32669213 0.8699385 
-0.3331718 0.65197176 0.6811237 
0.24059738 0.9632875 -0.11912274 
0.28866223 0.3290215 0.8991212 
0.24092866 0.80612564 0.5404765 
0.34948117 0.5501212 0.75843906 
0.5759168 0.15029377 0.80357426 
0.42555666 0.40410173 0.8096934 
0.67999375 0.01296151 0.73310345 
0.44839066 0.44164595 0.7771066 
-0.26092473 0.6269636 0.7340538 
-0.6089838 0.7904278 -0.06605105 
0.094030336 0.54610187 0.8324248 
0.45305994 0.58844495 0.6696785 
-0.10101449 0.8625432 0.49579766 
0.74835587 0.6626449 -0.029415118 
0.2782194 0.9244704 0.26066938 
0.28234777 0.94604653 0.15898353 
-0.31278694 0.6949281 0.6474869 
0.49616158 0.60430795 0.6234065 
0.3628283 0.36028448 0.8593898 
0.40298295 0.36328703 0.84001637 
-0.005156994 0.6067455 0.79487944 
0.30490085 0.38092482 0.8728871 
0.03724699 0.2569781 0.96569926 
-0.1309454 -0.459894 0.8782659 
-0.84131294 -0.22281982 0.4924874 
0.74633753 0.35571426 0.5625369 
0.57683676 0.2870654 0.7647568 
0.039420508 0.35933653 0.9323751 
-0.60773957 -0.084578834 0.7896196 
-0.14786553 -0.39749712 0.9056114 
-0.04362624 0.17329213 0.9839038 
0.26797476 0.5175272 0.81262237 
-0.11898508 0.4555392 0.88222826 
-0.7203271 0.44172886 0.5347939 
-0.5508894 0.19417217 0.8116762 
-0.19405602 0.47962856 0.85574454 
0.27627116 0.87008417 0.40820083 
0.1447834 0.81180036 0.56570125 
-0.2766252 0.9509787 -0.13826846 
-0.43103722 0.5543375 0.711981 
0.2189377 0.8249205 0.5211262 
-0.41206822 0.5281534 0.74246466 
-0.44784546 0.7226189 0.52655154 
-0.15266012 0.2029678 0.967212 
-0.14224344 0.7675105 0.62505555 
0.22592624 0.73603004 0.6381357 
-0.3790882 0.8916699 0.24742039 
0.033174608 0.9955873 0.0877802 
-0.9822627 -0.05485077 -0.17930831 
-0.6359221 0.75619435 -0.15418614 
-0.20755005 0.969923 -0.12717102 
0.37399593 0.9129549 0.1632193 
0.46303686 0.54499596 0.69898236 
0.09351111 0.34549382 0.9337504 
-0.34129417 0.32416797 0.88228875 
0.26187462 -0.49192476 0.83032036 
-0.48815277 -0.41278934 0.7689681 
0.018320976 -0.35264984 0.93557596 
0.10763791 0.74441504 0.65898436 
0.3303915 0.8293848 0.45051363 
0.26940972 0.3003699 0.9149844 
-0.15004404 0.077384785 0.98564625 
0.46404684 0.36505038 0.80709285 
-0.20163338 -0.18140109 0.96251637 
-0.05177959 0.45725077 0.8878291 
0.0573879 0.28334954 0.95729816 
0.39746094 0.34284896 0.85116357 
-0.26754722 0.56316304 0.7818351 
0.04926389 0.5415752 0.8392076 
0.04921082 0.8135274 0.5794407 
-0.4360807 0.46936002 0.7678118 
0.3955138 0.04482418 0.9173656 
0.87695473 -0.11351714 0.46697348 
0.9695414 0.11368151 0.21694693 
0.4097069 0.769068 0.4905863 
-0.25690272 0.5206632 0.81419337 
-0.69960564 0.22644706 0.6776975 
-0.12651783 0.42297772 0.8972643 
0.50693196 0.3992461 0.76395196 
-0.36294627 0.6026193 0.710718 
0.043697707 0.99896914 -0.012292256 
0.6303351 0.6352648 -0.4462246 
0.68817717 -0.51268303 -0.51338905 
0.9527806 -0.25723907 0.16136023 
0.9644264 -0.26120755 0.040651746 
-0.26691157 -0.09613303 0.9589144 
0.0014092736 0.5636509 0.82601196 
0.09114525 0.22238648 0.9706889 
-0.05990843 0.98672897 0.15092058 
0.3321612 0.39368454 0.8571356 
0.32110465 0.9339397 0.1569983 
0.41737565 0.9053949 -0.077830575 
0.57438445 0.5670683 0.59035265 
0.5446036 0.16623934 0.82205325 
0.76099175 0.634689 0.13439308 
0.56880736 0.39691922 0.72035646 
0.49536014 0.39053318 0.77595246 
0.2887622 -0.75383866 0.59020656 
0.0067276303 0.113442756 0.9935218 
0.705821 0.28861555 0.6469296 
0.44671732 0.6764 0.5855995 
0.22603646 0.41917986 0.87931556 
-0.20196486 0.02819799 0.9789868 
0.40999216 0.4697641 0.7818109 
0.29674596 0.48594567 0.8220698 
0.13194859 0.37168506 0.91893405 
0.4122295 0.35381585 0.839572 
-0.014565396 0.19382879 0.98092735 
0.22139497 0.7541531 0.6182535 
0.38553175 0.9084876 0.16129345 
-0.80053836 0.5131762 -0.30949733 
0.32207793 0.93884176 -0.12182811 
0.45889083 0.7033086 -0.5429331 
0.6595578 0.74095476 -0.126371 
0.6423254 0.7024887 0.30647638 
0.22406657 0.22396608 0.9484901 
0.18390505 0.5235615 0.83190286 
0.022853728 -0.07734747 0.99674225 
-0.14963579 -0.008912831 0.98870105 
-0.47494766 0.4126133 0.77728695 
-0.29438078 0.7177609 0.6309986 
-0.52033716 -0.2042677 0.8291706 
0.12504295 0.009313074 0.9921076 
0.07688219 -0.1865096 0.9794404 
-0.27317795 0.9556207 0.11028597 
-0.37477043 0.8105764 0.4500147 
-0.0078049833 0.8011847 -0.5983662 
0.644118 0.6768566 -0.3563385 
0.27368295 0.9610903 -0.03745876 
0.15314613 0.815808 0.55767703 
0.76846707 0.4169173 0.4854261 
0.77732897 0.059278645 0.6262952 
0.49337626 0.1610918 0.8547685 
0.22743182 0.33580327 0.9140629 
0.91715544 -0.38734502 0.0937532 
0.7377141 0.33356032 0.5869545 
0.6310979 -0.16370772 0.75823164 
0.43073028 -0.21853656 0.8756217 
0.27700007 -0.111198306 0.95441395 
0.025719415 -0.23693645 0.97118473 
0.021867795 0.6820512 0.7309775 
0.377527 0.42692629 0.82171 
-0.16332102 0.47577068 0.8642734 
-0.19683889 0.6607377 0.7243482 
0.5698599 0.61396915 0.54617 
0.087443896 0.8529429 0.5146281 
0.13792981 0.77803385 0.61289376 
0.842709 0.49281263 0.21674243 
0.2623267 0.8678897 -0.42184374 
0.53047466 0.79887164 0.28355026 
0.32184348 0.6292426 0.7074394 
0.24100313 0.68619865 0.6863301 
0.7375318 0.6584605 0.14992239 
-0.37571624 0.45712692 0.8061466 
-0.1473566 0.35629192 0.92268205 
-0.31305662 0.66900367 0.67411405 
-0.3195732 0.61011964 0.72500145 
-0.06690172 0.70634705 0.70469713 
-0.31466368 0.41814324 0.85214025 
-0.093567096 0.9592543 0.26660138 
-0.17001383 0.7697765 0.6152556 
0.05675177 0.8716425 0.48684564 
-0.027928779 0.9682411 0.2484535 
0.619362 0.5270683 -0.5818847 
0.52862835 0.8073694 0.2621196 
0.81075007 0.17545684 0.55847955 
0.8357529 -0.3386316 0.4322568 
0.59002334 -0.39060813 0.70661014 
0.063784294 -0.7127514 0.69851065 
0.55976415 -0.5643092 0.60681087 
0.37215352 -0.24498694 0.89525604 
0.59982413 -0.0038873833 0.8001225 
0.083118685 0.43891767 0.89467454 
0.5857584 0.5512321 0.59416354 
-0.118462205 0.9182083 0.37796843 
-0.49823883 0.5095093 0.70154 
-0.32748008 0.9437659 -0.045419496 
0.90018255 0.011724222 0.4353551 
-0.14063458 -0.2751147 0.9510699 
0.014437286 -0.14218296 0.9897352 
-0.18977651 -0.1058007 0.9761102 
0.22103861 0.49473354 0.8404646 
0.7978408 0.046780825 0.60105056 
0.9063874 -0.3928269 0.15539977 
0.5120272 -0.0365761 0.8581901 
0.2521947 0.43168035 0.86605424 
0.21716326 0.2966767 0.92995864 
0.15857667 0.4249766 0.89120615 
-0.10483683 0.5339911 0.8389653 
-0.13259509 0.8987259 0.4179835 
-0.033813447 0.9419832 0.33395252 
0.6467231 -0.03004251 0.76213306 
-0.29796994 0.05888715 0.9527572 
-0.7293295 0.296596 0.61653006 
-0.81528836 0.49351826 0.3028938 
-0.6427935 0.060996637 0.76360726 
-0.7853887 -0.068499 0.61520123 
-0.66564596 0.48611122 0.56622565 
-0.9950172 0.08789208 -0.04707439 
-0.47827905 0.5978102 0.643329 
-0.44791946 0.6173167 0.64675206 
0.15232036 0.70538104 0.6922689 
-0.51587445 0.85037476 -0.10361728 
-0.093654595 0.011387966 0.9955396 
-0.22824343 0.19188862 0.95450705 
-0.75397223 0.5525879 0.35520786 
-0.27166328 0.9456513 0.17872533 
-0.5896971 0.64450014 0.48670012 
-0.7481635 0.6552724 0.10425698 
0.13207021 0.9870258 -0.09131056 
0.0458623 0.48099104 0.87552524 
0.17755023 0.13858867 0.97430444 
0.023075359 0.6683157 0.74351984 
-0.39950532 0.9108954 0.10327229 
0.0063610957 0.95874804 0.28418598 
0.104669265 0.50547576 0.85646874 
0.39898428 0.11484609 0.90973735 
0.46337813 0.03544752 0.88545144 
-0.23294358 0.121916704 0.96481794 
-0.46333015 -0.016492557 0.88603234 
-0.3950391 0.16361499 0.9039769 
0.5210934 0.41104355 0.74800056 
0.764146 0.09231008 0.6384042 
0.36806324 0.64667326 0.6680893 
0.12319279 0.53744406 0.8342527 
0.24837793 0.041628666 0.9677684 
0.022870956 -0.44931096 0.8930827 
0.42952037 0.36176682 0.8274281 
-0.21243577 0.35856783 0.9090105 
0.4580189 0.7761032 0.43345445 
-0.16573401 0.9561595 0.24143597 
-0.6178765 0.2322441 0.7511932 
-0.24588205 0.5052794 0.82718486 
0.14871275 0.6807711 0.7172415 
0.29759952 0.48475558 0.8224638 
-0.3370277 -0.23578218 0.91149276 
-0.27520648 -0.3291347 0.9032895 
-0.04001301 -0.73182195 0.68032026 
0.3878482 -0.12878075 0.9126826 
-0.39340913 0.88091516 0.26309267 
-0.4179543 0.6563267 0.6281318 
0.19031571 0.90462047 0.38136843 
-0.086334266 -0.034264985 0.9956768 
0.050480217 -0.6279786 0.7765918 
-0.033123106 -0.60430056 0.7960678 
0.044538464 -0.49403974 0.8682979 
-0.025215793 0.10397589 0.9942602 
-0.19348744 0.09661144 0.97633445 
-0.002903109 0.21297358 0.97705364 
-0.40884218 -0.23459795 0.88193643 
0.16064908 0.5022871 0.8496468 
0.16395499 0.8715629 0.46205747 
-0.15020813 0.54896396 0.82223845 
-0.3676304 0.36621526 0.8548301 
-0.5318162 0.6924769 0.48749086 
0.13364589 0.20253156 0.97011334 
0.23026143 0.9134577 0.33552176 
-0.66393405 0.66708523 0.33791855 
0.028102601 0.9906352 0.13361236 
0.7570842 0.024929632 0.6528415 
0.91190475 0.14623478 0.38346455 
0.5881904 -0.048014425 0.807296 
0.41232595 -0.088346705 0.90674263 
-0.0884173 0.28347835 0.954894 
0.2583607 0.5796919 0.7727917 
-0.1514716 0.6235166 0.7669963 
0.30617282 0.9054214 0.2940586 
0.13376972 0.61528826 0.7768694 
0.33042613 0.6521618 0.6822783 
0.04277865 0.74544406 0.66519415 
0.08193669 0.9217436 0.37904516 
0.57221264 0.47126952 0.6711765 
0.33138648 0.31201088 0.8904113 
-0.023702187 0.7883594 0.61475825 
0.4044219 -0.10130284 0.90894485 
0.4030364 -0.3943621 0.8258572 
0.5629313 -0.09826938 0.82064086 
0.24367595 0.26462096 0.9330584 
0.29830453 0.03541274 0.9538136 
-0.34470835 -0.1090929 0.9323492 
-0.65233284 0.024355968 0.7575413 
-0.016755493 0.30284107 0.9528938 
-0.0125159165 0.23692475 0.97144747 
-0.051937725 0.5439347 0.8375187 
-0.588794 0.0241526 0.80792224 
0.06208204 0.021020105 0.9978497 
0.22233415 -0.5340665 0.815684 
0.12378589 0.44895494 0.8849387 
-0.76042664 -0.05784919 0.64684224 
-0.22093572 0.08344832 0.9717118 
0.5780539 -0.62106246 0.529278 
0.15097775 0.22184834 0.96332186 
0.24806853 0.93391854 0.25740662 
-0.050791647 0.948631 0.31228128 
0.34587663 0.9358345 -0.067699574 
0.19660586 0.89375186 0.40317976 
0.105679624 0.21474256 0.9709364 
-0.18120863 0.2451928 0.9523885 
-0.28691852 0.1240066 0.9498948 
-0.19381908 0.64890724 0.7357673 
0.11003017 0.9171617 0.38302448 
-0.537059 0.5803622 0.61216617 
-0.10763118 0.92106664 0.374235 
0.066372916 -0.038021997 0.9970702 
0.027251916 0.98323464 0.1802972 
-0.1494428 0.82678044 0.5423107 
-0.124890596 0.8365934 0.53339833 
0.25665155 0.64000905 0.7242365 
0.20623808 0.42125168 0.88318336 
-0.8603073 0.17976648 0.47702774 
-0.6191299 -0.16837764 0.76702493 
-0.51314723 -0.3542782 0.7817716 
0.15385059 -0.033227134 0.9875353 
0.72745353 -0.28864747 0.62249017 
0.13288353 0.6433259 0.75397205 
-0.24691328 0.12543887 0.96088445 
0.50540334 0.012960985 0.86278594 
-0.17425607 -0.10065207 0.9795428 
-0.27763268 -0.05345927 0.9591987 
-0.24904257 0.027419774 0.96810436 
0.46049094 0.013003008 0.88756925 
0.27829123 0.45212257 0.84743094 
0.18614104 0.3460452 0.9195674 
-0.01919733 0.056639537 0.9982102 
0.41656786 0.16139318 0.8946639 
-0.34592432 -0.16648406 0.923374 
-0.54211545 0.3561247 0.7611086 
-0.23268676 0.7668858 0.5981163 
0.5799231 0.4816813 0.6570178 
-0.19132595 0.7799261 0.5959109 
0.2537261 -0.04158739 0.9663818 
0.2684999 0.7769816 0.5693922 
-0.17042108 0.68225414 0.7109754 
0.37241054 0.29320338 0.88053524 
0.9367063 -0.3324988 0.10966222 
0.20500329 0.5854352 0.78437185 
-0.19847907 0.6427375 0.73992884 
0.10558469 0.723572 0.68212575 
0.44355357 -0.39217693 0.80588925 
0.9319963 -0.30881545 0.18977898 
0.9387929 0.33852327 -0.06379733 
0.8704975 -0.22497688 0.43774363 
-0.2702823 0.5900614 0.76077265 
-0.029268699 0.29462272 0.9551653 
0.2753203 0.91520494 0.2942765 
0.20882775 0.73956496 0.6398709 
0.55707854 0.8245603 0.09881345 
0.46907154 0.7183472 0.51376 
0.33996615 0.22159995 0.9139565 
0.63430995 0.7093209 0.30743253 
0.5132296 0.5694341 0.64213717 
0.63596416 0.032640204 0.77102804 
0.5418498 -0.14143209 0.82849014 
0.93417543 -0.18540493 0.3048628 
0.5322149 0.046160266 0.84535 
0.85106426 0.22035545 0.47658497 
0.14153221 -0.043444905 0.9889799 
-0.10964807 0.8346385 0.539774 
0.28227687 0.3369315 0.89821887 
-0.14898594 0.60119057 0.7850944 
0.25340125 0.6447652 0.7211558 
-0.37916398 0.29572865 0.87680054 
0.17287908 0.19764867 0.96490824 
-0.022505008 0.20503496 0.97849596 
-0.27085966 0.79092425 0.54870194 
-0.680324 0.71080273 0.17865828 
-0.069543146 0.9683766 0.23960514 
0.5680498 0.815858 0.108144656 
0.46578842 0.8686085 -0.16899836 
0.526494 0.8501769 -0.0017945119 
-0.48469457 0.86482275 0.13096896 
-0.07578596 0.49329755 0.86655307 
0.33684433 0.923003 0.18601447 
0.4565008 0.43935072 0.77367836 
0.6448172 -0.15963471 0.74748087 
-0.11165942 0.16367708 0.9801745 
0.03104722 -0.068474114 0.9971697 
0.10123631 -0.27875024 0.95501286 
-0.0025494106 0.13519092 0.9908163 
-0.33686796 -0.33388048 0.8803657 
-0.68556786 0.21211034 0.6964237 
-0.33352774 0.82414776 0.45775497 
0.0013181642 0.786639 -0.6174119 
0.20681424 0.86056745 0.4654585 
-0.15666005 0.5631794 0.8113487 
-0.034979716 -0.06415078 0.99732697 
0.3572469 0.8826867 -0.30535063 
0.7071043 0.7039609 0.0666523 
0.7984412 0.026188362 0.601503 
-0.2064013 0.5700915 0.79523224 
0.38571793 0.84970003 0.35948813 
0.09700495 0.45760605 0.88384765 
-0.22441915 0.5415621 0.81015223 
0.41219687 0.0061178766 0.9110743 
-0.066752605 0.38910025 0.9187738 
-0.2476586 0.46024173 0.85255075 
-0.10426864 -0.004982652 0.99453676 
-0.16066174 -0.3929969 0.9053957 
-0.31910777 -0.06946274 0.94516945 
-0.56147057 0.09693563 0.8217994 
-0.6814704 0.6126935 0.40025592 
-0.64370584 0.5474069 0.5347789 
-0.42943394 0.7859755 0.44478 
0.7488026 0.28991622 0.5960229 
0.5248407 0.44622648 0.7248615 
0.15655579 0.6251955 0.76460505 
0.033060674 0.56328213 0.825603 
-0.030667549 0.61162335 0.79055446 
0.40243933 -0.49038967 0.77302057 
0.3793813 0.13159913 0.9158338 
0.4639845 0.3858723 0.79738384 
-0.38481995 0.36232483 0.84890187 
-0.20023747 0.1034456 0.974271 
-0.24526298 0.34564433 0.90574616 
0.04486678 0.48409262 0.8738658 
0.1869608 0.41910627 0.8884794 
0.17832202 0.94902015 0.25992712 
0.021636475 0.6707562 0.7413623 
0.37422416 0.6571186 0.6543329 
0.32690167 0.9113346 0.25020942 
0.21802728 0.07813926 0.97280955 
0.4711509 0.31124935 0.82531255 
0.15334818 0.7479502 0.64579797 
0.07623076 0.29145926 0.95354104 
0.74317056 -0.3003275 0.5979139 
0.83138084 -0.098260626 0.54694694 
0.5628615 -0.4998707 0.6582676 
0.3551814 -0.29853016 0.88584757 
0.38325047 -0.3648445 0.8485326 
0.042943686 0.33830163 0.94005734 
-0.2888758 0.59922415 0.74664664 
-0.08989899 0.94369906 0.31835574 
-0.24848334 0.9564271 -0.15330833 
0.6126165 0.7584894 0.22224995 
0.17586054 0.8302472 0.5289259 
0.01970304 -0.3074311 0.9513663 
-0.15242961 0.26017708 0.95345324 
-0.006716554 0.095018096 0.99545294 
0.40115646 -0.33132103 0.8539906 
0.30751365 -0.82067615 0.48158696 
0.44295776 -0.5152852 0.73366857 
0.38862506 -0.086892225 0.9172897 
-0.14319424 -0.23326448 0.96181244 
-0.2265723 -0.118481025 0.96676123 
0.41516075 -0.26097748 0.8715116 
0.24036431 0.036580104 0.9699933 
0.14032094 0.32928273 0.9337467 
0.6621902 -0.14152394 0.73585004 
0.45147586 -0.42728284 0.78332555 
0.14395891 0.40868747 0.90124935 
-0.25624904 0.6621107 0.7042343 
-0.09856414 0.38572425 0.9173342 
-0.25288203 -0.42366588 0.8698034 