# OOMMF: rectangular mesh v1.0
# Segment count: 1
# Begin: Segment
# Begin: Header
# Desc: Time (s) :  1.0900000000000001e-07
# Title: m
# meshtype: rectangular
# meshunit: m
# xbase: 2e-09
# ybase: 2e-09
# zbase: 5e-10
# xstepsize: 4e-09
# ystepsize: 4e-09
# zstepsize: 1e-09
# xmin: 0
# ymin: 0
# zmin: 0
# xmax: 1.024e-06
# ymax: 1.024e-06
# zmax: 1e-09
# xnodes: 256
# ynodes: 256
# znodes: 1
# ValueRangeMinMag: 1e-08
# ValueRangeMaxMag: 1
# valueunit: 
# valuemultiplier: 1
# End: Header
# Begin: Data Text
0.4404699 0.64925903 0.6200395 
0.44155303 0.039832875 0.8963506 
0.40792307 0.06131647 0.910955 
0.5313031 0.6646647 0.5252979 
0.300308 0.67435855 0.6745782 
0.6112497 0.3540342 0.7078373 
-0.08087663 0.35192415 0.932528 
-0.18169576 0.9699665 0.16171555 
-0.20887572 0.9498381 0.23276299 
-0.11777927 0.5136656 0.84986806 
0.3867585 0.74708724 0.540628 
-0.1514833 0.9855545 0.07573092 
-0.35606417 0.74986523 -0.5576025 
-0.20408775 0.38367474 -0.90063417 
0.2170126 0.41178963 -0.88506204 
0.75098723 0.633974 -0.18464892 
0.5748534 0.77880627 0.2510067 
0.71306175 0.6363012 0.2943873 
0.9179089 0.31695604 0.23870939 
0.8191523 0.5548551 0.14534572 
0.11118028 0.33481017 0.9357036 
0.1469544 0.0049218037 0.98913103 
0.31887707 0.10942972 0.9414577 
0.38067237 0.4159413 0.8258822 
0.35335112 0.31439558 0.881078 
0.076630466 0.32054552 0.9441284 
-0.50771487 -0.39078996 0.7677947 
-0.69479096 0.43577057 0.5721623 
-0.68824464 0.20355745 0.696336 
0.05759102 0.5640724 0.8237146 
-0.041105423 0.7836038 0.6198996 
0.69371396 0.37463775 0.61514837 
0.15373592 0.58036023 0.799717 
0.28736806 -0.25233608 0.9239838 
0.55018353 -0.21644056 0.8065058 
0.13737652 0.9272317 0.34838077 
-0.50717527 0.82089233 0.26250547 
-0.31431216 0.58630043 0.7466322 
-0.013735626 0.5995483 0.8002208 
-0.66601205 0.745096 0.035496566 
-0.26968107 0.96074057 0.06519105 
0.5445625 0.83692044 -0.054917146 
0.12659402 0.38602334 0.91376144 
-0.43267417 0.7903556 0.43374082 
-0.75287014 0.64106274 0.14908142 
-0.08380102 0.7872404 0.61092544 
-0.9876075 -0.05983044 0.14509247 
-0.23147571 0.9596852 -0.15944692 
0.21461987 0.9583751 0.1882961 
0.4952541 0.4686328 0.73150986 
-0.12911226 0.31713426 0.939551 
-0.05711945 0.53257555 0.84445286 
-0.32944763 0.649164 0.6856022 
-0.03178787 0.60206085 0.7978173 
0.05570027 0.8014381 0.5954784 
-0.9030098 0.013238188 0.42941618 
-0.7411258 0.2170772 0.63530314 
0.49834284 0.6772365 0.54129946 
0.21150878 0.65007186 0.72984296 
0.5179331 0.6136018 0.5960187 
-0.5487147 0.82170534 0.15398946 
-0.107293785 0.9670936 -0.23069046 
0.63918525 0.72096324 0.26768327 
0.20244019 0.573749 0.7936184 
-0.10948117 0.99023926 0.08625684 
-0.3123259 0.5359864 0.7843285 
0.11841525 0.6524808 0.7484963 
-0.17279373 0.5792033 0.79665923 
0.35048798 0.54613525 0.7608512 
-0.30353144 0.19342329 0.93298244 
-0.6313066 0.46431574 0.6211787 
-0.07380494 0.057746414 0.9955995 
-0.24760973 0.043670673 0.9678752 
0.5357784 0.11726376 0.8361764 
-0.55187935 0.833877 -0.008846826 
0.22325864 0.82340896 0.5216831 
-0.27547646 0.86661965 0.41603273 
0.32857716 0.53583115 0.7777673 
0.12094711 0.9336301 0.33720422 
0.020506794 0.996323 0.0831869 
-0.115964375 0.765889 0.63242894 
-0.0014848337 0.9954436 0.09534142 
-0.70652044 0.6421657 -0.29740885 
-0.66314876 0.6920825 0.28505364 
0.39961907 0.47603825 0.7833852 
-0.31791437 0.9465167 -0.05510637 
-0.42788842 0.8966477 0.11372996 
0.31262776 0.93900377 0.14330323 
-0.44353506 0.7330202 -0.51571137 
0.022548815 0.9912343 -0.13017762 
-0.31813675 0.93181354 0.17467836 
0.53083134 0.39087492 0.75195414 
0.7082568 -0.38223377 0.5935232 
0.5145276 0.25135237 0.8198069 
0.09546348 -0.16446918 0.9817518 
0.042742312 -0.58611757 0.80909795 
0.26556155 -0.42273983 0.8664688 
0.16084693 -0.67479056 0.7202681 
0.43713424 -0.6354172 0.6365208 
-0.6178885 -0.38286185 0.6867537 
-0.26646504 -0.5159902 0.81409496 
-0.18303831 0.025075529 0.98278594 
0.34424487 0.6084509 0.71504056 
0.39278728 0.9195075 0.014972101 
0.70184463 0.6770213 0.22148651 
0.3143956 0.8397873 0.4426205 
-0.6327847 0.22605203 0.74059707 
-0.15019701 0.47870094 0.86503553 
0.24095766 0.8801849 0.4089182 
-0.23335366 0.9621232 -0.14094344 
0.2421703 0.9677701 -0.0690985 
-0.4149583 0.6846403 -0.5992307 
-0.2826746 0.59441644 -0.75283736 
0.3938033 0.5676395 -0.722983 
0.94779396 0.21237987 -0.23786831 
0.8500105 0.5226971 -0.06534424 
0.8947602 0.37475747 0.24281916 
0.6005874 0.118813865 0.790682 
0.5854413 0.30071023 0.7528825 
0.48502943 0.48126808 0.7301558 
-0.35594642 0.8013157 0.4808276 
0.06627915 0.99746287 -0.02598201 
0.62048626 0.7745568 -0.12271383 
0.061257143 0.6734301 0.73670864 
-0.25437436 0.8997587 0.3545815 
-0.06939253 0.8712737 0.4858671 
0.03877083 0.64413893 0.7639254 
-0.25409132 -0.23612322 0.93791443 
0.28080577 -0.1547791 0.947202 
0.6987278 0.3008797 0.64903843 
0.53903836 -0.10366882 0.8358771 
0.025011254 0.50696033 0.8616065 
0.037261475 -0.2382425 0.97049075 
-0.20663148 0.36476213 0.9078833 
-0.15406962 0.98657376 -0.054174326 
-0.5570966 0.74672675 0.3633768 
-0.600406 0.75749606 -0.25634453 
0.19530588 0.5930964 -0.781084 
-0.12894917 0.74606377 -0.65326947 
-0.054698072 0.8502492 -0.52353084 
-0.43169147 0.28954056 0.8542885 
-0.6376481 0.43860525 0.63326955 
-0.26729983 0.8263846 0.4956201 
-0.32513252 0.9307638 0.16723576 
-0.30394518 0.94725066 0.10165404 
-0.5214331 0.8523019 0.041096736 
0.51905906 0.83667636 -0.174787 
0.4993691 0.86550015 -0.039244488 
0.68740875 0.69178575 0.22113755 
0.3283639 0.81861556 0.4712173 
-0.22161667 0.70667934 0.6719304 
-0.82849675 0.11698235 0.547639 
0.13623077 0.98755336 -0.07861116 
0.44626898 0.7368485 0.5078371 
-0.29845512 0.85003144 0.43401757 
-0.67055506 0.49262995 0.5546816 
-0.58045167 0.6098418 0.5396008 
0.5460373 0.8338084 -0.08128195 
0.01936951 0.580463 0.8140563 
0.13250116 0.21044086 0.9685856 
-0.2848957 0.38380834 0.8783654 
-0.3005666 0.42726034 0.8527065 
-0.2462749 -0.0013330154 0.9691992 
0.7482511 0.3510893 0.5629003 
0.8499929 -0.5062669 0.14562286 
0.9791645 -0.19361767 -0.0612316 
0.50089437 0.29314065 0.8143546 
0.3321395 0.5804417 0.74348557 
-0.44499978 0.36396855 0.81823105 
-0.37841076 0.65846705 0.65055853 
-0.6082959 0.60628176 0.5122485 
-0.31382772 0.93264526 0.17800283 
0.23212117 0.81385165 0.5326963 
0.21441029 0.25251755 0.9435376 
0.5012805 0.67578137 0.54040486 
-0.09085775 0.06564881 0.9936977 
-0.69215614 0.6632645 0.2846052 
-0.02976742 0.7478537 0.66319585 
-0.18278082 0.4583754 0.8697604 
-0.05095837 0.725752 0.68606657 
0.26832172 0.10318776 -0.957787 
0.18871306 0.61514544 -0.7654956 
0.15502858 0.7959084 0.58523154 
0.43029067 0.76045233 0.48637658 
0.5243789 0.44541833 0.7256923 
0.80150604 0.45591256 0.38695183 
0.2352638 0.539434 0.80849355 
0.102402106 0.5174891 0.8495405 
0.13339019 0.86839306 0.47759873 
0.44712123 0.8904197 0.08506092 
0.37603945 0.9192553 -0.11646449 
0.9961249 -0.08282696 0.029577516 
0.850247 0.33462372 -0.40633357 
0.8379414 0.40568584 0.3650662 
0.80917495 0.47216073 0.3497145 
0.38625357 0.3919226 0.83498794 
0.20185253 0.9109199 0.35983402 
0.091790155 0.99340445 0.0687186 
-0.42275023 0.899639 0.10923343 
-0.6190771 0.28537643 0.73164475 
-0.0827433 0.9084729 0.40967137 
-0.59002525 0.19622764 0.7831761 
-0.60600847 0.5633457 0.56160086 
-0.96820277 -0.24902663 0.0238551 
-0.7624471 0.308923 0.56854296 
-0.99590486 -0.09024923 -0.00534474 
-0.7142686 -0.004999201 0.69985384 
-0.9101199 0.37524274 0.1757118 
-0.58594537 0.7553942 0.2933387 
-0.16600639 0.96357745 0.20966756 
0.3420578 0.7880896 0.5117729 
0.69151294 0.50049776 0.52087617 
0.85795385 0.44195697 0.2618955 
0.9848435 0.0031598313 0.17341691 
0.96175593 0.05809245 0.26767674 
0.3764391 0.9253363 -0.045237657 
0.99010754 0.04250313 -0.13371892 
0.44738334 0.43995067 0.7786473 
0.9530537 0.0672159 -0.29524678 
0.5129917 0.43504927 0.7399808 
0.87164956 0.07305775 0.4846543 
0.5231525 0.49538314 0.6934746 
0.22130705 0.8888303 0.4012529 
0.59512275 0.14068684 0.79122454 
0.23445797 0.026511056 0.9717647 
-0.73616666 0.4800548 0.47708085 
-0.7902918 0.5945517 0.14814612 
-0.91014326 0.1232412 0.39553902 
0.28886417 0.59971714 0.7462552 
0.20722151 0.2640473 0.9419864 
-0.046647735 0.3135013 0.9484413 
0.33444896 0.74262285 0.58022 
0.5893008 0.38650846 0.7094617 
0.17424297 0.08147712 0.9813261 
0.10659115 0.51410306 0.85107964 
-0.40682676 -0.39176095 0.8252367 
-0.17454626 0.036819704 0.98396033 
-0.62437046 0.42252702 0.6569875 
-0.23730858 0.50084686 0.8323685 
-0.8319409 0.33806938 0.43998122 
0.09941637 0.64767975 0.75539887 
-0.21549533 -0.35181108 0.91092855 
-0.8375576 -0.03582259 0.5451736 
-0.7433786 0.64719087 0.1689149 
-0.13021669 0.9718585 -0.19630283 
0.3159874 0.94533265 0.08061203 
-0.023554334 0.5012942 0.86495626 
0.027658353 -0.05677196 0.998004 
-0.4311188 0.15965188 0.8880585 
0.16867699 0.43707207 0.8834682 
0.2892183 -0.18243179 0.9397188 
-0.09893494 -0.48381776 0.86955863 
-0.3928259 -0.032945983 0.9190226 
0.054724827 0.9870444 0.15082642 
-0.30927113 0.8128303 0.4936177 
0.20241798 0.8394751 0.50429004 
0.22024366 0.34644324 0.9118497 
0.6776029 0.014162163 0.7352916 
0.18717171 0.08285897 0.97882646 
0.80087435 0.1984436 0.564996 
-0.28427547 -0.18851738 0.94002587 
0.16472284 -0.41820973 0.89329004 
-0.6746618 -0.51110166 0.53254724 
-0.45795476 0.34889314 0.81764966 
-0.69220716 0.18841712 0.69666946 
0.06443408 0.68045336 0.7299531 
0.058751572 0.6257421 0.7778143 
0.6141538 0.41803202 0.6693762 
-0.016939346 0.5245616 -0.8512039 
0.62271285 0.6825172 -0.3826213 
0.4389289 0.73329836 -0.5192447 
0.5913011 0.10489022 0.79960066 
0.5047766 0.25084314 0.8260014 
0.45588595 0.40332556 0.79340816 
0.6398369 0.7049968 0.30592197 
0.57249457 0.6332428 0.5208201 
-0.1509865 0.28214055 0.9474175 
0.051265452 0.2029168 0.97785306 
0.42536476 0.07728317 0.9017163 
-0.42792094 0.57705027 0.6956269 
-0.65270627 0.15069567 0.7424725 
-0.88797325 0.4233666 0.17962296 
-0.99452466 0.10205348 0.022489278 
-0.4026327 0.56565386 0.7196685 
0.28792685 0.9064862 0.30883792 
0.35908693 0.15605815 0.9201644 
-0.43226892 0.4690792 0.7701354 
-0.34036678 0.21917024 0.9143932 
-0.14166118 0.18213904 0.9730147 
-0.29979894 -0.42995894 0.8516196 
0.14156978 -0.34494174 0.9278865 
0.78583395 0.19793619 0.5859064 
0.38215533 0.41378692 0.8262794 
0.110954694 0.28722432 0.95141536 
0.06337643 0.633856 0.7708502 
-0.38643816 0.5567135 0.73534733 
0.2150351 0.96962714 0.116546534 
0.12638824 0.85417503 0.50439173 
-0.30366388 0.87916744 0.36722326 
-0.36389875 0.7361033 0.5707273 
-0.42452544 0.8196359 0.38467562 
-0.35409746 -0.2544955 0.899915 
-0.65720546 0.36889952 0.65726274 
-0.57430774 0.79959154 0.17556795 
-0.28249198 0.8805856 0.38048306 
0.29779768 0.93506044 0.19229819 
0.4535434 0.8628069 -0.22329955 
-0.50911564 0.8057151 0.3026957 
-0.49669924 0.75387317 0.43007573 
0.07598048 0.77920204 0.6221505 
0.32728457 0.7207098 0.6111155 
0.44966987 0.80519927 0.3865894 
-0.05046097 0.9534581 0.2972735 
-0.05191958 0.9627561 0.26533955 
-0.067842044 0.9443035 0.3220067 
0.42206097 0.4048483 0.81114894 
0.5192029 0.7209867 0.45891893 
0.37420046 0.87619 0.30375186 
0.049063247 0.17699969 0.9829873 
-0.103861675 0.7246616 0.68123305 
0.09493622 0.4029256 0.9102956 
-0.16343926 0.57323 0.80292904 
-0.5771446 0.33231473 0.74596995 
-0.18334486 0.97822845 0.097230464 
-0.41379234 0.6130708 0.6729934 
-0.6887093 0.15434273 0.7084193 
-0.41962165 0.38984373 0.8197193 
0.048095435 0.00050663936 0.99884266 
0.030669697 0.52835506 0.84846944 
-0.35594234 0.7837621 0.508942 
-0.26036125 0.7905085 0.5543539 
-0.45075893 0.46293274 0.76322335 
-0.19539349 0.030073728 0.9802637 
-0.24570437 0.6060962 0.75648975 
-0.05293941 0.9890747 0.13758141 
0.77769744 0.46441382 0.42368206 
0.3525795 0.45362562 0.8184813 
-0.4573133 0.87845653 0.13848682 
-0.73678386 0.5961209 -0.31904477 
-0.22066653 0.8955411 0.38640997 
0.24877514 0.640031 0.72696036 
0.11260516 0.99363846 0.0016417198 
0.30991513 0.9416246 0.13151346 
-0.32337454 0.9336684 0.15392318 
-0.1964972 0.8959051 -0.39842567 
-0.08364787 0.995454 0.045544602 
-0.1349452 0.90016526 0.4141162 
0.3569157 0.04061648 0.93325317 
0.70962155 0.39119503 0.5860066 
-0.24071415 0.48684847 0.83966386 
0.09817133 -0.19169007 0.9765334 
-0.55898285 -0.32726812 0.76186216 
-0.05265821 -0.67754227 0.7335964 
0.04837113 -0.70003086 0.71247256 
-0.17383595 -0.29218113 0.9404314 
-0.27349782 -0.3496407 0.896075 
-0.29493067 -0.118703395 0.94811684 
-0.43814054 -0.26590204 0.8586786 
-0.058452714 0.048541147 0.9971094 
0.4876815 0.7628167 0.4245907 
0.41963544 0.8707357 0.25636965 
0.4882987 0.64143014 0.59171945 
0.29086927 0.087044396 0.9527951 
-0.08667232 0.37732884 0.9220146 
-0.1018343 0.79898 0.5926726 
-0.15561336 0.5087677 -0.84672314 
-0.10112357 0.83540213 0.54025686 
-0.46367458 0.8492744 -0.25246587 
-0.26399893 0.6020929 -0.75351757 
0.29115126 0.5208437 -0.8024667 
0.3439679 0.7036431 -0.6217496 
0.7284093 0.5199824 0.44613716 
0.65785795 0.741104 0.13411847 
0.7488544 0.35818067 0.5576054 
0.70739645 0.6055682 0.36452377 
0.5535551 0.61186504 0.5649761 
-0.04243545 0.4935376 0.8686886 
0.12704076 0.14784162 0.98081785 
0.15772761 0.56201875 0.8119465 
0.036192846 0.16671784 0.98534024 
-0.56475025 0.48040673 0.6710191 
-0.2805668 0.48891354 0.8259818 
0.250129 0.23787321 0.9385371 
0.48440665 -0.10312367 0.8687437 
0.45644107 -0.266216 0.84899396 
-0.12932445 -0.14009795 0.9816556 
-0.6293248 -0.6109962 0.48024383 
0.019851238 -0.17363468 0.9846101 
-0.10562247 0.4934941 0.8633119 
-0.02694873 0.015260934 0.99952036 
-0.690659 0.09331614 0.7171348 
-0.7988817 0.26659268 0.5391814 
-0.26967853 0.958819 -0.08910496 
0.5703958 0.8040111 0.16797303 
0.14666124 0.98715794 -0.06332231 
-0.28938642 0.91677904 0.27526668 
-0.4301352 0.5810144 0.69094574 
-0.06628426 0.8077091 0.5858433 
-0.4340254 0.6794115 0.5916266 
-0.015936827 0.7913096 0.6112081 
-0.5576721 -0.05183414 0.8284414 
-0.56817716 0.8185168 -0.08488286 
0.32676238 0.84658813 -0.4201369 
0.51503193 0.29297155 0.80554944 
0.28411353 0.66515195 0.690545 
-0.25041175 0.9285818 0.27391583 
-0.49332085 0.83419883 0.24646915 
-0.60331154 0.1436905 0.7844542 
-0.0755383 0.5083549 0.8578283 
0.055230852 0.3466859 0.9363538 
-0.398196 0.2333005 0.8871364 
-0.68471104 0.08796582 0.72348666 
-0.33006078 0.28367114 0.90032804 
-0.31174695 0.41377717 0.8553375 
0.06395997 0.21864977 0.97370505 
-0.22008358 0.4196771 0.8805876 
0.3993836 -0.06849432 0.91422176 
0.30857772 0.06765757 0.94878995 
-0.0034729487 -0.56000435 0.8284824 
0.51652694 0.4480785 0.729675 
0.4403072 -0.06900357 0.8951916 
-0.3721672 0.7375536 0.5634769 
0.41056353 0.4665643 0.7834254 
0.40647995 -0.11038653 0.9069668 
-0.46936327 0.09232476 0.87816536 
-0.44506496 0.33333713 0.83114606 
-0.119683884 0.9014409 0.41602886 
0.29318798 0.5989592 0.74517703 
0.2074296 0.18778683 0.96005684 
-0.4313912 0.21885884 0.87521577 
0.5154602 0.6215372 0.58990884 
0.13615334 0.14735672 0.9796675 
0.5922605 -0.020791622 0.80547833 
0.1025905 0.36262807 0.92627007 
0.375515 0.43266988 0.819625 
0.35685232 0.7196402 0.59562945 
0.5578462 0.77502733 0.2968844 
0.61326444 0.758889 -0.21907601 
0.7085081 0.6091286 0.3563407 
0.4118904 0.26206487 0.87273616 
0.6775954 0.023351043 0.7350642 
0.5731712 -0.024553673 0.8190677 
0.37688455 0.74345756 0.5524753 
0.30806515 0.63072366 0.71223843 
0.23666584 0.4468616 0.8627305 
-0.31212413 0.77420765 0.55061877 
0.44202647 0.8628582 0.24512936 
0.6068583 0.31217325 0.73093843 
0.84599984 0.52551204 0.09011849 
0.5244686 0.5527834 0.64758265 
0.50898963 0.8493084 0.14001794 
0.0714745 0.885602 0.45891252 
-0.0557333 0.8929944 0.44660366 
0.11521598 0.9082613 0.40222746 
-0.48509747 0.8655154 0.12475454 
0.16589652 0.9033138 0.39560395 
0.022954592 0.30259475 0.95284283 
-0.044670973 0.83212715 0.55278283 
-0.23586813 0.9059977 0.3514746 
-0.7441315 0.5089011 0.43276784 
-0.710504 0.58890015 0.3852022 
-0.8817955 0.40847948 0.23575711 
-0.8911717 0.17447886 0.4187721 
-0.5123508 0.65652966 0.5535933 
-0.61658865 0.6916844 0.37602004 
0.16418794 0.83531946 0.524675 
-0.049813736 0.8292568 0.55664337 
0.038523737 0.97695065 -0.20996079 
0.73043996 0.5210285 -0.44157314 
0.7914031 -0.29096934 0.53760403 
0.87345284 0.47011787 0.12676533 
0.43280137 0.7847879 0.44361135 
0.82138383 0.31156343 0.47776246 
0.72671753 0.31131682 0.6123427 
0.70493495 0.015463693 0.70910347 
0.73617 0.12706733 0.66476136 
0.8873718 0.08386017 0.45336393 
-0.071092986 0.338615 0.93823546 
0.20098364 0.340793 0.918404 
0.06547294 -0.0909626 0.9936997 
-0.5179874 0.1672664 0.838875 
-0.68547744 0.6342353 0.3575839 
-0.7214353 0.68431354 0.10604758 
-0.90999806 0.03983686 0.4126945 
0.87746036 0.30074856 0.3736493 
0.011827215 0.36559224 0.9307 
0.67086124 -0.17065914 0.72167915 
0.19372414 0.05703209 0.9793969 
0.07762891 0.95897263 0.2726633 
-0.6665898 0.7386499 0.10027209 
-0.18452196 0.3745832 0.9086468 
-0.81776273 0.27300948 0.5066853 
-0.79631495 0.26138684 0.54549026 
-0.39693 0.5960131 0.69800794 
-0.3346583 0.35854772 0.87146276 
-0.4797157 0.8126587 0.33084562 
-0.08924293 0.9918611 -0.09081493 
-0.80481213 0.52747667 0.272114 
-0.5248003 0.630104 -0.57232296 
-0.041515104 0.94783264 -0.31605363 
-0.37782848 0.9181419 0.119420424 
0.048483774 0.8661175 0.49748364 
0.101347074 -0.33985782 0.9350003 
0.4458862 -0.0789246 0.89160335 
-0.08773692 0.28510606 0.95447206 
-0.5290804 0.12516542 0.83928996 
-0.31695008 0.7835506 0.53440726 
-0.47061196 -0.55177367 0.68852764 
-0.13189633 0.59638846 0.7917855 
-0.33658913 0.72340107 0.6028256 
-0.4642978 0.6286348 0.6238957 
-0.17089011 0.20665847 0.96337366 
0.5617008 0.1289684 0.81722665 
0.47771788 -0.17140348 0.86163014 
0.7977113 -0.44061118 0.41172618 
0.86458105 0.016574452 0.50222 
0.3153264 -0.21218163 0.9249585 
0.20602928 -0.0077692997 0.9785151 
-0.5273919 0.4810409 0.7003267 
0.2532485 0.3509068 0.9015152 
-0.41027528 -0.3306113 0.84992373 
0.25957543 0.2941854 0.91982365 
0.0052732094 0.86581045 0.50034446 
-0.07823338 0.9204584 0.38293082 
0.21773666 0.9645848 -0.14888567 
0.5412283 0.81093246 -0.22239688 
0.756404 0.5688797 -0.32284492 
0.44740543 0.6778709 0.58336914 
0.8858362 0.35912633 0.29380688 
0.38839048 0.5638008 0.7288906 
0.46023652 0.53738624 0.7066813 
-0.35775176 0.6105818 0.7065434 
0.13501324 -0.32969266 0.9343844 
0.6952199 -0.087052025 0.71350634 
0.44861513 0.8268554 0.33919725 
-0.13647173 0.16655451 0.9765424 
-0.2542146 0.16175595 0.953525 
-0.20521486 -0.16724941 0.9643207 
-0.18592705 0.33875498 0.92232114 
0.30459598 0.5365218 0.78699785 
0.26361275 0.6012496 0.7543258 
0.66169596 0.4394894 0.60745996 
-0.0674346 0.5901579 0.80446637 
0.15343437 -0.5698836 0.80727357 
-0.05242104 -0.08365839 0.99511474 
-0.26857746 -0.7468497 0.6083435 
0.08963005 0.021530993 0.9957424 
0.4563851 0.50588745 0.7319772 
0.7066114 0.43627074 0.5571071 
0.012756347 0.6493746 0.7603618 
0.4248561 0.5296518 0.7341433 
0.1855002 0.10098985 0.9774409 
0.06788958 0.4382172 0.8963017 
0.099848285 0.9186345 0.38228387 
-0.45165914 0.5099394 0.73209697 
-0.5225778 0.0028689473 0.85258675 
0.16622978 0.5594051 0.81205523 
0.3561504 0.05093328 0.93303955 
-0.80119264 0.28899217 0.52399796 
-0.34314096 0.74802446 0.568079 
-0.32958594 0.8994456 0.287003 
-0.059539918 0.6034903 0.79514444 
-0.11068096 0.7454164 0.6573463 
-0.70023215 0.2413384 0.67188597 
-0.13455556 0.8741264 0.46668833 
0.21903303 0.5832849 0.78217864 
0.5246905 0.8445636 0.106828794 
0.2452514 0.873951 0.41959673 
0.043634083 0.9208538 0.38745898 
-0.42291757 0.62412214 0.65697217 
-0.30208918 0.7237025 0.62048113 
0.6101041 0.64074826 0.46606308 
0.95335287 0.30183142 0.004009464 
0.39821246 0.67807066 0.6177759 
-0.16273414 0.27531952 0.9474791 
0.12375943 -0.3934978 0.9109573 
-0.058551032 -0.11163747 0.99202263 
-0.20495419 -0.17023423 0.9638538 
-0.09114123 0.2905666 0.9525043 
-0.19212957 0.71368635 0.67360085 
-0.1675174 0.7960412 0.5815981 
-0.70504034 0.3716396 0.6039886 
-0.48087135 0.77294457 0.4139077 
-0.14804713 -0.25747874 0.95487523 
0.1498399 0.5585823 0.81580263 
0.10506122 0.1468884 0.9835578 
0.066007294 -0.33876917 0.93855125 
-0.5041231 0.5850852 0.6352443 
-0.5153857 0.315331 0.79683375 
-0.35344213 0.796599 0.4904169 
-0.43933055 0.7012443 0.561467 
0.50117445 0.5639665 0.65632766 
-0.002772557 0.8868502 0.4620488 
-0.16907881 0.7788529 -0.6039874 
-0.15497676 0.9175876 0.36608085 
-0.73229027 0.6805437 -0.024723368 
-0.17926833 0.6619485 0.72779614 
0.27050173 0.7367551 0.6196941 
0.507633 0.5349382 0.6753888 
-0.27255943 0.7106149 0.648643 
-0.3869194 0.29863256 0.87241733 
0.032470223 0.97743034 0.20874786 
0.1650585 0.85636973 0.48927158 
0.05857003 0.9748501 0.21502766 
0.7078791 0.25074333 0.6603295 
0.3722943 0.58448905 0.7209504 
-0.25296402 0.041860092 0.9665697 
-0.38963327 -0.28681237 0.8751712 
-0.27634007 -0.7165424 0.64047104 
0.041864187 -0.09874008 0.99423224 
-0.2843156 -0.054674815 0.95717055 
0.18740128 0.34355932 0.9202434 
-0.14800608 0.19587398 0.9693955 
-0.31519172 -0.3519673 0.8813474 
-0.7291104 -0.2629303 0.63187474 
-0.4449516 0.87949 -0.16886543 
-0.23046489 0.66314995 0.7121223 
-0.20628071 0.48166695 0.8517307 
-0.14519309 0.32480708 0.9345692 
-0.5389677 0.7272114 0.4250618 
-0.8612181 0.32407486 0.3915086 
-0.29554152 0.9215728 -0.25171214 
0.07437802 0.759179 -0.64661837 
-0.38080463 0.83362126 -0.40007928 
-0.34742242 0.9343889 0.07883686 
-0.113860436 0.8006615 0.588198 
0.22879483 0.8939622 0.38533685 
0.97810835 -0.15576191 -0.13799405 
-0.24440314 0.68249667 0.6888146 
-0.6835111 0.15840039 0.71254617 
-0.23727998 0.636514 0.7338584 
-0.007884102 0.91218376 0.40970555 
0.4200498 0.6784312 0.6027349 
-0.0650205 0.20137523 0.9773538 
-0.42260882 0.5727104 0.7024277 
0.33830726 -0.40683097 0.84854984 
-0.3744647 0.4463755 0.812727 
0.4189152 0.677004 0.60512453 
0.73420745 -0.28716326 0.61520463 
0.6227536 -0.064699665 0.7797384 
0.082696706 -0.5017311 0.86106175 
0.07292153 -0.88462037 0.46057504 
-0.5732049 -0.5503347 0.60709804 
-0.54305714 0.46081796 0.7019515 
0.12120116 0.03801135 0.99189997 
-0.6461438 -0.19539346 0.7377802 
0.0033863834 -0.22128035 0.9752044 
0.3722321 -0.008173842 0.92810374 
0.10310395 0.5672927 0.81703657 
0.17931843 0.6082051 0.7732603 
0.058124885 0.71600795 0.6956681 
0.3998364 0.7825434 0.47723886 
-0.3814483 0.7327129 0.5635858 
-0.45642304 -0.24136724 0.85639936 
-0.27423698 0.6243575 0.73141766 
-0.23849185 0.6904476 0.6829376 
0.07763509 0.8288872 0.5540026 
0.46073967 0.8795334 0.11891143 
0.14070852 0.9898078 0.021950698 
0.21714029 0.89415276 0.39158773 
0.3764406 0.6862635 0.62236243 
-0.010849589 0.9920643 0.12526241 
-0.599191 0.8005857 -0.0057317005 
-0.052541714 0.8416903 0.53739816 
-0.49325937 0.36548463 0.78937703 
-0.2869266 0.72985923 0.62046653 
-0.14231765 0.6244499 0.76798964 
-0.69696707 0.45784488 0.5519195 
-0.6104641 0.332404 0.7189167 
0.08481341 0.0034334993 0.99639094 
0.33818153 -0.13331097 0.93159086 
0.24826373 -0.10316053 0.9631838 
0.657977 -0.18937884 0.728836 
-0.36063424 -0.28670308 0.88754964 
-0.48053855 0.0014763981 0.8769724 
-0.25645092 -0.4095488 0.87550145 
-0.7177658 -0.4425182 0.5375778 
-0.3509798 0.29225287 0.8896075 
-0.06847295 0.3021019 0.95081335 
0.078541815 -0.2227084 0.97171617 
-0.25080115 -0.045555238 0.9669662 
-0.64030355 0.6867796 0.34401336 
-0.81956595 0.55634546 0.13708201 
-0.56735307 0.39320958 0.7235308 
-0.46508512 0.59660226 0.65403485 
-0.08268001 0.78849113 0.6094636 
0.8197689 0.18457633 0.5421351 
0.7955446 0.12228501 0.59342664 
0.15400936 0.5287106 0.83471334 
0.37337565 0.6006162 0.7070013 
0.20867959 0.74623436 0.6321291 
0.38925478 0.5041205 0.77093667 
0.075670406 0.3177941 0.9451354 
0.087942295 0.65469563 0.7507595 
0.27624783 -0.08253106 0.95753634 
0.5875374 -0.11936521 0.8003447 
0.056425642 -0.32837483 0.94286066 
0.31679443 -0.07700177 0.9453635 
-0.042016782 -0.4391683 0.89742184 
0.14503947 0.378449 0.9141882 
0.83459294 0.15690158 0.52804977 
0.41188335 0.6151233 0.6722913 
0.10993239 0.7089971 0.6965903 
0.19716975 0.44663665 0.87271976 
0.33197123 0.8619322 -0.3832336 
0.6707086 0.595213 0.4425737 
-0.059188943 0.6030615 0.7954958 
-0.20184378 0.73251075 0.650144 
-0.5700346 0.8135754 0.1146982 
0.2633108 0.9248844 0.2743288 
0.09681769 0.8994056 0.42625818 
-0.3076222 0.42385375 0.85189 
0.08453867 0.34531194 0.9346726 
0.22702652 0.6005846 0.7666532 
-0.4847392 0.21100734 0.848825 
-0.3123506 0.21131784 0.9261652 
0.2316979 0.5283071 0.8168279 
-0.22647603 0.42186904 0.8779152 
0.20885266 0.15809938 0.96508294 
-0.65445375 -0.32510823 0.6826383 
-0.32823533 0.8083379 0.48872423 
-0.21585666 0.7004829 0.6802423 
-0.50186753 0.23114766 0.8334865 
-0.57467216 0.78953725 -0.21536672 
0.5722551 0.78211147 0.24662906 
0.93353075 0.31773958 0.16601807 
0.909994 0.20330091 0.36135817 
0.80979955 0.47320923 0.3468395 
0.28334424 0.09805736 0.953992 
0.16919819 -0.25732273 0.9513974 
0.74481285 0.32992867 0.5800008 
0.52836794 0.27439028 0.8034534 
0.9271486 0.13568875 0.34926227 
0.4701524 0.25456244 0.84507686 
0.347279 0.6897146 0.6353669 
0.32856548 0.35121912 0.87674963 
-0.109390706 0.55876845 0.8220775 
0.1110479 0.33109382 0.93704075 
0.26715323 0.8833041 0.38523135 
-0.07013962 -0.31596878 0.9461735 
0.48685896 0.10716411 0.8668819 
0.53096783 0.2146248 0.81976175 
0.5888893 0.30771077 0.7473443 
0.2479531 0.60020584 0.76044214 
-0.10027519 0.16933073 0.98044485 
-0.14169985 0.92826164 0.34387732 
-0.16599414 0.33321366 0.9281243 
-0.12676576 0.354908 0.9262671 
-0.41252804 0.37185246 0.8315928 
-0.51451975 0.4444384 0.73331034 
-0.3946283 0.1451577 0.9073025 
-0.17236337 0.5669199 0.80553883 
-0.9071174 0.23162436 0.35140878 
-0.72483903 0.6859339 -0.064055905 
-0.28380075 0.6538722 -0.70136184 
0.17894453 0.89671415 0.40482432 
0.3754983 0.79535 0.4758356 
0.11803123 0.45112106 0.8846234 
0.2281889 0.86930645 0.43844748 
0.4872452 0.61806476 0.6169182 
0.3179086 0.10515943 0.94227153 
-0.20364815 0.08653085 0.9752127 
-0.28424627 0.69099206 0.66463083 
-0.5532968 0.018322855 0.83278275 
-0.09857978 0.68906444 0.717964 
-0.17628269 -0.2928888 0.9397556 
-0.56072795 0.39288247 0.72885364 
-0.43359324 0.41878074 0.7978846 
0.8884974 0.007601096 0.4588188 
0.48159757 -0.5120678 0.7112316 
0.5078204 -0.38599673 0.77014613 
0.7381345 0.046577297 0.67304385 
0.763714 -0.4404554 0.47195333 
0.25041747 -0.3224079 0.9128769 
0.51379025 -0.038976233 0.85703 
0.11867816 0.06942159 0.990503 
-0.36079195 -0.5367876 0.7626848 
-0.0039492627 -0.6892963 0.72446877 
-0.06546436 0.18134883 0.98123753 
0.39526 0.57319206 0.71778864 
-0.3507377 0.92174685 -0.16542616 
0.6858581 0.6176921 -0.38477933 
0.6822337 0.7116451 -0.16768537 
0.34228605 0.46095195 0.8187573 
0.7379087 0.48424655 0.47010213 
0.0154552795 0.6744302 0.7381769 
0.12498255 0.27300897 0.95385826 
0.38413635 0.4856679 0.7852172 
0.44327635 -0.046223044 0.89519256 
0.52206707 0.016936766 0.8527363 
0.6216783 0.33442912 0.70828897 
0.25278234 0.6066268 0.75372744 
0.33665144 -0.048968486 0.94035524 
0.14504778 0.71194595 0.6870912 
-0.030487195 0.33356825 0.94223297 
0.6118638 0.65503424 0.44334283 
0.5829852 0.5874145 0.56131315 
0.32023674 0.23488969 0.9177556 
-0.013131735 -0.5815824 0.81338155 
0.08338747 -0.58198535 0.8089126 
-0.3395826 -0.5193642 0.78418404 
0.11438437 0.02100529 0.9932145 
0.38405323 0.016034266 0.92317176 
-0.16168596 0.07954399 0.9836313 
0.43531635 -0.05959449 0.89830303 
-0.07759154 -0.017629528 0.9968294 
-0.24503388 0.118936844 0.96219146 
0.5361969 0.10797969 0.83715785 
-0.117929116 0.306346 0.9445871 
-0.31935915 0.14325368 0.9367434 
-0.5845118 -0.018642282 0.811171 
-0.05535848 -0.13957162 0.9886634 
-0.31135482 0.44056368 0.84199876 
-0.25397298 0.5733422 0.77895856 
-0.14755203 0.15586704 0.9766954 
-0.8610261 0.21882302 0.45907578 
-0.39708075 0.8865623 0.23734799 
-0.18044183 0.9745577 -0.1329591 
0.07295793 0.25217322 0.9649279 
-0.7443022 0.51756465 0.42206758 
-0.42537022 0.9040097 0.042740475 
0.48717132 0.8610733 -0.14565971 
0.6787668 0.6506771 0.3404337 
0.65189147 0.46942446 0.59554875 
-0.0690616 0.44343683 0.8936411 
-0.5190442 0.61120445 0.59751344 
-0.23185761 0.6627408 0.71205103 
0.463076 0.8692725 0.17299192 
0.37090543 0.5255877 0.7656284 
0.2410503 -0.07802783 0.9673709 
-0.5302904 0.49141675 0.6908702 
-0.29139954 -0.3834312 0.8763942 
0.1379208 -0.4282994 0.89304954 
-0.47721407 0.56212497 0.6754868 
-0.17367159 0.417416 0.8919654 
-0.16840069 0.7223336 0.67072755 
-0.25800946 0.58772504 0.76681846 
-0.7880691 0.5539065 0.2685789 
-0.77368873 0.56213844 0.29224327 
0.09761561 0.48332104 0.86998385 
0.733197 0.36713117 0.57239574 
0.30462942 0.28669062 0.9083003 
-0.35957894 -0.07978469 0.9296975 
-0.7346393 0.17273372 0.65610075 
0.31273472 0.21395838 0.92542905 
0.95356226 0.0067574363 0.30112028 
0.7636489 0.6446029 -0.03643304 
0.14171526 0.96545833 0.21864827 
0.41814816 0.88218594 0.21656427 
0.15535584 0.9809067 -0.11698977 
0.21935412 0.706051 0.67333186 
-0.11641367 0.28881103 0.95028216 
0.56284016 -0.07847929 0.8228318 
-0.36217725 0.52912265 0.76737016 
0.089330144 0.6842564 0.7237495 
0.50149643 0.57770914 0.6440136 
0.19691662 0.23341396 0.95223 
0.02125736 0.84888196 0.5281551 
0.5690043 0.8210967 0.045103204 
0.48988783 0.5942247 0.63789254 
0.4013694 0.6963802 0.59494305 
-0.5376974 0.15996192 0.82782465 
-0.053457342 -0.13343868 0.98961437 
-0.38442034 -0.04981906 0.921813 
-0.01993077 0.027302127 0.9994285 
0.23925921 0.18373309 0.9534134 
-0.14810912 -0.22034179 0.9641127 
-0.0021325557 -0.63149595 0.7753763 
-0.5433467 -0.5886227 0.5985798 
-0.82878923 -0.40667093 0.3843532 
-0.900469 0.37941146 -0.21260905 
-0.8150007 0.5540258 -0.16979161 
-0.80368453 0.52319777 0.28347015 
-0.20341432 0.80315197 0.5599727 
-0.7731228 0.52731127 0.35245433 
-0.39786297 0.8606327 0.31783095 
-0.88341177 0.45956215 0.091577716 