# OOMMF: rectangular mesh v1.0
# Segment count: 1
# Begin: Segment
# Begin: Header
# Desc: Time (s) :  1.1500000000000001e-07
# Title: m
# meshtype: rectangular
# meshunit: m
# xbase: 2e-09
# ybase: 2e-09
# zbase: 5e-10
# xstepsize: 4e-09
# ystepsize: 4e-09
# zstepsize: 1e-09
# xmin: 0
# ymin: 0
# zmin: 0
# xmax: 1.024e-06
# ymax: 1.024e-06
# zmax: 1e-09
# xnodes: 256
# ynodes: 256
# znodes: 1
# ValueRangeMinMag: 1e-08
# ValueRangeMaxMag: 1
# valueunit: 
# valuemultiplier: 1
# End: Header
# Begin: Data Text
0.33027846 0.22099912 0.91764677 
0.40951693 -0.47101378 0.7813079 
0.4139619 0.3936522 0.8207762 
0.6642306 0.35410187 0.65833855 
0.6749974 0.33103684 0.6593884 
0.7691097 0.36776632 0.5227028 
0.7530518 0.4985489 0.4293742 
0.69679296 0.094576694 0.71100974 
0.86040926 0.39996508 0.31579086 
-0.45839226 0.7657319 0.45114425 
-0.18499836 0.4421897 0.8776354 
0.14722757 0.97980756 -0.13528189 
-0.056374747 0.9742738 0.21820302 
-0.41096118 0.7436591 0.527335 
0.07918794 0.83231235 0.54862154 
-0.36437675 0.814941 0.4506671 
-0.34964573 0.9304037 -0.10998543 
-0.17073163 0.9820499 0.08017933 
0.31627494 0.9008424 -0.29741082 
0.9347949 0.34876454 0.06724475 
0.39446753 0.633762 0.665388 
-0.22274552 0.37017193 0.90186316 
-0.45198795 0.31402266 0.8349232 
-0.041706964 0.09611154 0.9944964 
-0.3795701 0.36100045 0.8518247 
0.03325366 0.06414705 0.9973863 
-0.13802981 -0.16370465 0.97680527 
-0.36407056 0.3215229 0.8741143 
0.5724961 -0.010478986 0.8198405 
0.6937511 0.010555637 0.72013754 
0.7547604 0.30296427 0.5818502 
-0.07149431 0.516561 0.85326046 
-0.21139891 0.95545304 -0.20596132 
0.30802566 0.9509249 -0.029360596 
0.48336962 0.48725098 0.7272829 
-0.09504327 0.9640721 0.24805608 
-0.24822187 0.96673036 -0.061794125 
-0.083268985 0.7862861 0.6122259 
0.5667269 0.49337655 0.65984863 
0.7529363 0.59924096 0.2720243 
-0.21164665 0.6946873 0.68747026 
-0.32412905 0.7452578 -0.58269304 
0.68728626 0.29345694 0.6644702 
0.69423705 -0.10532946 0.7119977 
-0.029010918 0.7785305 0.62693596 
0.63836396 0.33251184 0.6942099 
0.29954705 -0.44138867 0.84584147 
0.4995121 0.21261878 0.83981 
-0.32382047 0.91379184 0.24520405 
-0.013881292 0.8084397 0.5884155 
0.29835123 0.44319674 0.8453184 
-0.15062416 0.15603222 0.9762 
-0.98375016 0.15742649 0.086327896 
0.32577726 0.7944225 0.5126034 
-0.49411234 0.61598366 0.6135285 
-0.5418816 0.42846727 0.72303534 
-0.91060525 -0.15259202 0.38407543 
-0.73362535 0.06440522 0.67649525 
-0.46028984 0.59563243 0.6582973 
-0.9680272 0.22891541 0.10257293 
-0.82414764 0.5663371 0.0065513565 
-0.8419291 0.4815695 0.24340557 
-0.79893816 0.270723 0.53703535 
-0.9242663 -0.0007963731 0.38174748 
-0.016366508 0.6013646 0.7988071 
-0.34298217 -0.022641407 0.93906903 
-0.5825152 0.73823947 0.34011558 
-0.61726743 0.67506325 0.4040677 
0.009605939 0.16337416 0.9865174 
0.37421072 -0.35550776 0.8564932 
-0.40708217 0.4480274 0.795962 
-0.6171906 0.6639771 0.42214963 
-0.090008974 0.99480844 -0.047483046 
0.5555395 0.80425274 0.21107674 
-0.09243946 0.9570789 0.27469105 
-0.1106125 0.99266803 0.048735514 
0.29670736 0.9321922 0.20732237 
-0.013817762 0.81756914 0.57566464 
0.16387337 0.6849331 0.7099382 
-0.09737949 0.39730418 0.91250575 
-0.34254918 0.7339386 0.5865103 
0.15121984 0.8217855 0.5493644 
0.060436286 0.9979032 0.023166081 
0.04308837 -0.20222043 0.9783917 
0.086272135 -0.5077505 0.8571737 
0.21205124 -0.56038797 0.8006245 
-0.53881794 -0.15156282 0.828676 
-0.2250066 0.7499504 0.6220502 
-0.47951517 0.5598223 0.6757694 
-0.7957843 0.4443661 0.41141963 
-0.9073747 0.26836178 0.32350132 
-0.5759306 0.8159947 0.049565434 
0.3112462 0.7728504 -0.5530174 
0.6418955 -0.0228741 -0.76645094 
0.5241996 -0.46643803 -0.7124959 
0.66214436 0.73784566 0.13095315 
0.4079988 0.5397032 0.73638135 
0.22076449 0.4088664 0.8854894 
0.67184997 0.23015735 0.7040208 
0.42465812 0.23277014 0.8749193 
0.6920545 0.39481556 0.6043022 
0.35708916 0.87166005 0.3357026 
0.061918028 0.44901228 0.8913777 
-0.7176622 0.20359837 0.66596454 
-0.7033061 -0.19485386 0.6836612 
-0.7296894 0.0075046597 0.68373764 
-0.51138234 -0.1046917 0.85295236 
-0.72909105 0.6775044 0.09702633 
-0.30475646 0.95134985 0.04535567 
0.44139886 0.530162 0.7239443 
-0.5788162 0.7804716 0.23629628 
-0.03882315 0.9173836 0.3961063 
-0.31326106 0.9493941 -0.022765692 
-0.25597915 0.7555351 -0.6030269 
0.63259804 0.61837035 -0.46630234 
0.63088197 0.4103117 -0.6585077 
0.68729514 0.26600096 -0.67592084 
0.3122609 0.9320364 -0.18385114 
0.6232382 0.7817353 -0.021543862 
0.9633898 0.2500907 0.0966164 
-0.15387131 0.9774367 -0.14471033 
0.5872582 0.80292225 -0.10219531 
0.038185354 0.73458666 0.67743963 
0.3054948 0.5077826 0.80549973 
0.16240065 0.08203587 0.98330885 
-0.633483 0.07814094 0.76980096 
-0.12192371 0.5891952 0.7987388 
-0.39236072 0.81476223 0.4268673 
0.55052054 0.29023895 0.7827443 
0.72824126 0.4315336 0.5323941 
-0.102391034 0.8735787 0.47579023 
-0.30768827 0.95118475 0.023990603 
0.34851608 0.9312718 -0.1061582 
0.040810034 0.5730361 0.81851345 
-0.22622716 0.8022992 0.55239236 
-0.44273716 0.81981444 0.36316425 
-0.43593943 0.30019578 -0.84843355 
0.8129063 0.558227 -0.1660303 
0.07199118 0.9917149 0.10638999 
-0.5608243 0.8230699 0.08962331 
-0.6190547 0.77684885 0.11522679 
0.2897205 0.53062946 0.7965516 
0.22359872 0.09311879 0.9702229 
-0.26134852 0.40983683 0.87391686 
-0.4247932 0.08840853 0.9009632 
-0.9158807 0.11990457 0.38312602 
0.10102781 0.9386976 0.32960632 
-0.27295005 0.46482366 0.8422809 
0.30329818 0.44210026 0.84413123 
0.23107114 -0.023413645 0.97265506 
-0.5686214 0.05064531 0.8210389 
-0.7894044 -0.067290574 0.6101744 
-0.8096058 -0.37916222 0.4480787 
-0.8328564 0.13628115 0.53644925 
-0.53561 0.0056295134 0.8444467 
-0.516013 0.85480493 0.05512964 
0.12030317 0.8720201 0.47445577 
-0.032479104 0.7545928 0.65538913 
0.47684258 0.8785329 0.028308153 
0.2649894 0.57379067 0.7749483 
0.09672094 0.8508459 0.5164363 
0.25127918 0.24955171 0.93519133 
0.093282 0.7596915 0.6435584 
-0.42055526 -0.013427146 0.90716755 
0.32941884 0.6905162 0.6439494 
0.18961918 -0.09884278 0.9768699 
-0.32384735 0.3077701 0.8946511 
0.54434067 -0.33115458 0.7707335 
-0.57984275 -0.0053956807 0.81471056 
-0.49732137 -0.74505 0.44449067 
-0.55528784 -0.22652595 0.8002134 
-0.5585724 0.10701343 0.82252365 
-0.3681413 -0.20012657 0.9079765 
-0.35664433 -0.34480432 0.86828274 
-0.57200927 0.116186336 0.8119767 
-0.6989215 0.5597377 0.4451994 
-0.8075716 0.40582561 0.42794132 
-0.18313509 0.21527176 0.9592287 
-0.44229332 0.4723469 0.7624075 
0.5565081 0.8298281 0.041036174 
0.66926557 0.40716064 0.6215335 
0.54143775 0.22519134 0.81002104 
0.18386453 0.5426665 0.8195773 
0.17025147 0.690767 0.7027485 
0.29531816 0.81620955 0.49657747 
-0.19312407 0.8974297 0.39663988 
-0.22782499 0.9608988 -0.1573829 
0.096728824 0.93393356 0.3441101 
0.47443172 0.56678474 0.6735501 
-0.0018704494 0.9305725 0.366103 
0.36743948 0.80004317 0.47425655 
-0.48291028 0.6258942 0.61241674 
0.46982056 0.8147405 0.33980393 
-0.28334 0.5118351 0.8110138 
-0.6501092 0.74180543 0.1645686 
0.053349722 -0.6085896 0.79168975 
-0.10492011 -0.66908133 0.7357459 
-0.05564726 0.8742808 0.48222032 
0.7088618 0.26804495 0.6524315 
0.17437433 0.76372564 0.62154394 
0.6522857 0.5603509 0.51042175 
0.6777043 0.72777563 0.10516502 
0.38613743 0.7913318 0.4740169 
-0.21156812 0.19950211 0.9567852 
-0.18914746 0.48054442 0.8563295 
0.23164225 0.4683318 0.8526472 
-0.37740877 0.58671486 0.7164694 
-0.37930018 0.9208624 -0.09024308 
-0.8573794 0.41482925 0.30465955 
-0.052800965 0.9627151 -0.2653144 
0.054203387 0.93800247 -0.34236455 
0.47117764 0.6959684 -0.5418669 
0.78316826 0.5218054 -0.3381815 
-0.14941795 0.88267505 0.44559982 
0.38288367 0.7275781 0.56923664 
0.33211464 0.84607804 0.41695535 
-0.052750863 0.9980987 -0.03187993 
0.05871668 0.8061648 0.58877057 
0.45379084 0.6208473 0.639236 
-0.20849228 0.9777558 -0.022904841 
-0.044410896 0.91835827 0.39325044 
0.52630794 0.8472776 0.07155947 
-0.28225252 0.61004305 0.74039257 
0.34379092 0.8117028 0.47217196 
0.09992782 0.86171454 0.49745622 
0.86740535 0.23826407 0.43685034 
0.46047592 -0.20529728 0.8636059 
0.099747665 0.35236424 0.9305321 
0.80621827 -0.2100489 0.5530748 
0.5234389 0.5859996 0.6185598 
-0.8301068 0.31802928 0.4580177 
-0.22906429 0.46022937 0.85774034 
-0.5697152 0.6315453 0.52590424 
-0.10121518 0.986577 -0.128146 
-0.32921556 0.94373053 0.031462967 
0.022907415 0.9681747 0.24922484 
-0.0048709167 0.99665755 0.08154893 
0.28226194 0.9274748 -0.24519126 
-0.3261078 0.80465055 0.49617672 
-0.37297282 0.9277057 -0.015922407 
-0.5545717 0.06404394 0.82966787 
-0.30879116 0.6128387 0.72737664 
0.006293213 0.97822446 -0.20745434 
0.33337566 0.9221857 0.1960466 
0.5735256 0.72524405 0.38090625 
0.16378228 0.6391393 0.7514495 
-0.36372527 0.16981192 0.91589737 
0.2406269 0.15504326 0.9581547 
-0.758807 0.5194031 0.39297894 
-0.9418455 -0.040782034 0.3335625 
-0.9832111 0.17183244 0.061396196 
-0.6732821 0.36025816 -0.6456821 
-0.7220699 0.027192138 -0.69128555 
0.48000678 0.38608262 -0.78773963 
-0.13531223 0.96973693 0.20322606 
-0.5815792 0.65782166 0.47857735 
0.18783368 -0.3910393 0.90100324 
0.49901658 -0.354997 0.79054385 
0.8199804 -0.17573974 0.5447456 
0.77660364 -0.34001893 0.53035283 
0.5461142 -0.14040677 0.8258603 
0.78102607 -0.2593002 0.56812114 
0.7100854 -0.3845415 0.5898361 
0.089162394 0.36355144 0.9272974 
-0.025421605 0.5184146 0.85475147 
-0.13564019 0.9904905 -0.02302711 
0.6851259 0.37508082 0.6244333 
0.4092618 0.88024634 0.24014834 
0.7966493 0.56573606 0.21282105 
0.3795188 0.77965987 0.49809232 
-0.16802676 0.40481865 0.8988265 
-0.08560494 0.7730871 0.62849677 
-0.6663225 0.67933464 0.30743903 
-0.43854293 0.8345074 0.33358276 
0.31326517 0.82663685 0.46747884 
0.51035 0.4891176 0.70732385 
-0.06420721 0.25524667 0.96474177 
-0.5278304 0.037229206 0.8485335 
0.31947204 -0.25903347 0.911504 
0.47671407 -0.52935916 0.7017995 
0.2322129 0.27919862 0.9317324 
-0.27635825 -0.33851105 0.89946455 
-0.4030714 0.004375216 0.91515815 
-0.21065193 0.4992357 0.84046984 
-0.32144257 -0.20737383 0.92394304 
0.39767656 0.3677737 0.84059256 
0.51481754 0.26261634 0.8160856 
0.3552051 0.93225586 0.06876303 
0.7375039 0.6558872 0.16093473 
0.29238722 0.8842158 0.36424187 
0.01644081 0.7568645 0.653365 
-0.55467594 0.8115275 0.18373282 
0.2532506 0.49681428 0.8300842 
0.05996558 0.53244805 0.8443359 
0.10109439 0.23829302 0.9659174 
0.12858357 0.9898816 -0.060006544 
0.18248217 0.96752346 0.1749249 
0.15000154 0.864666 0.4794291 
0.5073266 -0.3624518 0.78182375 
0.3965384 0.44735056 0.80164504 
0.42480668 0.48329398 0.7654844 
0.6288372 0.4083554 0.66167194 
0.17738812 -0.36943337 0.91216916 
0.1935769 0.46165237 0.8656819 
0.16288084 0.7828154 0.60055804 
-0.30371934 0.68353456 0.66372824 
-0.2016241 0.73802936 0.64394134 
-0.4725458 0.42622107 0.77138585 
-0.70879537 0.5185016 0.47829425 
-0.2850753 0.38653088 0.8771123 
-0.32355058 0.4647082 0.8242338 
-0.6425851 0.39177087 0.65848315 
-0.9458834 0.19030236 0.26284918 
-0.47633466 0.026091944 0.8788769 
-0.14551502 0.05965432 0.9875559 
0.261976 0.16116318 0.95152247 
-0.2643208 -0.00086020096 0.9644345 
0.08159017 -0.43430433 0.89706343 
-0.16873293 0.7881371 0.59191996 
0.09225408 0.6979429 0.71018654 
-0.096759796 0.737729 0.6681268 
-0.71482813 0.038116213 0.69826066 
-0.53821737 0.16527174 0.82644266 
-0.20248176 0.28583288 0.93664336 
-0.23922232 -0.23361155 0.94244283 
-0.06802776 0.16713366 0.9835845 
0.45805365 -0.016066069 0.8887794 
-0.02742215 -0.029750114 0.99918115 
0.24591325 0.6084922 0.7544959 
-0.18387702 0.4559128 0.8708231 
0.19222598 0.4736759 0.8594652 
0.3406891 0.3515691 0.87196916 
-0.22573529 0.8925947 0.39027995 
-0.3930382 0.33539522 0.8561723 
-0.32285842 0.7588431 0.5656143 
-0.62800246 0.16070223 0.76143795 
0.03278901 0.8100973 0.5853778 
0.04835211 0.8910531 0.45131662 
-0.056537792 0.84063 0.53865093 
-0.39442652 -0.5571625 0.73075145 
0.37444383 -0.5286047 0.7618196 
-0.10487633 -0.023327077 0.9942117 
-0.19851528 0.016873783 0.9799525 
-0.75668555 0.11386514 0.643787 
-0.8201108 0.29302788 0.4914804 
0.068324976 0.98908615 -0.13053845 
-0.22796468 0.97133946 -0.067318544 
-0.14274602 0.97832566 0.15000835 
0.10212436 0.95823365 -0.26713094 
0.72152996 0.47614792 -0.5026705 
0.55967736 -0.07185537 -0.82558954 
0.6180234 0.46181333 -0.63621986 
0.47067785 0.8715162 0.13755655 
0.0958534 0.5794964 0.80931836 
0.068505555 0.22343086 0.97230947 
0.20586263 0.3471767 0.91492575 
0.7785786 0.4918547 0.38973656 
0.506798 0.69659483 0.50784993 
0.055224683 -0.18391676 0.98138934 
-0.077403106 -0.5980667 0.79769987 
0.07433885 0.03294794 0.9966886 
-0.22476256 0.3972293 0.8897701 
-0.22755624 0.31844634 0.9202228 
-0.5273078 0.48844147 0.69524914 
-0.6448583 0.7502374 0.14595066 
-0.16719258 0.46333054 0.87027097 
-0.38341227 0.5712091 0.7257515 
-0.07492494 0.7762065 0.62601113 
0.48094332 0.6116396 0.6281644 
-0.5328948 0.6758598 -0.50915295 
0.013237522 0.6750151 -0.7376852 
0.3515763 0.9274144 0.12765807 
0.5373223 0.49538139 -0.6825556 
0.71230584 0.5804809 -0.3945407 
0.9681533 0.23699307 0.08070646 
0.37987882 0.58827233 0.7138822 
0.24544956 0.7939332 0.5562594 
0.11808766 0.55973893 0.820212 
-0.02064463 0.38629764 0.9221432 
0.36477065 0.15934896 0.9173605 
-0.3493419 0.35550857 0.8669337 
-0.2445769 0.10715892 0.9636904 
-0.031295806 0.45951653 0.88761777 
0.72344935 -0.288086 0.6273975 
0.71045727 0.14479388 0.6886837 
0.3461903 0.2574364 0.90215236 
0.4957236 0.634741 0.59275794 
-0.10052426 0.45698893 0.8837738 
0.084783256 0.9353618 -0.34338036 
0.32893682 0.080155335 0.9409441 
-0.50070703 0.4624327 0.7317435 
-0.4206886 0.54017985 0.72885317 
0.2826056 0.947043 0.15245908 
0.30390328 0.8696909 0.38894796 
0.34778216 0.6976107 0.6264079 
-0.15702942 0.892846 0.42209935 
-0.66252685 0.53103054 0.52826595 
0.23626411 0.13513196 0.9622467 
0.36636734 -0.0703634 0.9278061 
0.114031754 0.90394956 0.4121552 
-0.79278845 -0.16462792 0.5868426 
-0.42758274 0.30586442 0.85065854 
-0.033386484 0.80368274 0.5941207 
-0.0014020042 0.58162534 0.81345564 
-0.18840112 -0.004125887 0.98208356 
-0.08532207 0.31639504 0.9447828 
0.23805802 -0.019207593 0.97106105 
-0.45718747 -0.26506373 0.8489528 
-0.27007297 -0.002121189 0.9628376 
-0.73631376 0.4841097 0.47273654 
0.14586951 0.57393265 0.80580604 
0.21852739 0.8986215 0.38042766 
-0.07301522 0.85791653 0.50857455 
0.44329265 0.4461683 0.777448 
0.3838038 0.6332339 0.6720934 
-0.36460996 0.50233126 0.7840427 
-0.2477864 0.34433937 0.9055563 
-0.4443616 0.35623178 0.8219742 
-0.20594037 0.033692148 0.9779844 
0.03885721 0.1303832 0.990702 
-0.19233337 0.17739801 0.96516216 
-0.17228661 -0.45460764 0.8738703 
-0.503543 -0.47378215 0.7224784 
-0.3703665 -0.14635485 0.91728354 
-0.55095375 0.7446203 0.37681645 
-0.26635572 0.08471296 0.96014506 
-0.44997862 0.050692797 0.8915995 
-0.7285719 -0.03389767 0.68413013 
-0.9336797 -0.26765522 0.23791377 
-0.35781166 -0.6604499 0.66013396 
-0.6254412 -0.11865444 0.7711968 
-0.801249 0.34960508 0.48556793 
-0.46758646 -0.22761571 0.8541393 
0.7263785 0.42690995 0.53862995 
0.06584299 0.53225356 0.84402066 
-0.025728948 0.46188873 0.8865647 
0.32371658 0.27714646 0.90465325 
0.78399116 0.29400036 0.54673743 
0.72837365 0.3182689 0.6067757 
-0.17326349 0.49281904 0.8527071 
-0.3335976 0.8647734 0.37533936 
0.18893479 0.52903 0.82730347 
0.44598094 0.75739413 0.4769226 
0.36338437 0.6956932 0.6196474 
0.8663061 0.14403696 0.47829625 
0.35349932 0.22114809 0.9089179 
0.702541 0.6768294 0.2198593 
0.010968947 0.50861037 0.860927 
0.33643767 0.22414425 0.91464156 
-0.57748115 0.6456296 0.49967805 
0.28510427 -0.32644334 0.9011938 
0.10972433 0.0599202 0.9921543 
-0.42208868 0.39070654 0.81804013 
-0.26715982 0.2052513 0.94154006 
0.59940106 0.4763066 0.6433121 
0.51311255 0.5982141 0.61551243 
0.26002586 0.23860754 0.93565655 
0.67809474 0.18822396 0.7104641 
0.5224912 0.20479822 0.827684 
0.092972144 -0.118642874 0.9885748 
0.1760194 -0.6738646 0.71758187 
-0.27921364 -0.07254921 0.9574844 
-0.7131725 0.38992304 0.58253336 
-0.60458905 0.75075793 -0.26614767 
-0.17161028 0.9851314 -0.008128915 
-0.04800827 0.9229507 0.38191265 
-0.058114648 0.860741 0.5057149 
0.0012916812 0.95946544 -0.2818236 
0.47414398 0.75065506 -0.4601135 
0.074355476 0.6980283 0.7121992 
-0.049458306 0.69589007 0.7164433 
-0.41555747 0.49566078 0.7626482 
-0.12637383 0.94479376 0.3023152 
-0.42120352 0.77517873 0.4708351 
-0.3801224 0.7057395 0.5978618 
-0.002157 0.97701585 -0.21315621 
0.010379865 0.5588457 0.8292067 
-0.04953322 0.99191934 -0.11680116 
0.16979118 0.449311 0.87709224 
0.26829824 0.3904354 0.8806681 
0.23032753 0.6612079 0.7139701 
0.49211302 0.27001575 0.8275967 
-0.18991248 -0.36620122 0.9109501 
-0.2531697 0.26765907 0.9296578 
-0.3907645 -0.526534 0.75502646 
-0.279565 0.35818294 0.8908134 
-0.870913 0.36457756 0.32953572 
-0.46307722 0.44470614 0.7666785 
-0.16132464 0.3765529 0.91224027 
-0.86118186 0.47459733 0.18199821 
0.18670787 0.981902 0.03176145 
0.22756307 0.9657246 -0.12486477 
0.3512729 0.8160484 0.45899066 
0.16132315 0.36461154 0.9170787 
0.052689217 0.0781254 0.9955502 
-0.28698495 0.14489287 0.9469138 
-0.39348856 0.33063456 0.85781556 
-0.6741817 0.48861426 0.5538367 
-0.22278132 0.94750494 0.22935346 
-0.2670955 0.9297749 0.25333545 
0.63741964 0.3331085 0.6947913 
0.084280774 0.46680343 0.88033587 
0.006360812 0.14038111 0.9900772 
0.6503449 -0.08555404 0.7548059 
-0.31950146 0.5326516 0.7837098 
-0.96730226 0.22943343 0.1081048 
-0.4160579 0.90416247 0.09688212 
-0.4222823 0.667943 -0.612805 
-0.34474018 0.40855888 -0.84512365 
-0.37403053 0.8705156 -0.31984958 
0.4811543 0.77602005 -0.4077788 
0.013588852 0.5407579 0.8410686 
0.63413626 0.15991467 0.7565041 
0.77911466 -0.28864074 0.5564771 
0.47075298 -0.6308751 0.61675626 
0.7437409 0.019023513 0.6681973 
0.8198929 0.08134697 0.5667085 
0.80850303 -0.042882845 0.5869276 
0.046287186 0.11541758 0.9922381 
-0.18244462 0.13863972 0.97339255 
-0.0356265 -0.13356692 0.9903993 
0.20621525 0.89979243 0.3845113 
0.42741343 0.8149168 0.39144415 
0.6753817 0.7323518 -0.08672029 
-0.25854847 0.8901487 0.3752174 
0.43052778 0.6791284 0.59450024 
-0.03605449 0.40896726 0.9118366 
-0.09791904 0.3032372 0.9478708 
-0.5130172 0.5800362 0.6327491 
0.08188316 0.71237236 0.69700843 
0.6298116 0.39861706 0.6666647 
0.4421374 0.84093237 0.31200513 
0.20188224 -0.029260237 0.9789726 
-0.6628993 -0.5605579 0.496326 
-0.29574913 -0.18648121 0.93688697 
-0.12880138 -0.370355 0.91991717 
0.23012702 0.0059931423 0.9731422 
0.021542562 -0.24311373 0.96975857 
-0.5380036 -0.2056251 0.81747806 
-0.6684221 0.10478896 0.7363635 
-0.27157345 0.8375542 0.47407898 
0.42219654 0.8450018 0.32821032 
0.40065476 0.74296856 0.53616565 
0.48802748 0.63879913 0.5947814 
-0.015829727 0.51254296 0.85851574 
0.028055388 -0.11629758 0.9928181 
-0.521294 0.73366785 0.4358717 
0.14316946 0.69822407 0.70141697 
0.044394646 0.726502 0.6857289 
0.035786208 0.37384707 0.9267997 
0.7809622 0.43215588 0.45093164 
0.13534655 0.6681731 0.7315915 
0.28120378 0.65863025 0.6979475 
0.39705864 0.69385076 0.60076255 
0.48974597 -0.42526236 0.7611183 
0.54580647 0.23822337 0.80333376 
0.40904602 0.73131394 0.54576665 
0.015599291 -0.30120817 0.9534309 
0.13312247 -0.54802525 0.8258007 
-0.0013071113 0.64275813 0.7660681 
-0.32262442 0.7866629 0.5263791 
-0.69987875 0.43399575 0.56728953 
-0.34257475 0.2948091 0.8920371 
0.049385656 0.6289237 0.77589697 
-0.16288236 0.19533749 0.9671156 
-0.23197493 0.4155608 0.87948674 
-0.16404952 0.3630634 0.91720927 
-0.09533842 -0.3419097 0.93488413 
-0.45901015 0.13521397 0.8780814 
-0.593463 -0.5192038 0.61500335 
-0.3280018 -0.09538396 0.9398493 
-0.1872382 -0.21117988 0.9593461 
-0.05080166 0.27738845 0.9594139 
0.7968804 0.2641431 0.54333234 
-0.011238083 0.3567992 0.93411356 
0.62510353 0.63922185 0.44792974 
-0.39595586 -0.13725184 0.9079542 
-0.3471733 0.31924298 0.88179064 
-0.5562143 0.0628199 0.82866126 
0.068168975 -0.27330226 0.9595097 
-0.11041006 -0.13569765 0.98457897 
-0.057776622 0.75222033 0.6563737 
0.37014413 0.312415 0.87486583 
-0.14583518 0.5434342 0.826687 
0.08949689 0.25008187 0.96407956 
-0.38355815 -0.05797469 0.92169523 
-0.20543505 0.30225557 0.9308265 
0.023437155 0.3960434 0.9179327 
-0.5369901 0.14982499 0.8301771 
-0.27623492 0.50044274 0.82051903 
-0.55488396 0.1541699 0.81751794 
-0.22419661 -0.046790127 0.9734201 
0.2755081 0.24191086 0.9303626 
0.14759214 0.75445753 0.6395391 
0.22410221 0.9594532 0.17096138 
0.37612823 0.5084032 0.7746314 
0.56155515 0.11309966 0.8196733 
0.6267041 -0.38138044 0.679552 
-0.006878125 0.42403102 0.9056216 
0.09504668 0.1033608 0.9900923 
0.21812621 0.72410226 0.6542913 
-0.5423886 0.50568235 0.6708949 
0.2603275 0.8759265 0.40618023 
0.5701134 0.81183636 0.12606531 
0.246231 0.9502299 0.19087607 
0.7377298 0.6064113 0.29668215 
0.60087645 0.5858305 -0.54382914 
0.5333854 0.66025877 -0.5287329 
0.80922884 0.5603707 0.17644641 
0.79529566 -0.20452705 0.5706783 
0.23751307 -0.32121006 0.91673976 
0.6505459 -0.3629416 0.66713077 
0.8581764 0.19507724 0.47484547 
0.8817635 -0.17225578 0.439114 
0.56213933 -0.35728753 0.7458854 
-0.09272317 -0.6966192 0.711424 
-0.27474675 0.16827235 0.94667774 
-0.17369297 0.1480588 0.9736064 
-0.35868862 0.19560298 0.9127333 
-0.060607914 0.54578125 0.83573294 
-0.025788294 0.24986053 0.96793836 
-0.38860464 0.21865046 0.8950857 
-0.14888906 -0.46193513 0.8743271 
0.45398992 0.80677176 0.37817 
-0.5192332 0.8039472 0.2899411 
-0.51251066 0.68803966 0.5137453 
-0.40880266 0.8911905 0.19662142 
0.57362705 0.8142712 0.08896333 
0.5467535 0.82220024 -0.15826342 
0.15390818 0.9783641 -0.13826089 
0.2178193 0.84939414 0.48071244 
0.32368183 0.5149361 0.79377013 
0.768836 0.108427756 0.63018626 
0.8283111 0.26460776 0.49384573 
0.1785865 0.14589013 0.9730483 
0.8905535 0.44744918 -0.08187664 
0.73323244 0.18926142 0.65310824 
0.22923674 0.18101096 0.95639205 
-0.13054569 -0.34376302 0.92993814 
0.1911513 0.11663946 0.97460586 
0.3831066 0.6271269 0.67818975 
0.30797446 -0.3078834 0.9001997 
0.48928085 -0.06553791 0.8696603 
-0.10906245 -0.0800675 0.9908051 
0.3842048 0.5769885 0.72074336 
0.27398372 0.40959555 0.87015206 
0.30097058 0.77231914 0.55941033 
0.1298912 0.23902844 0.9622857 
-0.1141664 0.4196457 0.9004797 
-0.18733534 0.42035356 0.887811 
0.14153697 0.3132986 0.93904805 
0.04322028 0.25314587 0.96646225 
-0.36612883 0.5330866 0.7627375 
0.15640192 0.46184725 0.8730611 
-0.13760093 -0.34438255 0.92869085 
0.34485605 0.48756954 0.80209124 
-0.104169406 -0.16240768 0.98120975 
0.2796136 0.50193024 0.8184634 
0.006754277 0.21069731 0.97752804 
0.2320227 0.3499035 0.9075974 
-0.50709474 0.6255752 0.5928833 
-0.20760673 0.7719612 0.6008122 
-0.2753847 0.8194521 0.5026546 
-0.58740675 0.6326186 0.5047247 
-0.29493663 0.1758088 0.9392038 
-0.29998925 0.5297623 0.793321 
0.1844228 0.5102228 0.8400364 
-0.0046706926 0.08121659 0.99668556 
0.39138806 0.917508 0.070671685 
0.692167 0.69308543 -0.2013393 
0.8705724 0.47066242 0.14345996 
0.6322695 0.4972465 0.59412235 
0.27701232 0.40860128 0.86966044 
-0.4818055 0.27308264 0.83264 
-0.25392637 0.11273163 0.96063155 
-0.21051802 0.29172462 0.9330482 
-0.6164235 0.76864326 0.17090896 
-0.7522829 0.06416626 0.6557081 
-0.6911279 -0.22424951 0.6870622 
0.24418259 0.15620539 0.95706576 
-0.3843448 0.31163487 0.86900103 
-0.33773872 0.021721616 0.94098926 
-0.38668326 -0.74949044 0.53734547 
-0.6617103 -0.16803512 0.73068714 
-0.7199994 0.076607265 0.6897335 
0.03227261 -0.628811 0.7768882 
-0.48528183 -0.56332475 0.66870534 
-0.43650797 -0.3506278 0.8285657 
0.2882377 -0.33721912 0.89621556 
-0.066391096 -0.33091825 0.9413211 
0.027176196 -0.19549571 0.980328 
-0.6797303 0.21233125 0.7020557 
0.16679047 0.72062325 0.6729659 
-0.13674212 0.6188677 0.77350134 
0.049058467 0.23354661 0.97110724 
0.5834448 0.34291065 0.7362096 
0.5251005 0.45665023 0.71815044 
0.4915658 0.6699392 0.5563674 
0.8204204 0.4223343 0.38541424 
0.22549999 0.8278281 0.51366377 
0.52738786 0.6746688 0.51641476 
0.04681506 0.6746313 0.7366689 
0.66219693 0.3724145 0.65023285 
0.38546988 0.37506157 0.8430551 
-0.12139337 0.33574104 0.9340994 
0.2360221 -0.17078415 0.9566224 
0.0980245 -0.14988284 0.98383254 
0.08521289 -0.09647129 0.9916815 
0.26192284 -0.06792258 0.9626958 
-0.21776901 -0.007923376 0.9759682 
-0.29541054 0.06705754 0.9530142 
0.3100943 0.14759512 0.939179 
0.12168386 -0.035997305 0.991916 
0.40638757 0.33051088 0.8518285 
0.03449692 -0.16927414 0.98496515 
0.16466571 0.3385185 0.9264397 
-0.5193267 -0.30702445 0.7975185 
-0.2332574 0.089592285 0.96827906 
-0.6747115 0.49715787 0.5455259 
-0.59876853 0.7700111 0.22036119 
-0.09610046 0.80070615 0.591299 
0.28822958 0.7447777 0.6018554 
0.17618835 0.81848484 0.54684573 
0.9592247 0.2622021 0.1055374 
0.3344176 0.76541775 0.5498186 
-0.1740601 0.68757 0.70494723 
-0.4295114 0.6961195 0.5752719 
-0.22819002 0.5888059 0.7753946 
-0.34910148 0.74096084 0.57367694 
0.43993038 0.88775575 0.13546585 
-0.051945332 0.5831972 0.81066805 
-0.78127986 0.071101576 0.62011814 
-0.3811642 0.37709066 0.84410703 
-0.28359312 0.83043975 0.47952572 
-0.2033635 0.60729426 0.76800853 
0.10004398 0.23970298 0.96567786 
0.15563312 0.48897144 0.8583038 
0.6655934 0.43790415 0.6043388 
0.6440787 -0.2620846 0.7186615 
0.62461275 -0.22957422 0.7464279 
0.052388642 -0.36042 0.93131787 
-0.66202277 -0.10863842 0.7415683 
-0.10064551 0.47838393 0.8723642 
-0.33300233 0.19078375 0.9234236 
-0.47023395 0.43810555 0.76612246 
-0.96780896 0.15000294 0.20210168 
0.0058546946 0.93189085 0.36269167 
0.14901198 0.9883693 -0.030358063 
0.14305499 0.48478988 0.8628523 
0.022849038 0.26022986 0.9652763 
-0.016846277 0.21277256 0.9769565 
-0.5699101 -0.16385527 0.8052043 
-0.775351 0.08271918 0.62608975 
-0.8172833 0.5731534 0.05952668 
0.96614426 0.03342802 0.25582767 
0.37359875 0.66521275 0.6464643 
0.3429568 0.79852176 0.49471596 
-0.6686279 0.1802129 0.7214292 
-0.74060535 -0.35602638 0.5698676 
-0.36334616 -0.8021678 0.4738212 
-0.53402674 -0.2995622 0.79061884 
-0.32894862 0.9315214 0.15511566 
-0.6748327 0.699763 0.23437735 
-0.39696243 0.9157834 -0.061330933 
-0.6180643 0.7509856 -0.23241596 
-0.3049511 0.94896966 0.080383375 
0.28689855 0.86076945 -0.42043462 
0.2591036 0.17405717 0.9500365 
0.5166965 -0.118518025 0.8479259 
0.25894728 0.27420053 0.92615354 
0.7383593 -0.46778664 0.48579958 
0.30187657 0.2031297 0.9314553 
0.5789182 0.20947863 0.7880181 
0.39317045 0.022260336 0.9191962 
0.2566592 0.5323346 0.8066883 
-0.3556074 -0.22464804 0.90723574 
-0.5985064 0.7358399 0.3167487 
-0.0050989054 0.9821831 -0.18785751 
0.33453318 0.9071598 -0.25524238 
0.13921097 0.9768968 -0.16215111 
-0.21859266 0.9353491 -0.2780997 
0.5003153 0.84983003 0.16575137 
0.178781 0.7197132 0.6708579 
0.30564138 0.69536954 0.6504188 
0.2332696 0.17633507 0.95629036 
0.11315982 0.66553235 0.7377409 
0.17067796 0.08454253 0.9816933 
-0.17393659 0.5695831 0.8033189 
-0.45812297 0.12935129 0.87942684 
-0.38731757 -0.33069265 0.86059713 
0.14030658 -0.28976634 0.9467574 
0.3759744 -0.11363616 0.91963583 
0.016701637 0.1643856 0.9862548 
-0.30515954 -0.25995716 0.91613317 
0.2661533 0.06608993 0.9616624 
0.2668411 0.33062354 0.90525347 
0.21812606 0.5576046 0.8009359 
0.26952794 0.335312 0.9027296 
0.44583976 0.24621227 0.860585 
0.320106 -0.21996848 0.92149127 
0.38342422 -0.017753359 0.9234017 
-0.4355535 -0.33473578 0.83561075 
-0.62802035 0.1132073 0.7699186 
0.24985082 0.5979173 0.761623 
0.5106201 0.18282838 0.8401435 
0.11824722 0.5333639 0.8375802 
0.83532596 0.27623782 0.4753138 
-0.17459954 0.89034456 0.42047772 
0.16327603 0.9665364 -0.19785935 
-0.11969902 0.68923575 0.7145812 
0.83471984 -0.27194667 0.47884008 
-0.21946599 0.33504525 0.91628563 
0.16194957 -0.040526666 0.98596656 
0.038765304 0.4857876 0.8732168 
0.28065118 -0.10609702 0.95392793 
0.49350658 0.84982044 0.18508568 
-0.5213264 0.45892468 0.71944904 
-0.8149938 0.10718616 0.5694702 
-0.20046158 -0.55776453 0.8054278 
-0.18964565 0.46526888 0.8646152 
-0.44201607 0.40572557 0.80000544 
0.07548711 -0.09268013 0.9928304 
-0.31303206 0.10047735 0.9444127 
-0.68415534 -0.3593547 0.634662 
-0.2801743 0.36034107 0.88975096 
0.038401317 -0.0788817 0.9961442 
-0.7765202 0.4034827 0.48396087 
-0.60988665 -0.3186029 0.7256242 
-0.050286926 -0.19618632 0.97927636 
0.15640329 0.6599162 0.73488003 
0.3280632 0.9157362 0.23195203 
0.4674109 0.6898265 0.5528712 
0.6061155 0.4424405 0.6609618 
0.7505517 0.5800763 0.31651828 
-0.18738675 -0.08736415 0.97839344 
-0.24132515 0.061534 0.9684915 
0.20441471 -0.0024237055 0.9788814 
0.57656574 0.54451996 0.60915524 
0.45711523 0.47684106 0.75077856 
0.495731 0.19373597 0.8465916 
-0.20380865 0.3554977 0.91218615 
0.13045852 -0.071227975 0.98889196 
0.16236037 0.33770186 0.92714435 
-0.25621665 0.073543124 0.9638177 
0.19580483 -0.28460115 0.9384363 
0.49986714 -0.10329661 0.85992026 
0.032052066 -0.2525907 0.96704227 
-0.21521997 0.013641326 0.97647035 
0.013294156 -0.33143803 0.94338334 
-0.2870075 0.4455962 0.8479805 
-0.081603035 0.8458275 0.52717817 
0.5335838 0.82984996 -0.16320966 
0.854763 0.45024684 0.25818226 
0.5832554 -0.2816677 0.7618901 
0.7167193 0.4748092 0.5107541 
0.42934355 0.05098885 0.9017008 
0.18346561 0.1938265 0.963728 
0.20332803 0.7406537 0.6403825 
0.41658562 0.8509957 0.3197857 
0.7194707 0.5249192 0.4547767 
0.49476102 -0.023129947 0.8687213 
-0.005009581 0.51865673 0.85496795 
0.10188324 0.8569821 0.50517476 
-0.14220683 0.8689174 0.47408843 
0.6554805 0.68041235 0.32769564 
0.523659 -0.28288835 0.8035891 
0.2549201 0.1472458 0.9556854 
0.8684974 -0.3438592 0.35703406 
0.77510107 0.5826506 0.2444111 
0.745921 -0.27628595 0.60602635 
0.7471832 -0.5324556 0.39775425 
0.25569078 -0.04981815 0.9654742 
-0.23962978 -0.34774104 0.9064512 
-0.07447891 -0.3953905 0.9154885 
-0.09093211 -0.0066793263 0.99583477 