# OOMMF: rectangular mesh v1.0
# Segment count: 1
# Begin: Segment
# Begin: Header
# Desc: Time (s) :  1.449999999999999e-07
# Title: m
# meshtype: rectangular
# meshunit: m
# xbase: 2e-09
# ybase: 2e-09
# zbase: 5e-10
# xstepsize: 4e-09
# ystepsize: 4e-09
# zstepsize: 1e-09
# xmin: 0
# ymin: 0
# zmin: 0
# xmax: 1.024e-06
# ymax: 1.024e-06
# zmax: 1e-09
# xnodes: 256
# ynodes: 256
# znodes: 1
# ValueRangeMinMag: 1e-08
# ValueRangeMaxMag: 1
# valueunit: 
# valuemultiplier: 1
# End: Header
# Begin: Data Text
0.72810954 0.68345547 -0.052393906 
0.7269722 0.684492 -0.054608792 
0.95407695 0.2752258 0.118270904 
0.88516355 -0.09222546 0.4560481 
0.81926686 0.34298223 0.45952702 
0.3685923 0.7304543 0.5749576 
-0.48458415 0.7022439 0.5215666 
-0.3644527 0.7414828 0.5633627 
-0.6609061 0.7368997 0.1420636 
0.516044 0.6342094 0.57574046 
0.18089196 0.43631023 0.88142586 
0.55070406 0.83355254 0.043762863 
0.43713814 0.8315335 0.3427278 
0.7863813 -0.026942326 0.6171536 
0.97212106 -0.23256253 0.029923713 
0.990977 0.11616518 0.066860326 
0.27412125 0.77878696 -0.56422377 
0.3942958 0.5324368 0.7490273 
-0.12874317 0.0672082 0.989398 
0.0021831857 -0.019557966 0.99980634 
0.019647961 -0.18036474 0.98340356 
0.34143233 -0.5792734 0.74018 
0.28729993 0.6504532 0.70311415 
-0.15985109 0.49098366 0.85637766 
0.15002826 0.58869046 0.7943142 
0.10965208 0.16429631 0.98029757 
-0.5949742 -0.4052487 0.6941031 
0.38225088 -0.16362622 0.9094563 
0.66205484 -0.10999447 0.7413398 
-0.010461807 0.4873463 0.87314624 
-0.3963602 0.6110304 0.6852303 
-0.3612245 0.31496263 0.8776762 
-0.52912825 0.46294567 0.7111292 
0.440155 0.803951 -0.39990807 
0.5969204 0.7992236 -0.07019758 
0.68818265 -0.10261557 0.71824425 
0.7989202 0.12177822 0.58897936 
0.64562815 0.65336776 0.3953162 
0.3130024 0.35052833 0.8827001 
-0.3290931 -0.4260205 0.8427362 
-0.054855123 0.5412633 0.8390621 
0.5480234 0.23006979 0.80420035 
0.26836607 0.7798918 0.56546307 
-0.37409946 0.8820495 0.28642356 
0.57650816 0.5813748 0.57414424 
-0.17759256 0.9824694 -0.056701086 
0.18404846 0.91391903 -0.361771 
0.16594638 0.9815433 -0.09505117 
0.030341575 0.99422777 0.10291061 
0.18232325 0.8260967 0.5332191 
-0.8387247 0.16147639 0.5200639 
-0.41168746 0.4224944 0.80747265 
-0.54298955 0.030643199 0.83918023 
-0.22273545 0.88470197 0.40950134 
-0.1433168 0.9750279 0.16964942 
0.15827498 0.5581557 0.8145007 
-0.6208667 0.5114948 0.59405196 
-0.7426908 0.30065528 0.59834516 
-0.22101998 0.49875423 0.8380898 
-0.7550189 0.296308 0.5849343 
0.2709584 0.6082268 0.74608433 
0.6074298 0.11097027 0.78658414 
0.86614037 -0.3944881 0.30688778 
0.6874842 0.11994884 0.71622473 
0.94570684 -0.22204812 -0.23734613 
0.9857135 0.11448409 0.123540476 
0.7252847 0.66150475 0.19071868 
-0.2928429 0.9315833 -0.21539646 
0.3275591 0.90549386 -0.26978883 
0.24980105 0.9405224 -0.23025423 
0.90787214 0.38293633 -0.17066926 
0.5570282 -0.5266899 0.64211947 
0.9379099 -0.2688021 0.2192498 
0.9863383 -0.05916586 0.15374069 
0.6933614 0.33726162 0.6367925 
-0.07243243 0.8026237 0.59207153 
-0.4665214 -0.28854322 0.83612245 
0.4817768 -0.13300182 0.8661419 
-0.47577062 0.43106008 0.76670045 
0.4201935 0.6188907 0.66363525 
-0.01988278 0.8895859 0.4563351 
0.24146251 0.9246142 0.29459205 
0.3420429 0.67384493 0.6549349 
-0.41753846 0.32000256 0.850447 
-0.70948154 0.59017146 0.38514113 
0.061309878 0.4633814 0.8840355 
-0.3374092 0.57351726 0.7464804 
0.07277128 0.1493332 0.9861055 
0.3680358 -0.041072894 0.92890406 
0.40338305 -0.07499094 0.9119531 
-0.10904256 -0.36109886 0.9261303 
0.437016 0.56856775 0.6969561 
0.5107425 0.7810718 -0.35926187 
0.6577249 0.70652735 0.26118404 
0.92126787 0.24857275 0.29912728 
0.6954181 0.68426263 0.21949553 
0.17967907 0.9226091 -0.3413328 
-0.14137337 0.4565031 -0.8784182 
-0.39580363 0.91742265 0.04092984 
-0.12724453 0.9070184 -0.40140548 
-0.76342434 -0.10406146 0.6374595 
0.07508459 0.10548216 0.9915825 
-0.2663566 -0.329232 0.9059031 
-0.82430863 0.27054587 0.49731317 
-0.76826817 0.06956747 0.63633686 
-0.23513566 0.9711357 -0.04008361 
-0.3123155 0.7852198 -0.5346858 
-0.95056593 0.15918604 -0.26661646 
-0.87736 -0.19675317 0.4376389 
-0.58671665 0.2210452 0.7790396 
-0.6469415 0.44153205 0.62170434 
-0.41036943 0.19290654 0.8912823 
-0.6138111 0.61738604 0.49200657 
0.03605131 0.96821135 0.2475223 
-0.124573894 0.8719307 0.47351673 
0.19268695 0.9440773 0.2675627 
-0.7243035 0.66672814 0.17566493 
-0.5394746 0.80827117 -0.23593423 
-0.60825646 0.7371216 0.29440773 
-0.98259354 -0.16830131 -0.078642696 
-0.6992692 0.15723668 -0.69735163 
-0.81030667 0.09539146 -0.57818997 
-0.06994564 0.9348964 -0.34796038 
0.34424275 0.8572221 -0.38297164 
0.5675126 0.6926597 -0.4451429 
0.39347962 0.89287347 0.21897705 
0.65944606 0.015906148 0.7515837 
0.99205 -0.054416783 0.11347107 
-0.16720735 0.7806882 0.60213584 
-0.45991197 0.63687456 0.6187664 
-0.7073245 0.15462236 0.68977106 
0.050163046 0.8696457 0.49112132 
0.41175953 0.501397 0.7609567 
0.06425659 0.5297405 0.8457223 
0.010402246 -0.0977978 0.99515194 
-0.6924842 0.36792234 0.6205634 
-0.2525144 0.9327123 0.25745735 
-0.30715895 0.6555435 0.68986684 
0.22107753 0.7791013 0.5866224 
0.31375632 0.62883043 0.7114277 
-0.8179774 0.40983212 0.4036715 
-0.9893919 -0.039598715 -0.13976954 
-0.5696539 -0.2810446 0.7723395 
-0.44796735 -0.18717156 0.87423795 
-0.56269115 -0.44060296 0.6994625 
0.3170007 -0.039876897 0.9475867 
0.2449277 -0.31860766 0.9156963 
0.0985015 0.1922451 0.976391 
-0.21640651 0.94931406 0.22797167 
-0.13725112 0.88664144 0.44162098 
0.17974629 0.48330933 0.8567983 
0.8241799 -0.13637479 0.549663 
0.44029674 0.47677457 0.7608055 
-0.36994624 0.7910648 0.48719227 
-0.31412858 0.56428415 0.7634833 
-0.29645965 0.4086115 0.8632198 
-0.6402394 0.6089852 0.4682208 
-0.67669916 0.45499754 0.5788399 
-0.3292104 -0.01900827 0.9440653 
-0.7645217 -0.47159654 0.43943515 
-0.6198785 -0.20269504 0.7580669 
-0.20460038 -0.09579806 0.97414654 
0.3103126 0.92692375 -0.21099398 
0.7273495 0.6184506 0.2974585 
0.040242203 0.81207293 0.5821668 
0.37505534 0.9168977 0.13649969 
-0.11203516 -0.66266596 0.74048775 
-0.6150351 0.314169 0.72320795 
0.032831118 0.9679102 0.24914272 
-0.33349705 0.75267273 0.5676825 
-0.37817153 0.271972 0.8848828 
-0.3463795 0.9377743 -0.024509784 
0.48903468 0.47752342 0.7299428 
0.11589208 0.21761234 0.96913046 
0.33489895 0.68988246 0.6417982 
0.18021251 0.98352134 0.014468466 
-0.3534348 0.89326876 0.2777674 
0.04857614 0.9806072 0.18986787 
0.736866 0.2816078 0.61459386 
-0.61718476 0.45826852 0.6395881 
-0.34083357 0.019248115 0.93992656 
0.09586068 0.9942012 -0.048732348 
-0.1459888 0.7578206 0.63592076 
-0.56164575 0.82600814 0.047589723 
0.44041392 0.7892459 -0.42793265 
0.6818948 0.5349594 0.49883673 
0.34785265 0.7060427 0.6168487 
-0.44556987 0.4771259 0.75750816 
-0.25608292 0.67635125 0.69063056 
-0.03904954 0.21815436 0.97513276 
0.24704422 0.4528197 0.8566934 
0.35389566 -0.45712972 0.81595975 
0.23781098 -0.44451773 0.863626 
-0.59980625 0.052582026 0.79841566 
-0.7204603 0.20552155 0.6623428 
0.09342664 0.96856457 0.23055167 
-0.7547487 0.47962093 -0.44756937 
-0.35070908 0.4660756 -0.81226635 
-0.20422775 0.6152165 -0.7614459 
0.19401824 -0.25310722 -0.9477836 
0.91423064 -0.33308643 -0.23072909 
0.74812627 -0.60972065 0.2618165 
0.92840844 -0.14047521 0.34398332 
0.42511567 -0.4568924 0.7813617 
0.15552056 -0.36990502 0.91596055 
-0.7288625 0.31102607 0.6099363 
0.11771556 -0.056008734 0.99146664 
-0.19498573 0.45534867 0.86869925 
-0.14086962 0.8134272 0.5643509 
0.7489211 0.24523056 0.61561286 
0.8903116 0.3023739 0.34046346 
0.82174325 -0.10292279 0.5604864 
0.07519036 0.8389385 0.5390072 
0.90124094 0.16339049 0.40133333 
0.33325297 -0.41869196 0.84477186 
0.76424015 0.40246934 0.5039401 
0.42404553 0.2874147 0.85882384 
0.11503989 0.21152776 0.9705781 
0.5538438 0.77327377 0.3087147 
0.49770117 0.7709505 0.39740282 
0.507165 0.32204923 0.79941726 
0.2635603 0.12786174 0.95613146 
-0.42715326 -0.48995945 0.7599211 
-0.48795003 -0.64652586 0.58643764 
0.41008705 -0.6036205 0.6837185 
-0.054423302 -0.2487038 0.9670495 
-0.5370725 -0.02331351 0.84321386 
-0.72906893 0.2036334 0.6534462 
-0.38166094 0.87163293 0.30755675 
0.049092636 0.9909884 0.12462709 
-0.1471425 0.9889684 -0.017050048 
-0.94292784 0.30326495 -0.13754138 
-0.7663673 0.5963854 0.23875876 
-0.46637395 0.8740597 0.13606991 
-0.8508701 0.50078875 0.15884206 
-0.15899584 0.9869744 -0.024534542 
-0.36241627 0.90335447 0.22935855 
-0.43845698 0.47772148 0.7612737 
-0.70311576 0.5095476 0.49597335 
-0.61229885 0.74253535 0.2715354 
-0.60496455 0.7886022 -0.11011102 
-0.72590107 0.48844966 0.4842362 
-0.59730023 0.4244325 0.68050677 
0.2914443 0.84078 0.4562339 
0.6782542 -0.1270026 -0.72376907 
0.9718208 -0.21542378 -0.09569219 
0.92503726 -0.06044954 0.3750359 
0.85782987 0.5046539 0.09722292 
0.98460686 0.016659884 0.17398815 
0.862703 0.11175386 0.49320856 
0.35748452 0.114023946 0.9269322 
0.24136166 0.7602132 0.6031755 
0.87911075 0.40851295 -0.24552308 
0.8432258 0.23639004 0.482794 
0.22653921 0.83436006 0.50251716 
-0.6645197 -0.14518556 0.7330313 
0.13354982 0.87104905 0.47269246 
0.46723485 0.7921789 0.39261216 
0.47513124 -0.2621979 0.83994204 
0.61115336 -0.602314 0.5135266 
0.16765672 0.46439913 0.86961186 
-0.32758448 0.75926083 0.5623269 
-0.2034987 0.7279587 0.6547247 
0.4082544 0.30944204 0.8588213 
-0.013607294 0.9761733 -0.21656543 
0.1276561 0.98690146 -0.098638654 
0.9308225 0.21675944 0.29425308 
0.44817877 0.72327197 0.5253699 
0.102275044 0.74264616 0.6618282 
0.45929214 0.05049783 0.8868488 
0.9341716 -0.30923516 0.17803685 
0.9162879 -0.36357498 0.16801733 
0.5338202 0.70191425 -0.4715425 
0.18728524 0.9765037 0.106606424 
0.6949935 0.6409608 0.32581183 
0.079509646 0.49973822 0.8625196 
0.12898104 -0.121246845 0.98420686 
-0.03367332 -0.45868123 0.88796276 
0.010789426 -0.55376804 0.8326011 
-0.06296363 -0.35855788 0.93138176 
-0.13574272 -0.079483025 0.9875507 
-0.70973116 0.3614988 0.604649 
-0.27880225 -0.59992784 0.7499039 
-0.590939 -0.10170566 0.8002795 
-0.26658097 -0.17771627 0.9472865 
0.2660868 -0.18616678 0.94580114 
0.5530883 0.5579985 0.6186527 
0.2228849 0.74029547 0.63425934 
0.14604637 0.46311682 0.8741815 
-0.06308045 0.8122906 0.5798317 
0.2066999 0.886707 0.41355285 
0.5289762 0.494389 0.68975633 
0.3181967 0.51826346 0.7938223 
0.31223065 -0.26195765 0.91317594 
-0.23470324 0.50163674 0.83263147 
-0.09556845 -0.31703848 0.9435854 
-0.07790189 -0.11168303 0.9906858 
-0.5418189 -0.5568786 0.6295383 
-0.34996 -0.31538135 0.88207865 
-0.28207898 0.41106176 0.8668677 
-0.10980322 0.7299105 0.67466587 
-0.23170915 0.5094974 0.82868767 
0.1494858 0.4786234 0.86520153 
0.024623636 0.79994035 0.59957427 
0.30872035 0.56477255 0.7653259 
0.28598386 0.5448261 0.7882752 
-0.21670108 0.46056825 0.86076576 
-0.64746577 -0.31279343 0.6949449 
-0.035955787 -0.22840758 0.9729014 
-0.16026893 0.98195976 -0.10034486 
0.104828015 0.860454 0.49862808 
0.6755893 0.6873209 0.26677525 
0.79007506 0.53805935 0.29372376 
0.2187726 0.7490764 0.62531835 
-0.16193739 0.17513746 0.971135 
-0.3804729 -0.042840376 0.9237992 
-0.1153483 0.62009764 0.7759985 
0.64348197 0.51953834 0.5621486 
0.7884541 0.109835885 0.6052075 
0.55274427 -0.2670471 0.7894047 
0.85906065 -0.43113434 0.27593115 
0.9255326 0.3767664 0.03790384 
0.25795624 0.9579082 0.1259782 
0.7222208 0.64911264 -0.2388514 
0.5684443 0.66209 0.48837283 
0.6100784 0.7799027 -0.13984303 
0.89065486 0.21999222 0.39791626 
0.24895205 -0.8980399 0.3626944 
0.7620619 -0.44434512 0.47097695 
0.25065842 0.08027411 0.96474165 
0.47541767 -0.36006317 0.8027033 
-0.23142725 0.6521694 0.7218841 
0.26862076 0.3016852 0.9147836 
0.22170465 0.4178038 0.88107157 
0.11663266 0.13995522 0.9832646 
0.3828871 -0.02302946 0.9235081 
-0.046917245 -0.24163772 0.96923167 
-0.14489643 0.5536589 0.82004076 
-0.02541573 0.4904801 0.87108165 
-0.07164009 0.13747118 0.98791164 
-0.2644877 0.12746084 0.95592886 
-0.43367735 0.3728204 0.8203225 
-0.6120897 0.425215 0.66673714 
0.52574927 -0.1539381 0.83659476 
0.11267239 -0.37190437 0.92140776 
-0.078890316 -0.301703 0.9501325 
0.32358402 0.0056596734 0.94618255 
0.83763796 0.11830703 0.5332599 
0.5233608 0.46048775 0.7169691 
0.815745 0.45760474 0.35377696 
0.31845215 0.6970438 0.6424315 
0.6909164 0.7217005 0.042225443 
-0.26761898 0.83173 0.48642087 
-0.77492136 0.61097383 0.16188864 
-0.20506772 0.978736 -0.004806266 
0.38479248 0.80962586 -0.44321632 
0.48533055 0.11256399 0.8670546 
0.2561915 0.34216872 0.9040391 
0.09183365 -0.33715156 0.9369608 
-0.371341 -0.270658 0.8881724 
-0.6691905 -0.32165524 0.66986716 
-0.88617814 0.46227998 0.03139313 
-0.968661 0.18698688 0.16349833 
-0.7199167 0.46907753 0.5115529 
-0.8706245 -0.118846506 -0.47737685 
-0.35198072 0.402466 0.8450626 
0.22960307 0.40112844 0.8867799 
-0.44382894 0.13965893 0.8851617 
-0.52177763 0.38141534 0.7630666 
-0.41631636 0.62618434 0.6592222 
-0.24852124 0.6462678 0.721509 
0.19041954 0.73626465 0.6493495 
-0.06814264 0.95281816 -0.29579443 
-0.25369278 0.8437911 0.47292355 
0.40615973 0.81753254 0.4082583 
-0.25013104 0.40077665 0.8813697 
-0.78016686 0.62207586 -0.0660395 
-0.17414649 0.84949374 0.49802944 
0.12921543 0.8700517 0.47572434 
0.37284127 0.8582654 0.35266125 
0.7095374 0.596316 0.37545177 
0.22597994 0.31300044 0.92247707 
0.824548 -0.56275845 -0.05851293 
0.7703338 -0.4518067 0.44995177 
0.66833216 0.44971815 0.592525 
-0.035069518 0.65206236 0.75735396 
-0.2843071 0.42965284 0.8570694 
-0.21804416 0.2979508 0.92934495 
-0.3139435 0.60152763 0.7345775 
-0.20175765 0.21509336 0.95552546 
-0.5095106 0.32361105 0.7972923 
-0.71115434 0.64812464 0.2723857 
-0.65994227 0.40046376 0.6356926 
-0.5093107 0.64800966 0.56629163 
-0.317588 0.3266639 0.8901846 
0.12831959 0.25915387 0.9572739 
-0.5646992 0.7726164 0.29013604 
-0.86905974 -0.49440193 -0.017378265 
-0.07324717 -0.977111 -0.19972274 
0.6147405 0.103218876 0.7819464 
0.5812314 -0.45984477 0.67135155 
0.016345086 0.0029693702 0.9998621 
0.28935826 0.072744265 0.95445275 
0.26721835 0.27361646 0.92397434 
0.16314252 0.43900067 0.8835513 
0.3828885 0.44966885 0.80696607 
-0.07269657 0.13594295 0.98804593 
0.20324881 0.2838715 0.93707365 
0.37226513 0.7862438 0.49319312 
-0.38054746 0.5666731 0.7307977 
-0.1272611 0.24938194 0.96000695 
-0.7437203 0.16262574 0.6484082 
-0.36489818 0.5381341 0.759777 
-0.0004305291 0.86717117 0.4980101 
0.10790497 0.56850296 0.81557405 
-0.14249149 -0.38254973 0.91288114 
-0.18551703 -0.3374398 0.92288566 
-0.18047693 0.13234371 0.974635 
0.15372328 0.6439935 0.74942744 
0.077319846 0.8677066 0.4910265 
0.15872997 0.86066103 0.48380533 
0.25909185 0.41630918 0.8715263 
-0.50930274 0.02785733 0.8601365 
-0.32533714 0.29495066 0.8984209 
0.21800402 0.08045393 0.97262615 
-0.32957557 0.20444229 0.92172843 
-0.8657913 0.27741742 0.41646725 
-0.63453335 0.67933875 0.36860052 
0.37047073 0.24767537 0.89521414 
0.5817434 0.54565597 0.60318667 
0.41405666 -0.17707485 0.89286155 
0.13172415 0.654663 0.74435556 
-0.124196656 0.8608094 0.49354059 
0.64297473 0.41334265 0.64477235 
0.5472559 0.27535436 0.79037404 
-0.19387713 0.24397007 0.95020545 
0.15302426 -0.03890767 0.98745626 
-0.8500138 0.43054542 0.30349177 
-0.093054585 0.8716572 0.4812012 
-0.7901224 0.60049385 0.1229389 
0.21459988 0.8495585 0.4818686 
0.9262779 0.09749615 0.36401102 
0.3470622 0.54943395 0.76004624 
-0.43864334 0.6151892 0.65508354 
-0.055745944 0.8709836 0.48813936 
-0.056256074 0.41914615 0.90617424 
-0.13874897 -0.02931828 0.9898935 
-0.7524816 -0.24932861 0.6095955 
-0.45455575 0.05906934 0.8887575 
-0.9995438 0.015537951 -0.025902143 
-0.8491911 -0.29552525 0.43765202 
-0.8523247 0.52290684 -0.010538113 
-0.87974435 0.3813079 -0.28399673 
-0.60060203 0.4835374 -0.63676435 
-0.9041685 0.35827163 -0.23263898 
-0.30733988 0.65351146 -0.69171166 
0.63491315 -0.09252336 -0.7670233 
0.5583314 0.8241377 -0.0952005 
0.75456333 0.54443586 0.36636576 
0.55872214 -0.12231395 0.82028586 
-0.13170233 0.16758117 0.9770215 
-0.72599065 0.08879835 0.6819475 
-0.37027633 0.006964874 0.9288956 
-0.23660767 0.8290732 0.5066108 
0.027396156 -0.17232807 0.9846586 
0.7713451 -0.20294929 0.60319024 
0.5283484 -0.04156684 0.84800965 
0.36742038 0.2158407 0.904663 
0.24538386 0.21498428 0.94528764 
0.6561158 -0.38349423 0.64995724 
0.33875093 0.007430976 0.94084674 
0.0045210025 -0.123806156 0.9922961 
0.050719403 0.21203971 0.9759441 
0.2763513 0.6714911 0.68755347 
-0.46278965 0.85415566 0.23715816 
-0.59812176 0.716322 -0.359351 
-0.8330957 0.37298924 0.408449 
-0.49283656 -0.3016468 0.81616265 
-0.35713485 -0.47585425 0.8037521 
-0.36219096 -0.35721165 0.8609399 
0.45516428 -0.36405417 0.8125824 
-0.6421133 0.2620389 0.72043467 
-0.6157968 -0.026114669 0.7874721 
-0.21006282 0.46579686 0.859597 
-0.3535847 0.69438064 0.6267483 
-0.6470423 0.7304491 -0.21858756 
-0.49421543 0.48367 0.7223673 
-0.11534325 0.9774694 0.17677546 
-0.81012684 0.56443626 0.15845019 
-0.7028944 0.68697304 0.18441145 
-0.34283352 0.41104674 0.8446927 
-0.12556039 0.8943691 0.42934674 
0.3707131 0.56926274 0.73383355 
0.09918155 0.5332542 0.84012085 
-0.39115557 0.8248028 0.40828624 
-0.83730584 -0.07782533 0.5411674 
-0.5247896 0.38768545 0.75782317 
0.1834402 0.4876242 0.8535645 
0.051210996 0.84843284 0.52681994 
0.125554 0.9875428 0.09484423 
0.11573378 0.6806142 -0.72344327 
0.978439 0.12866928 0.16155979 
0.8855684 0.46398368 0.022088168 
0.73764604 0.6579811 0.15145712 
0.91478306 0.32846582 0.23512204 
0.9336111 0.31656 0.16780967 
0.862466 0.28235763 0.42003176 
0.35943675 0.7505075 0.5545665 
-0.15865152 0.94885767 0.27294484 
0.30221102 0.95008624 0.07748991 
0.7558236 0.43880594 0.48598358 
-0.08336107 0.74801177 0.6584295 
-0.027038397 -0.119411476 0.99247664 
0.56835216 -0.50938106 0.64614767 
0.34764227 -0.8392294 0.41813743 
0.37005866 -0.67001337 0.64353615 
0.06411538 -0.41715842 0.90656936 
0.12775886 0.88706267 0.44361883 
0.092303924 0.9783194 0.18539457 
0.8722495 0.38310483 0.30399287 
0.5589474 0.80886376 -0.18253028 
0.38363165 0.85276574 0.3544253 
0.4679337 0.3988499 0.78864247 
0.57006425 0.80832595 0.14709163 
0.49140054 0.4665507 0.73542917 
0.22692823 -0.2716282 0.9352656 
0.7681729 0.3582388 0.53063667 
0.9345484 0.28177664 0.21730466 
0.66567886 0.6227818 0.41111377 
0.6202549 0.5643107 0.54482776 
0.56854343 0.11679614 0.81431997 
0.6738924 0.6808711 0.2868513 
-0.163513 -0.29186854 0.94237804 
-0.1049698 -0.46581948 0.8786317 
-0.31588745 -0.53174895 0.785785 
-0.06763519 -0.18259077 0.98085994 
0.11846812 -0.35490775 0.92736495 
0.51400197 -0.3280083 0.79259855 
0.11382464 -0.87682545 0.46714142 
-0.34680983 -0.18826297 0.91884714 
-0.78038794 -0.60901946 0.14173973 
0.5638594 -0.61814195 0.54768896 
-0.1982843 0.42069852 0.88526607 
-0.24040468 -0.45737705 0.8561612 
-0.2815004 -0.45269567 0.8460639 
0.40064022 0.3435627 0.8493834 
0.35665098 0.076114476 0.931132 
0.8244379 -0.01637516 0.5657156 
-0.14543687 0.04717901 0.9882421 
0.5795945 -0.026720878 0.8144669 
-0.27270386 0.5711729 0.7742056 
-0.54043067 0.12548606 0.8319783 
-0.35642043 -0.57149136 0.73916316 
-0.3839452 -0.04065851 0.9224604 
0.12831661 0.06262188 0.9897542 
-0.13277029 0.22521801 0.9652197 
-0.46495867 0.5197729 0.7166935 
-0.19301161 0.52725744 0.82749385 
0.35512295 0.21979028 0.90861434 
0.007887639 0.6340075 0.77328676 
0.47392866 0.13539435 0.870092 
0.06795116 0.10951797 0.99165946 
-0.3438656 0.2320079 0.90990597 
-0.09485763 0.6293494 0.7713114 
0.10594569 -0.044619605 0.9933704 
-0.052273713 0.8938469 0.44531474 
-0.12238386 0.8669643 0.4831099 
0.9100595 0.40194854 0.10113916 
0.44918093 0.74907994 0.48694536 
-0.036185313 0.46798542 0.8829951 
-0.36507377 0.10484899 0.92505556 
0.042380683 0.2840165 0.9578824 
0.04249629 -0.028369358 0.99869376 
0.30679378 0.7944244 0.52418256 
0.9714093 0.16192959 0.17361714 
0.34853658 0.5459809 0.7618577 
0.7976011 0.56798 0.20305504 
0.97452414 0.2218226 0.033130124 
0.548014 0.21375126 0.8086972 
0.95573837 0.20796806 0.20811889 
0.21545912 0.5787338 0.78653973 
0.33584678 0.87189895 0.35636953 
0.5783221 0.6500804 0.4928885 
0.8841021 0.39561194 0.24870592 
0.861382 0.33376598 0.38291186 
0.518141 -0.123888224 0.84627515 
0.28401992 0.010499375 0.95876086 
0.15940744 0.75103384 0.64073205 
0.5312772 0.2728722 0.8020508 
0.3979496 0.5737465 0.71585697 
0.1230852 0.25167173 0.95995384 
-0.15009783 0.3155957 0.93694717 
0.508185 0.52282083 0.6844022 
0.022623513 0.56646 0.8237787 
-0.054965187 0.14671019 0.9876513 
-0.20874654 -0.33999205 0.9169681 
-0.824094 0.22468975 0.51998425 
-0.31781515 -0.15610515 0.9352138 
-0.8590198 -0.35211742 0.3716158 
-0.18804882 -0.14286596 0.9717135 
-0.47693017 -0.6418434 0.60047877 
0.38413697 -0.32926446 0.8625681 
0.36851045 0.07552022 0.926551 
0.40788913 -0.095454946 0.90802807 
0.2553537 -0.14191248 0.95637614 
0.78450763 -0.1889491 0.590632 
-0.28021228 0.8594098 0.42766333 
-0.17301397 0.58739614 0.7905897 
-0.40393007 0.7107636 0.57589567 
-0.65181535 0.7081461 0.27141464 
0.36160368 0.7891121 -0.49653295 
0.35591513 0.9339253 0.033288058 
0.02203321 0.2269651 0.9736537 
0.28177124 0.39345226 0.87510026 
-0.2866665 0.9578247 0.019854942 
-0.35785365 0.06853372 0.93125933 
-0.964533 -0.013460728 0.26361933 
-0.7443671 0.6157921 0.25829786 
-0.94449556 0.23448326 0.23009957 
-0.2706935 0.6854846 0.67589647 
-0.07225446 0.63664216 0.767767 
-0.949387 0.07706184 -0.30450928 
-0.38438496 -0.7931173 0.47245428 
-0.8154878 -0.2000526 0.54310095 
-0.53922534 0.40260807 0.739691 
-0.043665715 0.60104257 0.7980234 
-0.13764492 0.834262 0.5339108 
-0.093641326 0.963941 0.24909684 
-0.28255057 0.48522937 0.82747674 
0.15814452 0.41526797 0.8958476 
-0.053113695 0.77735823 0.62681186 
-0.11594447 0.84710246 0.5186274 
-0.25826326 0.8719186 -0.41600245 
0.45097062 0.79040134 0.4145979 
0.52513546 0.70926034 0.4703006 
0.82273823 0.5498737 0.14401662 
-0.06624414 0.39443862 0.91653144 
0.65035015 0.37786442 0.65898645 
0.5245415 -0.7075538 0.4735229 
0.80259746 -0.2252213 0.55237013 
0.087528385 -0.23873886 0.96713114 
-0.3035486 0.54402244 0.78223914 
-0.20397086 0.64023465 0.74060494 
-0.24162266 0.36453816 0.89929444 
-0.74134344 0.45481604 0.49351022 
-0.42597985 0.5262756 0.7359179 
-0.15830818 0.15311268 0.97544605 
-0.8904595 0.4467557 0.086552896 
-0.38668764 0.5660263 0.72807074 
-0.43466118 0.8052983 0.40319252 
-0.117565595 0.1615177 0.979842 
0.037439045 0.069034286 0.9969115 
0.08339611 0.696009 0.7131737 
-0.4351143 0.19102307 0.8798783 
0.22533275 -0.71050864 0.6666354 
-0.64618856 -0.028546995 0.76264375 
0.051776767 -0.50104976 0.8638682 
0.21146862 -0.724182 0.6563851 
0.025778968 -0.09941991 0.99471164 
-0.38808477 0.6688129 0.6340976 
-0.43183178 0.66811514 0.60592365 
-0.27331463 0.30533847 0.9121774 
0.43533406 0.42456216 0.793871 
0.7544631 0.19168708 0.6277273 
0.61685514 0.022480786 0.7867557 
0.24417849 0.46563673 0.85062295 
-0.36220318 0.5133227 0.7780158 
0.37666348 -0.04112016 0.92543715 
-0.5999949 0.32355008 0.7316567 
-0.2994951 0.64329296 0.70461124 
0.12360486 -0.09775819 0.9875046 
-0.6110742 0.2909776 0.7361524 
-0.6321194 -0.11423257 0.7664046 
-0.2551506 0.113390185 0.9602296 
-0.14739898 0.4690535 0.87078273 
0.5733914 0.53442395 0.6209779 
-0.3711694 0.32294562 0.8705972 
0.02739888 -0.4227255 0.9058436 
0.42581397 0.48532647 0.76363647 
0.031171842 0.19348262 0.9806084 
-0.34252703 0.03671509 0.9387904 
-0.029922904 0.5023475 0.864148 
-0.49486655 0.0057571963 0.86895 
-0.017075771 0.39195088 0.9198277 
0.16346112 0.3187222 0.93364704 
0.4068167 0.40803766 0.8173161 
0.41002774 0.64626133 0.643602 
0.41836658 0.289371 0.8609494 
0.23215528 0.3628027 0.90248454 
0.37018257 0.19747528 0.90772706 
0.07804659 0.3046998 0.94924533 
-0.38726372 -0.09024388 0.91754174 
-0.15564257 0.33693418 0.92857456 
-0.17493075 0.1650274 0.97065204 
-0.17835934 0.84519225 0.5038234 
0.23399805 0.95195884 0.19753335 
0.0021835426 0.96690834 0.25511512 
-0.015722845 0.8132637 0.58168304 
-0.33593446 0.8497635 0.40626353 
-0.5021427 0.6607394 0.55792135 
0.4375149 0.622323 0.6490723 
-0.3038748 0.7503585 0.5870454 
0.13272911 -0.96943235 0.20635884 
0.39054438 -0.23608 0.8897986 
-0.57233477 0.056533445 0.81806904 
-0.77760124 0.18484029 0.6009745 
-0.7680825 0.6287315 0.1214333 
-0.5972695 0.8009085 -0.042600155 
-0.96990204 0.041964516 -0.23985209 
-0.60374933 0.6888853 0.40115336 
-0.81044394 0.26125288 0.5243354 
-0.3661869 0.5858728 -0.7229524 
0.19705716 0.97434396 -0.10873118 
0.55195755 0.7889552 0.269986 
0.6813156 0.6648246 -0.3062963 
0.3599078 0.3808284 0.8517254 
0.26543346 -0.1610123 0.95058936 
0.00496932 0.5443221 0.8388616 
-0.35859472 0.29585063 0.88537127 
-0.27489308 0.35256538 0.8945007 
0.084674954 -0.54592824 0.8335421 
-0.1775683 -0.48354384 0.85712016 
0.6355719 -0.43562642 0.63739944 
0.15859294 -0.356405 0.92077357 
0.47499815 0.12756078 0.87069225 
0.75393295 -0.20722267 0.62341315 
-0.052029237 0.062327895 0.99669874 
-0.10970294 -0.30019492 0.9475486 
-0.18619664 0.67154264 0.71718985 
0.019818619 0.46732432 0.88386375 
-0.31042585 0.18494363 0.93243325 
-0.35656592 0.6581653 0.6630832 
-0.30760798 0.6301524 0.7129413 
0.09157607 0.13771406 0.9862296 
-0.1783719 -0.39429474 0.90150714 
-0.083380364 -0.49717557 0.8636343 
0.13498959 -0.2751164 0.95188695 
0.037903216 0.0971541 0.99454737 
-0.8629107 0.047000755 0.5031662 
0.024319284 0.31105167 0.9500818 
0.023471216 0.5662979 0.8238665 
-0.36618245 0.8295035 0.42170426 
-0.09587132 0.84213233 0.53068066 
0.06075793 0.74003273 0.6698209 
-0.34626642 0.473737 0.80973625 
-0.31122336 0.47576827 0.8226692 
-0.61531585 0.25085372 0.74730104 
-0.012885496 0.7095956 0.7044914 
0.4931325 0.6937038 0.5249719 
0.0726118 0.9404118 0.3321947 
-0.3264654 0.66688585 0.6698385 
-0.088013574 0.2564603 0.96253926 
-0.36287907 0.43036473 0.82650167 
-0.42343536 0.32537192 0.84547955 
0.35167754 0.5804639 0.73442817 
0.6306816 0.72515976 -0.2763767 
0.09638923 0.98314786 -0.1553369 
0.7002628 0.62871134 0.338163 
0.5798544 0.4486937 0.6800315 
0.71192014 0.6920076 0.11956251 
0.7834175 0.10635109 0.61232877 
0.54167473 0.34740427 0.7654402 
0.39992452 0.41575235 0.8168295 
0.63165975 0.4798867 0.6088636 
0.072646774 0.9911353 0.111235075 
0.6720745 0.44945493 0.5884779 
0.4488279 0.64205706 0.62154347 
0.027677942 0.9066303 0.42101732 
0.6397809 -0.7348667 0.22505862 
0.23058325 -0.5622168 0.7941937 
0.5386217 -0.51564944 0.66632754 
0.14544682 -0.7087166 0.6903378 
0.7534629 -0.18723366 0.6302677 
0.33438465 -0.024998013 0.9421052 
0.5366085 0.70349103 0.46599537 
0.29289234 0.7505539 0.5923537 
0.5131309 0.7861978 0.3443685 
0.068933494 0.61502993 0.7854848 
0.2274669 -0.16194277 0.96022576 
0.6332888 0.37050673 0.67946315 
0.71444935 0.29640988 0.6338008 
0.51852673 -0.37280515 0.7695105 
0.31707904 -0.12605223 0.939985 
0.4312337 0.35548332 0.8292582 
0.6520812 0.21127418 0.7281164 
0.9814748 0.1551858 0.112358905 
0.95899934 0.06342048 0.276221 
0.8128756 -0.29039812 0.50487834 
0.31579033 -0.6234074 0.71528995 
-0.22806612 -0.7779229 0.5855098 
-0.31986478 -0.38287497 0.8666564 
-0.067122675 0.35873184 0.93102425 
-0.37366214 -0.27761546 0.8850459 
-0.16377869 0.20107508 0.9657874 
-0.41138625 -0.56508636 0.7151496 
-0.36317873 -0.53301144 0.76419896 
-0.14779142 -0.81832665 0.55542696 
0.11992845 0.019288128 0.9925952 
-0.53504574 0.83103085 0.1520326 
-0.40663472 -0.54100424 0.7361812 
-0.13295165 -0.5374293 0.83276266 
-0.18454608 -0.40174767 0.8969624 
0.20815209 0.49001294 0.84649867 
0.21203588 0.5983981 0.7726322 
0.14354429 0.2672615 0.95287263 
0.020847054 0.41419688 0.9099486 
0.525223 -0.36558482 0.7684326 
-0.44768786 -0.01125331 0.8941192 
-0.54845 -0.7777128 0.30718955 
-0.19232865 -0.37399197 0.9072705 
-0.46576872 0.2734931 0.8415824 
0.16177717 0.5607924 0.81199765 
0.21589674 0.29042524 0.93222415 
-0.08965647 0.27450404 0.95739716 
0.15868005 0.3863672 0.908593 
0.66765445 0.45187756 0.5916454 
0.25414905 0.3545511 0.8998344 
0.036626324 0.67392063 0.7378953 
-0.23596148 0.48538765 0.8418557 
-0.42622083 0.70313 0.5691608 
-0.11292842 0.5202893 0.8464905 
-0.30410048 0.51101583 0.8039812 
0.0055267075 0.95589787 0.2936476 
0.25306278 0.8774264 0.40753195 
0.58365697 0.13400412 0.8008668 
0.24047711 -0.3067315 0.92091626 
-0.015806945 -0.29063433 0.95670366 
0.26830828 0.23734383 0.9336374 
0.47574416 0.22597499 0.8500605 
-0.025898853 0.67128664 0.74074525 
0.8478843 -0.06923807 0.5256408 
0.76074266 -0.38521978 0.52237564 
0.70534825 -0.31326747 0.63588315 
0.20644993 0.19208924 0.9594166 
-0.07066067 0.42620578 0.9018624 
0.6001961 0.7036926 0.38023856 
0.0116454 0.9240834 0.38201344 
0.8286395 0.28113282 0.4840673 
0.23489831 0.7211234 0.6517698 
0.6972454 0.6098662 0.37671223 
0.51324445 0.76125664 0.39631855 
0.009028446 0.40158466 0.91577744 
-0.12826157 -0.060425263 0.98989785 
0.77422756 0.25281656 0.5802202 
0.20948508 -0.111342 0.97145206 
0.61449695 0.70418066 0.3557009 
0.21209688 0.67503667 0.7066403 
0.15314724 0.6465249 0.7473631 
-0.23981696 0.36776277 0.8984645 
-0.51771444 0.36628684 0.77317905 
-0.122116074 -0.5716481 0.8113608 
-0.08865484 0.12974077 0.9875767 
0.19653627 -0.07701312 0.9774675 
0.60497737 0.367946 0.706129 
0.010974446 -0.38286254 0.92374027 
0.10341721 0.0035643294 0.9946317 
0.27099544 0.31746513 0.90872294 
0.34360662 0.28346393 0.8953116 
0.33456594 0.6550049 0.6775207 
0.19571993 -0.014566931 0.98055166 
-0.255857 0.17819536 0.95014936 
-0.41833377 0.31641802 0.8513968 
-0.76927906 0.09588761 0.6316766 
-0.34972778 0.17175338 0.92097306 
0.11785975 0.8881843 0.44411469 
0.10884892 0.91903543 0.37884805 
-0.16473515 0.9858503 0.031008268 
-0.14014897 0.6972416 0.7030025 
0.05636906 -0.2755464 0.9596337 
0.12916788 0.52148926 0.8434243 
-0.121383935 0.51120514 0.85084397 
-0.98204905 0.011763158 0.1882587 
-0.8523285 0.07186995 0.5180455 
-0.78507733 0.30226833 0.5406363 