# OOMMF: rectangular mesh v1.0
# Segment count: 1
# Begin: Segment
# Begin: Header
# Desc: Time (s) :  1.479999999999999e-07
# Title: m
# meshtype: rectangular
# meshunit: m
# xbase: 2e-09
# ybase: 2e-09
# zbase: 5e-10
# xstepsize: 4e-09
# ystepsize: 4e-09
# zstepsize: 1e-09
# xmin: 0
# ymin: 0
# zmin: 0
# xmax: 1.024e-06
# ymax: 1.024e-06
# zmax: 1e-09
# xnodes: 256
# ynodes: 256
# znodes: 1
# ValueRangeMinMag: 1e-08
# ValueRangeMaxMag: 1
# valueunit: 
# valuemultiplier: 1
# End: Header
# Begin: Data Text
0.29758406 0.94969505 0.0975865 
0.55445236 0.6582651 0.5091853 
0.7528584 0.61429405 -0.23632023 
0.81269413 0.4222428 0.40154603 
-0.14155625 0.59995955 0.78740734 
-0.19699362 0.69778746 0.6886844 
0.9525188 -0.2823365 -0.11399116 
0.6950283 -0.6756353 0.2458712 
0.27453026 0.32286388 0.90575504 
0.47998905 0.704641 0.52258176 
0.574643 -0.28673825 0.766529 
0.35163066 0.08477363 0.9322925 
-0.31890595 0.124170214 0.93961734 
-0.6960438 0.5669293 -0.4405841 
0.1291947 0.97741073 -0.16726331 
0.40145534 0.6943499 -0.5972537 
0.12690543 0.55416566 0.82267576 
0.3190761 0.13752387 0.9376981 
0.4906927 0.25981557 0.8316951 
0.56557804 0.07112508 0.82162213 
0.49427375 0.49853933 0.7121461 
0.113228045 -0.643542 0.7569896 
0.033708952 -0.6860371 0.72678524 
0.37253225 0.37267587 0.84990144 
0.13620128 0.5979409 0.7898835 
0.41925856 0.7438392 0.52050513 
-0.3614649 0.4919686 0.79202914 
-0.4730537 0.69887966 0.53645825 
-0.6044258 0.29106203 0.7415878 
-0.19467904 0.47255492 0.8595301 
-0.45853704 0.433096 0.7759972 
-0.07576135 0.8718385 0.48389882 
-0.579147 0.78355527 -0.22501118 
-0.17677099 0.9753461 -0.13210618 
-0.72067547 0.43638912 -0.5386943 
-0.74931055 0.63793314 -0.17769398 
-0.6974806 0.7018141 -0.14483717 
-0.61195534 0.75366336 -0.2397962 
-0.27206582 0.9490776 0.15884526 
-0.10956728 0.8307964 0.54568523 
0.22338717 0.9439547 0.24299727 
0.3379989 0.93218863 0.12954223 
0.44450095 0.8641332 0.23599307 
-0.14990245 0.95014316 -0.2734181 
-0.19287512 0.8526589 0.48556352 
-0.43234476 0.8390678 -0.3302171 
-0.797079 0.59794134 -0.08444638 
-0.68292296 0.7241865 0.09576137 
0.5036223 0.7353794 -0.45341128 
0.0820649 0.8519441 -0.51716214 
-0.5612108 0.79503465 -0.2301355 
0.70803195 0.054830104 -0.70404863 
0.96886206 -0.050416414 -0.24241436 
0.3704472 0.9288501 0.0025294893 
0.6191936 0.48822892 0.6150056 
0.39684445 -0.08484983 0.9139558 
-0.27400285 -0.12051855 0.95414764 
-0.36182213 0.31579843 0.87712944 
-0.1550008 0.19573472 0.96832985 
-0.7401503 0.22307043 0.63436365 
-0.6686194 0.6174707 0.41434073 
-0.60142833 0.55217516 0.57739645 
-0.49597976 0.7018684 0.5112582 
0.18823393 0.98198766 -0.016380144 
0.28849608 0.7994465 0.52693015 
-0.14081094 0.9521187 0.27137104 
-0.11612588 0.48902863 0.8645032 
-0.22594996 0.9605442 0.16217704 
0.18309169 0.959754 -0.21295492 
0.31551564 0.69541466 0.645638 
0.7336431 0.50540596 0.45423844 
0.5461609 0.829936 0.11364305 
0.61387056 0.49733612 0.6130414 
0.304598 0.91693205 -0.2577901 
0.31094098 0.8407475 -0.4432375 
0.009539842 0.95987713 0.2802586 
-0.13446538 0.6502999 0.7476826 
-0.24287495 0.6467513 0.722997 
0.3762632 0.48580495 -0.7889358 
0.90937334 0.32004172 -0.26573202 
0.26358688 0.8460394 -0.46339965 
0.52034575 0.5798955 0.62686646 
0.024743373 0.014147187 0.99959373 
-0.44312498 0.74705803 0.49552453 
-0.31225637 0.94852287 -0.05291959 
-0.4672007 0.88178325 0.064666785 
-0.95433104 0.29372528 -0.054568917 
0.024901913 0.8089325 -0.58737403 
0.3340738 0.9153806 -0.2246623 
0.18681028 0.7607606 -0.6215668 
0.6894573 0.68160325 -0.24508299 
0.8860061 0.37124115 0.27780092 
0.31817144 0.7048021 -0.63405126 
0.1985918 0.74416816 -0.6377893 
0.3863713 0.8901224 0.24165969 
0.22856048 -0.059185375 0.97172904 
0.28214708 0.7211091 0.63276756 
-0.1380761 0.7633854 0.63101333 
0.015426683 0.7051666 0.70887387 
0.7114333 0.5586237 0.42638293 
-0.06694368 0.92471457 0.37472877 
-0.4511994 0.8613934 0.23328227 
0.069283046 0.9450778 0.31941816 
0.8696389 0.19537546 0.4533835 
-0.1675412 0.34753224 0.9225786 
0.09257749 0.98902005 -0.1151898 
0.29156443 0.8353957 0.46594438 
-0.039704256 0.8291895 0.5575558 
-0.58227015 0.7642523 0.27727264 
-0.2222943 0.75891995 0.61206686 
-0.59339935 0.6102753 0.524825 
-0.46299344 0.6715503 0.5784958 
-0.36098137 0.44647923 0.81874835 
-0.7284874 0.14739814 0.66901416 
-0.25246212 -0.02665253 0.9672397 
-0.75296223 -0.09097545 0.65174484 
-0.71060884 0.068199724 0.70027417 
-0.4688228 0.8437049 -0.26147178 
-0.59978014 0.2251519 -0.76783496 
0.08829916 0.68139905 -0.7265664 
-0.3929346 0.55953443 -0.7297423 
-0.6238329 0.6762479 -0.39181814 
-0.69602513 0.7026276 -0.14786316 
0.12068611 0.9900214 -0.07275047 
-0.31358916 0.9138121 -0.258088 
0.4711144 0.7887932 -0.39478666 
0.29974422 0.6035263 0.73885685 
0.9865447 0.1547354 0.052786645 
-0.38580498 0.35607913 0.85109466 
0.2929123 0.20323014 0.9342911 
0.109703116 0.93041575 0.34970257 
0.61656487 0.5057015 0.60341847 
0.3521776 0.89197063 0.2834772 
0.61115015 0.34497705 0.71238077 
0.9000525 0.16481465 -0.40341255 
0.8371817 -0.2936672 0.46139616 
0.8550887 0.19052765 0.48220602 
0.39435014 0.4395735 0.80700874 
-0.39659956 -0.31145352 0.86354244 
-0.34265378 0.4589469 0.8197294 
0.6105314 0.7815231 -0.12834801 
-0.17793728 0.9786664 -0.10271449 
0.6381475 0.7689658 0.038205102 
0.5797512 0.81441706 0.02476655 
0.07145277 0.9148565 0.397407 
-0.5368993 0.55168116 0.63826877 
-0.17783637 0.93433493 0.30885684 
0.5229808 0.7750684 0.35462695 
0.8875981 0.4601475 0.02083125 
0.69426227 0.6252064 -0.35653463 
0.9087725 0.26511577 0.32225192 
0.35463887 0.86022973 0.36638263 
-0.28918013 0.60599303 0.7410448 
0.018769395 0.33882844 0.94066095 
0.16930364 0.48752385 0.85653776 
0.2365676 0.0938097 0.96707577 
0.45985314 -0.041002385 0.8870479 
0.14326853 0.3956247 0.9071688 
0.3120112 0.016116673 0.94994175 
0.007848131 0.48762345 0.8730188 
0.16977033 0.083033845 0.9819794 
0.030107128 -0.097191356 0.9948102 
0.017659122 -0.33791056 0.9410126 
-0.20605534 0.40976948 0.8886114 
-0.14521351 -0.10477556 0.98383695 
-0.44819695 0.5736864 0.6855679 
-0.5201499 0.85349077 0.03158715 
-0.64323664 0.58639485 0.4923289 
-0.8897553 0.3216761 0.32382092 
-0.7605428 0.58150584 0.28883493 
-0.6452697 0.7515225 -0.13726273 
0.13879329 0.90137374 -0.41019753 
0.43807513 0.42253262 0.7934459 
0.24590276 0.5305767 0.81118447 
0.29084957 0.3828502 0.8768308 
0.14714018 0.9765083 0.15742114 
-0.5680089 0.73658437 0.36716408 
-0.2158473 0.81158864 -0.542894 
0.33637 0.84136534 0.4230364 
0.013732909 0.86772394 0.4968569 
-0.047540672 0.034637433 0.9982686 
0.6500462 0.07882057 0.7557958 
0.29839045 0.5702626 0.765352 
0.74389714 0.6055756 0.2826574 
0.15853202 0.7098397 0.686291 
-0.014196617 0.9873353 0.15801111 
-0.30449125 0.92812777 0.21415895 
-0.77329475 0.12618034 0.6213644 
-0.4391608 0.47660398 0.7615684 
-0.36662447 0.65457964 0.66114444 
-0.078858055 0.37183753 0.9249423 
-0.60698754 -0.14646575 0.781098 
-0.9487003 0.23589434 0.2105273 
-0.35810807 -0.3100708 -0.8806899 
-0.07235539 -0.15056412 -0.9859489 
0.47573808 0.31838515 -0.8199415 
-0.41097838 0.76875865 -0.49000707 
-0.16473341 0.9577422 -0.23578149 
-0.803901 -0.041513517 -0.5933126 
-0.12581487 0.62621516 -0.7694318 
-0.81940496 0.45626837 -0.34697968 
-0.0852764 0.85541356 0.51087725 
0.029475532 0.9148259 0.40277147 
-0.19019355 0.89191467 0.4102619 
0.5930883 0.617513 0.5166469 
-0.1146788 0.44928536 0.88599753 
-0.6391983 0.75002354 0.16997163 
-0.47828698 0.5711187 0.667132 
-0.3156123 0.34314904 0.8846681 
-0.5837177 0.63917744 0.5007254 
-0.522367 0.8319857 0.18690291 
-0.1573613 0.9446003 0.2880412 
-0.04373017 0.7943061 0.6059419 
-0.11172991 0.49302122 0.86281323 
-0.0860636 0.5208231 0.84931535 
0.15875106 0.6145586 0.7727328 
-0.44742638 0.62367624 0.64096624 
-0.57872105 0.7517026 0.3162678 
0.30193117 0.8905574 0.34021348 
-0.0239484 0.9828828 0.18266878 
-0.17834039 0.9098223 -0.37472403 
-0.06951605 -0.29512632 -0.95292604 
0.6950152 0.41414756 -0.58773786 
0.2378185 0.95209056 -0.1922653 
0.89876926 0.18627664 0.39688143 
0.8823434 0.19339857 0.42903057 
0.82746226 0.388378 0.40554756 
-0.10143579 0.08551148 0.9911602 
-0.4550828 -0.22680166 0.8610811 
-0.28176194 -0.24440932 0.9278332 
-0.17057213 0.27789328 0.9453468 
-0.17981534 0.37778527 0.9082647 
0.012311268 0.8872918 0.46104434 
0.29072264 0.4997699 0.81591076 
-0.61752117 0.66317445 0.42292708 
0.8979714 0.38535526 0.21248233 
0.40427634 0.38671905 0.8288601 
-0.24033296 -0.16269538 0.95695895 
-0.5528526 0.8276489 0.096703865 
0.0732597 0.9589601 0.27391353 
0.5879338 0.5282984 0.61256415 
0.3103403 0.0013122865 0.9506247 
0.42515415 -0.06051611 0.9030956 
0.74051714 -0.046015725 0.6704602 
0.6012645 0.21927473 0.7683747 
0.50880474 -0.11432072 0.85325754 
0.23373497 0.09864535 0.9672834 
0.5716881 -0.21096474 0.7928851 
0.21371716 0.8122352 0.5427697 
0.17541231 0.93458587 0.30948308 
0.0014879536 0.8502011 0.526456 
-0.59435314 0.42519245 0.6826096 
-0.5463294 0.8375066 -0.010344363 
-0.77924955 0.6262458 -0.024214653 
-0.78452706 0.2243166 -0.5780997 
-0.55339 0.16470054 -0.81647617 
0.6098951 0.6630911 0.43397942 
0.65253305 0.34069964 0.6768489 
0.613312 0.68744093 0.38893896 
0.019458877 0.50336707 0.8638535 
0.3238915 0.53426 0.7808077 
0.17485313 0.7161032 0.67573863 
0.7831547 0.6208214 0.035350893 
0.8881991 0.4537144 -0.07242593 
0.85350233 0.18082711 0.488708 
0.63547665 -0.003834493 0.7721106 
0.48491982 -0.31601483 0.81546766 
-0.20383221 0.26071337 0.94365305 
-0.16980341 0.62858933 0.7589745 
-0.50774354 0.54695505 0.66561 
-0.60885423 0.76087755 0.22441423 
0.2808292 0.9592549 -0.031063592 
0.13160905 0.9265504 0.35239676 
0.32729957 0.654849 0.6812105 
0.46687457 -0.3033777 0.8306564 
0.109357595 0.14133158 0.9839036 
0.15488075 -0.15203601 0.9761645 
0.06703719 -0.37270072 0.925527 
-0.26475468 -0.023438482 0.964031 
-0.65259814 -0.023056464 0.75735337 
-0.93986964 0.2271985 -0.25500187 
-0.24781415 0.849632 0.46552497 
-0.32341325 0.62510103 0.710389 
-0.38671097 0.7018452 0.5982207 
0.24359237 0.69922435 0.6721221 
-0.5829275 -0.20409867 0.78647274 
-0.009102591 0.72114503 0.6927244 
-0.4474922 0.7703632 0.45419315 
-0.7109082 0.7025615 0.031890932 
-0.18048263 0.7915145 0.5838928 
-0.28355804 0.6512218 0.7039212 
-0.08619017 0.9957578 -0.032212235 
-0.35658497 0.8548207 0.3769998 
-0.45129034 0.6882905 0.5679731 
0.09958331 0.94743216 0.30406493 
0.2926273 0.82789195 0.4785022 
-0.1028496 0.8077883 0.5804309 
-0.49290842 0.8699132 0.017093608 
0.06236993 0.9254517 0.3736965 
-0.18825687 0.89230233 0.41031194 
-0.20078497 0.9703209 0.13476992 
0.19551793 0.97496116 0.105941616 
-0.36879528 0.76919866 0.5218463 
-0.3255228 0.7223197 0.61015505 
0.43466684 0.8197033 -0.37302983 
0.55326605 0.69176507 0.46406668 
0.5427977 0.8377229 0.059925117 
0.8077371 0.56779736 -0.15864109 
0.77787197 0.57031095 0.263933 
0.5363181 0.8018042 0.26357743 
0.40226647 0.666091 0.6280959 
0.038370218 0.59296286 0.80431515 
-0.43081263 -0.23380621 0.8716279 
-0.028403474 0.1288068 0.9912629 
-0.35489324 -0.6072549 0.71083915 
-0.31139082 -0.7927452 0.52401435 
-0.35617033 0.5071242 0.7848361 
0.025352897 -0.36714503 0.9298181 
-0.8598549 0.0101986835 0.5104367 
0.39794698 0.6991824 0.5939547 
0.34976026 0.35604388 0.8665452 
0.06273509 0.39015892 0.91860783 
0.055236485 0.65214103 0.7560827 
-0.31637472 0.9178657 0.23964494 
0.13651517 0.9899263 -0.037544157 
0.4910126 0.34280637 0.8008686 
0.5852629 0.5345152 0.6097219 
0.35114095 0.9203325 0.17230244 
-0.28176627 0.9119558 0.29823557 
0.17924969 0.9799549 0.086937696 
-0.10761471 0.9786207 0.17527328 
0.07298939 0.97943527 0.18809342 
-0.10751676 0.68102574 0.7243233 
-0.57072836 0.33532292 0.7495517 
-0.8714717 0.39731213 0.28754184 
-0.21146944 0.96942925 0.124449044 
0.3414649 0.9277863 0.15038082 
0.6203544 0.4613636 0.6342744 
0.6193064 0.06290396 0.7826255 
-0.6436105 0.44568005 0.6222017 
-0.47523636 0.5623924 0.67665744 
-0.5966929 0.7916664 -0.13123211 
-0.5588289 0.8161614 -0.14693896 
-0.28615618 0.8945899 -0.3432545 
-0.36665896 0.5102763 0.77793276 
0.4942069 0.69065595 0.5279716 
0.768843 0.60765225 0.19909586 
0.716255 0.5852573 0.38006946 
0.48353836 0.8352606 0.26178315 
0.42093372 0.74762267 0.5136878 
0.12773836 0.8557871 0.50130963 
-0.27366406 0.8658722 0.41877615 
-0.10874835 0.93126255 0.3477413 
-0.06660398 0.77254444 0.63145787 
-0.66944873 0.74189025 -0.03791195 
-0.2279866 0.9352201 0.27089757 
-0.8701301 -0.016574161 0.4925432 
-0.45893458 0.8771904 0.14112468 
0.45449606 0.6172321 0.64222884 
0.2866449 0.932594 0.21932448 
0.83972794 0.38342288 0.38450477 
0.021602428 0.82970357 0.5577861 
-0.21975596 0.96534073 0.14080034 
-0.51036865 0.46533486 0.7231787 
-0.46523544 0.75982904 0.45410982 
-0.57182014 0.24412708 0.78321373 
0.09978274 0.92102176 0.3765136 
0.36675048 0.12607107 0.9217377 
-0.24650793 -0.6451669 0.7231829 
-0.6533253 0.10422615 0.7498687 
-0.9857502 -0.16793135 0.009777767 
-0.51732284 -0.2935049 0.8038856 
-0.028131116 0.62353325 0.78129053 
-0.5129025 0.79458344 0.32491252 
-0.09752511 0.8605772 -0.4998957 
-0.448482 0.7946446 -0.40915012 
0.24109545 0.7722991 -0.5877305 
-0.30864546 0.9471311 0.08763982 
0.15056615 0.9737028 0.17097613 
-0.14705384 0.6105551 0.7782015 
-0.517221 0.76887727 0.37591276 
-0.2807914 0.95963603 -0.015972456 
-0.4958865 0.68246883 0.5369664 
0.2675239 0.8252278 0.49742347 
0.42933166 0.09736547 0.89788336 
-0.013449993 0.66528165 0.74647135 
0.18384103 0.8168477 0.5467747 
0.46154767 -0.17789508 0.8690956 
0.51523 0.48665765 0.7054803 
0.582329 0.2999303 0.75560236 
0.99171877 -0.069312476 0.10811923 
0.82232475 -0.08392135 0.562796 
0.3279114 0.76187503 0.558588 
0.44213966 0.4638196 0.76771337 
0.31287533 0.6041244 0.7329002 
0.34377164 -0.12037127 0.9313065 
0.4269622 0.5815998 0.69241965 
0.12998946 0.97822785 0.16178095 
0.71966857 0.69199324 -0.056768414 
0.8432922 0.5295242 0.0919912 
0.4712358 0.876987 0.09397233 
-0.14439751 0.90053046 0.410115 
0.29026535 0.8249327 -0.4850073 
0.6012873 0.780267 0.17215455 
0.8928874 0.45006797 0.013815367 
0.7737586 0.50527763 -0.3820894 
0.8873867 0.13228203 0.44164068 
0.64291906 0.2239529 0.73246175 
0.023403224 0.711204 0.7025961 
0.63410074 0.5648362 0.52808744 
0.65679574 0.498978 0.5653676 
0.13684003 0.474598 0.86950076 
0.2361107 -0.045294695 0.9706699 
0.57688487 0.2546167 0.77612764 
-0.18074769 0.31769472 0.9308063 
0.28019267 -0.07300033 0.95716405 
0.11452029 -0.81683266 0.5653933 
0.20180795 -0.7544958 0.6245074 
0.69716877 -0.7026608 -0.1422097 
-0.038826916 0.31032512 0.9498373 
-0.36888584 0.24714813 0.896014 
-0.45336893 -0.06150052 0.8891987 
-0.4617163 0.7268119 0.5084907 
-0.5141141 0.6846243 0.5166974 
-0.46678463 0.3526408 0.811022 
-0.622039 0.48317114 0.6161276 
-0.654434 0.7558217 -0.021206938 
-0.25598696 0.9515792 -0.17019911 
0.4335587 0.8090615 0.39679536 
0.2592916 0.9272242 0.2702281 
0.021213776 0.92058635 0.3899627 
-0.30698967 0.7224563 0.61952746 
0.023746602 0.90226936 0.43051848 
0.12996918 0.9413819 0.31130114 
0.6169694 0.72026557 0.3171218 
0.5857663 0.65653676 0.47522348 
0.6973501 -0.086574376 0.7114828 
0.3157959 -0.37392965 0.8720376 
0.83284897 0.13589641 0.5365583 
0.62271714 0.5416357 0.5646718 
0.1715632 -0.05242539 0.9837772 
-0.37581128 0.40912065 0.8314964 
-0.47248408 0.28608745 0.8336143 
-0.6574918 0.18124123 0.7313387 
-0.9604704 -0.14530279 0.23745276 
-0.81194496 0.12254316 0.57072645 
-0.95972526 0.26714295 0.08696031 
-0.88244975 0.07411533 0.46453133 
-0.7783331 0.45276827 -0.4349694 
-0.98122996 -0.16464253 -0.10040259 
-0.39973623 0.5965079 -0.69598085 
0.12090033 0.93198174 -0.3417501 
0.5001391 0.6421939 -0.5809027 
0.68361473 0.61019987 -0.4004085 
-0.04935736 0.053680215 -0.99733764 
0.10075949 0.45243683 -0.8860861 
0.18516718 0.9642812 0.18940689 
0.17005596 0.98536557 0.01165211 
-0.51234126 0.40994623 0.7546196 
-0.39223763 0.24362923 0.8870143 
-0.12458657 0.7726844 0.6224445 
-0.21256638 0.49012935 0.8453336 
-0.54553586 0.27272004 0.7924737 
-0.67273027 0.15976986 0.7224318 
-0.29823777 0.8827843 0.36296847 
-0.66230136 0.7492214 0.0049213273 
0.1988026 0.9657947 0.16648825 
0.17311604 0.9578395 -0.22929093 
0.45249128 0.58896285 0.66960776 
0.20437475 -0.39590344 0.8952606 
0.2552656 -0.37755293 0.8901086 
0.13209027 0.3732553 0.918277 
-0.72517335 0.6151905 0.30929652 
-0.48566246 0.19479546 0.8521659 
0.4587421 0.44880223 0.76689774 
0.20545848 0.74654776 0.63281375 
0.6056576 0.79244953 0.072129376 
0.33462632 0.7880495 -0.5167237 
0.5304217 0.5638111 -0.6330639 
0.6037732 0.58028156 -0.5465632 
0.9430545 0.02801177 0.33145696 
0.006432533 0.5160255 0.8565491 
0.054743517 0.400101 0.9148347 
-0.45104715 0.6947389 0.56026274 
-0.3381345 0.7287855 0.5954299 
0.28552163 0.6637691 0.69129443 
0.6916417 0.2985453 0.6576492 
0.26104897 0.3789579 0.88783133 
-0.0836886 0.1934722 0.97752994 
-0.6499228 0.07978218 0.75580114 
-0.5232077 0.31201124 0.7930339 
0.10125028 -0.00075178273 0.99486077 
0.31134668 -0.29073086 0.9047314 
-0.67547756 -0.21048056 0.7067022 
-0.56705683 0.08918879 0.8188358 
-0.21524431 0.6839914 0.697012 
0.46233436 0.5236343 0.7155795 
0.7252988 0.16313964 0.66882515 
0.32256603 -0.24726623 0.9136798 
0.45218754 -0.1420411 0.8805401 
0.10409128 -0.047541823 0.9934309 
0.4696525 0.17492004 0.86534935 
-0.23115607 0.3602146 0.90377676 
0.50860953 0.81666625 -0.2727137 
0.46256486 0.85608894 0.23053321 
0.497495 0.7728157 0.3940237 
0.15447047 0.2769232 0.9483947 
-0.22157225 0.6499281 0.7269796 
0.37636372 0.6711076 0.6387214 
-0.169403 0.93384135 0.31502864 
-0.95938766 0.24285178 0.14352135 
-0.60761476 0.40659955 -0.6822619 
0.9731091 0.12636864 0.19258684 
0.76932734 0.29094648 0.56875795 
0.7773488 -0.34995648 0.5227422 
0.9817433 0.017601553 0.18939483 
0.83698785 0.14124541 0.5286786 
0.5015918 0.46943045 0.7266641 
0.28263688 0.80681443 0.5188131 
0.17338277 0.63579893 0.7521292 
0.5644198 -0.2757814 0.7780584 
0.7286115 0.06475618 0.68185925 
0.8414134 0.21453401 0.4959828 
-0.3814191 -0.10180299 0.91877943 
0.062447704 -0.26720625 0.9616139 
-0.30620992 0.14981487 0.9401017 
-0.10065451 0.61556226 0.7816341 
-0.27502093 0.8560298 0.4376946 
0.4272059 0.7440594 0.51368356 
0.805128 0.53583646 0.25426042 
0.38653168 -0.3908361 0.8353686 
0.42083552 -0.2584692 0.8695351 
0.4123494 -0.18612781 0.8918097 
-0.1915956 -0.54746157 0.81460243 
-0.1989505 0.19540994 0.96032995 
-0.21247111 -0.43353394 0.87573075 
-0.2912944 0.4094717 0.86456954 
-0.45793143 0.3206037 0.8291636 
-0.37923515 0.44054946 0.8136934 
-0.03278841 0.2813272 0.95905167 
-0.45469448 0.37347642 0.8085595 
-0.37887564 -0.53960025 0.75185424 
0.5462953 0.5931105 0.5914233 
0.48013422 -0.35744843 0.801063 
0.36705053 0.42638925 0.8267202 
-0.1419687 0.2540715 0.9567093 
-0.5019093 -0.0017840618 0.8649184 
0.11563628 0.61908686 0.77676237 
0.059485115 0.49645048 0.8660246 
-0.48066854 0.54303485 0.6885282 
-0.31405905 0.66120183 0.68130696 
-0.17982225 0.46695876 0.8658022 
-0.20308307 0.6772113 0.7072074 
-0.05225174 0.98674226 -0.15365422 
-0.027472181 0.939165 0.3423661 
-0.29062104 0.7664093 0.57284915 
-0.26683787 0.9054568 -0.33006915 
0.78125185 0.43666017 -0.44606447 
0.19050808 0.8021576 0.5659063 
-0.3362914 0.42593205 0.8399346 
0.66328496 0.74537694 -0.066830136 
-0.15218079 0.5978733 0.78701246 
0.46039042 0.85914534 0.2234053 
0.43206787 0.5316069 0.7284995 
-0.18119644 0.85302377 0.4894063 
0.27058372 0.27990052 0.9211082 
-0.118895166 0.21799102 0.9686816 
-0.52448225 0.0021001808 0.85141885 
-0.50252473 0.3682842 0.7821993 
-0.05845026 -0.08246553 0.9948784 
0.23138562 -0.03541689 0.9722172 
-0.39648148 -0.73674196 0.5477351 
-0.5559672 0.06333302 0.8287879 
0.21986246 -0.5498221 0.80582637 
-0.25400916 -0.24862951 0.93469924 
0.46932545 -0.064260475 0.88068396 
-0.3061807 -0.37568596 0.87470764 
0.6022833 0.15181966 0.7837128 
0.1087979 0.20477661 0.9727434 
-0.2146176 0.7522959 0.6228886 
0.487109 0.45325708 0.74651384 
0.64051265 0.27790916 0.7158981 
0.4985519 0.32509476 0.8035916 
0.45010686 0.19094768 0.8723205 
0.017808069 0.1743403 0.9845244 
0.45538667 0.26230472 0.8507758 
0.21798421 0.61595464 0.7570224 
0.16954945 0.80891436 0.5629482 
0.58689237 0.7525617 0.2986775 
-0.24815606 0.79740876 0.5500527 
-0.31217065 0.68242854 0.66093934 
-0.08833441 0.3717895 0.92410487 
0.48571882 0.7475319 0.45307115 
0.68208665 0.669871 0.29331005 
0.7184508 0.6740119 0.1718619 
0.3315572 0.798267 0.50283164 
0.45387638 0.6608194 0.59775746 
-0.4127227 0.40732726 0.81470513 
-0.55747664 0.40947944 0.7221818 
-0.326445 0.77600497 0.53967583 
0.39764103 0.40185887 0.8248583 
0.41545707 0.83153 0.3687187 
0.68366534 0.321443 0.6551917 
0.40658155 0.7414236 0.53383756 
0.5385303 0.83190626 0.13385467 
0.41963112 0.607018 0.6748622 
-0.19090082 0.5111546 0.83802015 
0.22975509 0.1797794 0.95649993 
0.58869857 0.6516778 0.4782783 
-0.71411735 0.16372366 0.68061084 
-0.6574893 0.5673438 0.49581143 
-0.45816588 0.83554494 0.3032306 
-0.36262742 0.9196322 0.15092416 
-0.04467755 0.86745846 0.49549952 
0.010177102 0.6163554 0.78740245 
-0.27575114 0.91625214 0.29059163 
-0.22804159 0.7180725 0.6575478 
-0.27112928 0.56211954 0.78135175 
-0.53014064 0.08749098 0.84338385 
-0.057625398 -0.16528763 0.98456055 
-0.3985232 0.27907544 0.8736682 
-0.6428388 0.010417496 0.7659308 
-0.2712964 0.86639136 0.41924247 
0.0900048 -0.80394477 0.5878536 
-0.20097177 -0.5665891 0.79911643 
-0.87552 -0.176881 0.44964206 
-0.8333277 0.1506017 0.5318686 
-0.54102373 0.2521688 0.8023118 
-0.6256122 0.5662782 0.53659886 
-0.72584313 0.56348634 0.39450595 
-0.22100562 0.0981781 0.9703183 
-0.3693765 0.18535812 0.910606 
-0.2627604 0.8135853 0.5186867 
0.15120612 0.975365 0.16062354 
0.078017004 0.91323024 0.39990488 
0.36524343 0.849493 0.38073462 
0.33174127 0.2225331 0.916748 
0.025509493 0.3573054 0.9336392 
-0.16609074 0.12177794 0.9785623 
0.050294664 0.2442039 0.96841884 
0.031802602 0.47398594 0.8799579 
0.13389088 0.8510275 0.50776535 
0.63155144 0.59749067 0.4941131 
0.22842312 -0.5155744 0.8258365 
0.2988602 -0.4395645 0.84703344 
0.21420974 0.5019652 0.83794093 
0.6977583 0.21100456 0.68455136 
0.22830644 -0.14516954 0.96270555 
0.03745601 0.28900826 0.95659363 
0.53493357 -0.21776064 0.81634945 
-0.084929705 0.29942372 0.95033276 
0.4619063 0.30249208 0.8337513 
0.544043 0.813633 0.20498444 
0.32965302 0.5354753 0.7775572 
-0.104966134 0.94517106 0.3092474 
0.5576958 0.78102875 0.28101498 
0.08109965 0.80557615 0.5869156 
0.30261898 0.9502546 0.07374287 
-0.014996387 0.7813765 -0.6238798 
0.12719056 0.77832365 -0.61484545 
0.76213014 0.6430706 0.074953444 
0.66413456 0.6044598 -0.43994728 
0.99392235 -0.024424942 0.10734027 
0.783224 0.20104264 0.5883385 
0.31786954 -0.03688242 0.94741684 
0.71483374 0.040318716 0.6981312 
-0.16624422 0.3105467 0.93590796 
0.20435123 -0.059072953 0.9771136 
0.43984544 -0.16399655 0.882973 
-0.2034436 0.5032515 0.8398504 
0.22397295 0.050086115 0.97330755 
0.36271682 0.05232966 0.93042904 
0.8092129 -0.31513906 0.49584445 
0.06765789 -0.789293 0.6102778 
0.36021632 -0.62665516 0.6910482 
0.048190277 0.63794136 0.7685756 
-0.21285939 0.85557467 0.47189295 
0.61178815 0.5901905 0.5266788 
0.21840252 0.25837702 0.9410323 
-0.69740677 -0.2720679 0.66302556 
-0.30994517 0.8780937 0.3645347 
-0.5061159 0.7725449 0.38343313 
-0.031341836 0.995949 -0.08428217 
0.41116565 0.911079 -0.029632669 
0.09898085 0.7436263 0.6612283 
0.25913495 0.54482067 0.7975083 
0.4437286 0.21610853 0.86971384 
-0.51228625 0.5882336 0.6257348 
-0.25273788 0.28368315 0.9250121 
-0.7259616 0.13888654 0.6735654 
0.19544819 0.78762734 0.5843315 
-0.24428639 -0.12122068 0.9620966 
0.8815184 0.3809656 0.27890936 
0.81219685 0.24414922 0.52983713 
0.27815813 0.062078264 0.9585272 
0.64524776 0.16448803 0.7460557 
0.11899042 0.24352208 0.96256864 
-0.17685202 0.7082818 0.68341815 
-0.3010302 0.7391584 0.6025163 
-0.31536487 0.6645955 0.6773906 
-0.35530484 0.39737365 0.8460808 
-0.643726 0.3607276 0.67490184 
-0.8562061 0.43471032 0.27917403 
-0.6185452 -0.13674745 0.7737584 
-0.91442275 0.15619382 0.37340945 
-0.9422566 0.1868315 0.2779327 
-0.72661465 -0.57130075 -0.38163686 
0.41602242 0.55022895 -0.72399825 
0.25071484 0.80008465 -0.54498315 
0.22247595 0.97257954 -0.0677758 
-0.13630053 0.890926 0.43321273 
0.027801014 0.9919035 0.12391368 
0.56550336 0.7895117 -0.23848988 
0.5411358 0.61566275 0.57282764 
-0.35761118 0.60218364 0.71378505 
0.7668846 0.05212943 0.63966435 
-0.22343913 0.3085834 0.92458165 
-0.5206415 0.69364595 0.49778295 
-0.8939683 0.44761553 0.021474939 
-0.2666292 0.23959112 0.93354434 
-0.13723357 0.5704859 0.8097609 
-0.70316553 0.6894724 -0.17374158 
-0.32495913 0.80531114 0.49585852 
0.18117407 0.8797662 0.43953082 
0.075407766 0.699292 0.71084774 
0.459407 0.22208743 0.86001307 
-0.38186803 -0.63200426 0.67434967 
-0.6911703 0.27508503 0.6682904 
-0.72985786 0.6835091 0.011084456 
0.11717463 0.9811254 -0.15382837 
0.47115073 0.7798844 0.4120649 
0.61391616 0.44452718 -0.6523056 
0.9347706 0.3457092 -0.08178766 
0.7933795 0.5935418 0.13511895 
0.3674095 0.90497154 0.21456167 
0.8215065 0.42016983 -0.38546646 
0.7700818 0.22229396 0.59796286 
0.4155385 0.5286524 0.7401719 
-0.24082184 0.44198045 0.8640939 
0.20265128 0.81110114 0.5486779 
-0.13499524 0.94963247 0.28279772 
0.020096635 0.8581955 0.51292944 
-0.16620795 0.6034307 0.77990144 
0.6590071 -0.13562308 0.73980814 
-0.4728389 -0.30898485 0.8251981 
-0.7792817 -0.2511361 0.5741521 
0.31792092 -0.07478837 0.945163 
0.36707455 0.17058276 0.91441673 
-0.1613856 -0.37956828 0.9109789 
-0.39687988 -0.7367371 0.5474531 
-0.009514004 -0.2765669 0.96094763 
0.19467661 0.23202947 0.9530286 
0.15812922 0.24016559 0.957766 
-0.0053525483 0.090368144 0.9958941 
0.6811033 -0.6701103 0.29504347 
0.15691997 -0.7408857 0.6530426 
0.07336319 -0.45221135 0.8888885 
0.045501173 -0.121701844 0.9915233 
-0.48741233 0.50228286 0.71424174 
0.13268106 0.23768094 0.96223885 
0.3233409 0.46003878 0.82693106 
-0.4313859 0.8540907 0.2905775 
-0.24497803 0.8752308 0.4170815 
-0.18165088 -0.19098705 0.96463823 
0.08144287 -0.061527472 0.9947771 
-0.71874034 0.55329853 0.42103818 
-0.58199173 0.8123685 -0.03664936 
-0.14239658 0.95984644 -0.2416982 
0.33753467 0.074917816 0.93832713 
0.61486495 0.17270942 0.7694886 
0.6019844 -0.6885462 0.4043749 
0.9007377 -0.2656996 0.34362087 
0.27885225 0.060632505 0.9584181 
0.3103586 0.31298745 0.89761716 
0.6971563 0.25660393 0.66942334 
0.72758013 0.3729583 0.5757859 
0.85336065 0.08801388 0.5138377 
0.63979805 0.52100307 0.5649905 
0.4021458 0.38506284 0.83066565 
0.05670349 -0.23101382 0.9712968 
-0.020190468 -0.6205831 0.7838808 
-0.13029829 0.05461339 0.98996955 
0.286863 -0.11974965 0.9504577 
-0.35058987 0.5878258 0.7290731 
0.20997094 0.8447423 0.49226275 
0.45481881 0.50363034 0.73450416 
0.80567604 0.0644355 0.5888415 
0.3769981 -0.4605104 0.80361855 
0.04980295 0.2442675 0.9684282 
-0.6448726 0.33217752 0.68832946 
-0.4488282 0.79667425 0.4048006 
-0.5838418 0.38029402 0.7172902 
-0.5827606 0.48923704 0.6488739 
-0.43218145 0.04889784 0.90046006 
-0.30478162 0.33267838 0.89243114 
0.07541675 -0.08355889 0.9936449 
-0.08941633 0.055955287 0.9944213 
-0.6587278 -0.56327885 0.49879318 
0.49470565 -0.35620353 0.79270756 
0.20689024 0.21767934 0.95384073 
0.044124983 0.0010043943 0.9990255 
0.63940364 0.39067438 0.662221 
0.20680879 0.3403049 0.917291 
0.4539546 0.40015528 0.7961163 
-0.7447281 0.41326356 0.5240165 
-0.14537585 -0.36270753 0.92049396 
-0.38019493 0.18376757 0.9064664 
-0.4554678 0.8891785 0.043712955 
-0.13659568 0.9673905 0.21330099 
-0.18708326 0.910924 0.36771923 
-0.31839222 0.9183153 0.23520945 
-0.03222763 0.9016703 0.43122184 
0.0031100824 0.9578626 0.2872099 
0.68431306 0.727079 0.055424843 
0.4424251 0.85432774 0.27273455 
0.2817324 0.6912287 0.6654547 
0.24068445 0.74922544 0.61703515 
0.24050269 0.8747209 0.42073986 
-0.03421171 0.7231382 0.6898556 
-0.18381192 0.4384216 0.8797726 
-0.20934424 0.29913905 0.9309623 
0.17237419 0.368483 0.91351384 
0.19065575 0.27827582 0.94138885 
-0.28904432 0.8634151 0.41348228 
-0.20973183 0.8797434 0.42668974 
-0.3680473 0.6971714 0.61521804 
0.2904578 0.5878259 0.7550464 
-0.6051627 -0.4188013 0.67704046 
-0.24329492 -0.15764388 0.9570559 
-0.40156415 -0.6170234 0.6767779 
0.24265961 -0.115665235 0.96319157 
-0.42447144 -0.25593928 0.86851555 
-0.10781574 -0.27537894 0.9552708 
0.09853244 -0.21655001 0.97128654 
-0.03835596 0.15382142 0.9873539 
0.46371785 0.2463796 0.85103637 
0.20139892 0.41511878 0.88719493 
0.3724795 0.28586534 0.88291574 
0.5912475 0.44817317 0.67049783 
0.06339769 -0.10426633 0.9925267 
0.26880893 -0.22404788 0.93677336 
0.27718958 -0.37842909 0.88315195 
-0.13149221 0.4447546 0.88594764 
0.410311 0.44041294 0.79854953 
-0.08475023 0.64235383 0.7617079 
-0.30028424 0.7344291 0.60864055 
-0.32576856 0.6156825 0.71750265 
0.04928108 0.8373521 0.5444382 
-0.328235 0.85275054 0.40629843 
0.089518 0.8119134 0.57687366 
0.09870486 0.80049235 0.5911593 
-0.31229675 0.6725237 0.67095655 
-0.19141434 -0.014896261 0.9813963 
-0.5318525 0.17556614 0.82843804 
-0.8819981 -0.019535132 0.47084785 
-0.28712526 0.62977177 0.72176635 
0.2258383 0.973987 0.018616274 
0.18038638 0.8957673 0.4062779 
0.6361682 0.12735079 0.7609678 
0.032558434 0.62114006 0.78302306 
0.5157886 0.5494746 0.6572973 
0.14472452 0.68697363 0.71212506 
0.27856544 0.53902084 0.79489493 
0.20125768 0.08681905 0.9756833 
0.21206297 0.57115376 0.79297715 
-0.13952233 0.8481496 0.5110537 
-0.36763784 0.7222019 0.5858899 
-0.13588554 0.790778 0.59682935 
-0.8340817 0.42011213 0.35751024 
-0.049681887 0.6666581 0.74370605 
-0.08477098 0.3975555 0.9136539 
0.013319697 0.8466038 0.5320569 
-0.011155344 0.85654396 0.51595354 
0.31232667 0.5780907 0.75383234 
0.3774063 0.49560246 0.7822678 
-0.3229142 0.12849799 0.93766457 
-0.6073799 0.29358345 0.73817235 