# OOMMF: rectangular mesh v1.0
# Segment count: 1
# Begin: Segment
# Begin: Header
# Desc: Time (s) :  1.6599999999999982e-07
# Title: m
# meshtype: rectangular
# meshunit: m
# xbase: 2e-09
# ybase: 2e-09
# zbase: 5e-10
# xstepsize: 4e-09
# ystepsize: 4e-09
# zstepsize: 1e-09
# xmin: 0
# ymin: 0
# zmin: 0
# xmax: 1.024e-06
# ymax: 1.024e-06
# zmax: 1e-09
# xnodes: 256
# ynodes: 256
# znodes: 1
# ValueRangeMinMag: 1e-08
# ValueRangeMaxMag: 1
# valueunit: 
# valuemultiplier: 1
# End: Header
# Begin: Data Text
-0.3706954 0.9249893 0.0835456 
-0.21804465 0.88664824 0.40781313 
-0.038631026 0.6103828 -0.79116404 
-0.49938655 0.86636287 -0.005350965 
-0.3667195 0.9188687 -0.14559214 
0.7179059 0.3419437 -0.6063709 
0.46260113 0.86567485 0.19133024 
0.62534547 0.14414997 0.7669184 
0.31472966 -0.04303042 0.9482055 
0.587885 0.6158344 0.52453727 
0.29495946 0.7597488 0.579466 
-0.1937032 0.48334256 0.85373247 
-0.36248982 0.8525387 -0.3765356 
-0.52445364 0.58287907 -0.62064517 
0.24613741 0.82655615 0.50618315 
0.25146484 0.96551245 -0.0674623 
0.08947878 0.8754845 -0.47488984 
0.17471345 0.85259694 -0.49249756 
0.50389034 0.8336307 -0.2261734 
0.13196474 0.9893852 0.060846448 
0.09507277 0.9651543 0.24380031 
-0.31781048 0.9360919 0.15076001 
-0.12355356 0.9285665 0.34999844 
0.04875982 0.537264 -0.8420036 
-0.119009726 0.9846556 -0.1276328 
0.45482492 0.799661 0.39201605 
0.8514892 0.112021126 0.51226693 
0.55933005 0.5932542 0.57896405 
0.9232099 0.23686244 0.30262133 
-0.11463459 0.99096066 0.06968492 
0.52494156 0.78724444 -0.32354665 
0.43242034 0.87406266 0.2214211 
-0.11898883 0.65442896 0.7467024 
-0.8468491 0.36921078 -0.3827924 
-0.7410168 0.12960102 -0.6588609 
-0.8109212 0.5844853 0.027998567 
-0.71291554 0.5224036 -0.46780968 
-0.5640591 0.43772268 0.7001688 
-0.6532465 0.69628507 -0.2974157 
-0.6164143 0.73669684 -0.2780491 
-0.52032703 0.8125159 0.2628265 
-0.49039257 0.7432523 0.45507282 
-0.28193018 0.84743136 -0.44986165 
0.33484772 0.3694247 -0.8668347 
0.19217223 -0.6712433 -0.7158927 
0.8411783 -0.4555025 -0.29143885 
0.6390696 -0.64366186 0.42105767 
0.6298073 -0.55129176 0.547193 
0.7319189 -0.38297445 0.5635826 
0.52278507 0.7554163 0.39502174 
0.578455 -0.28185815 0.765471 
-0.16435285 0.868347 0.46793327 
0.7362823 0.30647072 0.60329443 
0.2502923 0.7575246 0.60291827 
0.37801182 0.77410054 0.50781435 
0.32930857 0.9442028 0.0060782894 
0.4840139 0.83474773 0.2625395 
0.018913427 0.7428899 -0.6691464 
-0.23092262 0.86826986 -0.43906972 
0.19379967 0.32356343 -0.92614716 
0.40851945 0.90912133 -0.08130421 
0.5847312 0.6673123 -0.46128488 
0.47819826 0.67471945 0.56221 
0.36334738 0.74569786 0.5584922 
-0.26458687 0.96293473 0.05244671 
-0.32027277 0.9452788 0.062236447 
-0.27230027 0.94302875 -0.19117926 
0.18561092 0.980964 -0.05708197 
0.06314236 0.9649345 0.25478306 
-0.44470692 0.5981136 0.6667053 
-0.041319884 0.98915213 -0.14096385 
-0.26388994 0.7661599 -0.5859704 
0.30662143 -0.3450657 -0.88708115 
0.7117738 0.30576637 0.6323646 
-0.26345378 0.348745 0.8994271 
-0.60348177 0.3927966 0.6939169 
-0.42872405 0.8613625 0.27248913 
-0.84390837 0.52804685 0.09479025 
-0.6522054 0.37647417 0.65794784 
-0.96504426 -0.24274994 0.09880358 
-0.2766843 0.8630437 0.42261252 
-0.14848529 0.9402039 0.3065432 
0.15169841 0.9567402 0.24826553 
0.121550635 0.7337416 -0.6684676 
0.114079386 0.8153073 -0.5676794 
-0.19236761 0.962039 0.19358656 
-0.42225093 0.5143287 0.7464383 
-0.19481885 0.40236843 0.8945084 
0.13196534 0.43370265 0.8913402 
-0.5872297 0.11263821 0.80154467 
-0.60730785 0.71765095 0.34081414 
0.11839324 0.6299369 0.7675693 
-0.88475513 0.4023241 0.23525219 
-0.24239606 0.68301845 0.6890065 
-0.5909672 0.79147637 -0.15595874 
0.033592887 0.7043282 -0.7090792 
0.14638951 0.5225783 -0.8399298 
-0.22631378 0.75467736 0.61582816 
-0.1505757 0.9768482 0.15196969 
-0.46825427 0.32843125 0.82028717 
-0.98234636 -0.042965993 0.18207072 
-0.46538898 0.76372236 0.4473716 
-0.44349742 0.77922744 -0.4428485 
-0.96804917 0.25063676 -0.007878391 
-0.25665972 0.9342846 -0.24746345 
0.20986314 0.34742892 -0.9139206 
0.52110755 0.546806 -0.65532446 
0.48764524 0.8719918 -0.04280836 
0.16681021 0.7533662 0.63609266 
-0.23306014 0.9524592 -0.19622551 
0.0048974557 0.9976733 -0.06800106 
0.7835117 0.5688082 -0.25013354 
0.7511738 0.48003063 0.45310998 
0.7069811 0.6598393 0.2545386 
0.3465718 0.5037914 -0.7912536 
-0.10271424 0.9872767 0.121386096 
-0.22270334 0.61266553 -0.75831664 
0.3678563 0.79283756 -0.4858914 
-0.341316 0.13973622 -0.92950374 
-0.5163036 0.6960522 -0.4989409 
-0.3420848 0.44479573 -0.8277288 
-0.07280175 0.67051363 -0.73831666 
-0.2149703 0.08642268 -0.9727893 
0.17860726 0.16425435 -0.9701134 
0.3164669 0.6796347 -0.66177446 
-0.09321285 0.43729123 -0.89447635 
-0.49472633 0.37165722 0.7855679 
-0.7473115 0.2839782 0.60073453 
-0.98048735 0.15641871 -0.119070314 
-0.19635215 0.2163852 -0.95635945 
0.28507015 0.506582 -0.8137013 
0.58183855 0.6356889 -0.5073102 
0.58745354 0.1304319 -0.7986777 
-0.063064456 0.8308131 -0.5529669 
-0.079832315 0.96923083 0.23284857 
-0.26162922 0.8749997 -0.4073397 
0.38549328 0.8106433 0.44074076 
-0.029679593 0.398964 0.91648626 
-0.47862193 0.41774422 0.7722764 
0.16036583 0.98668665 0.027061703 
-0.2051266 0.97169006 -0.11722459 
-0.25621456 0.9506751 0.17484558 
0.19383198 0.9273492 0.32008234 
0.2653582 0.81766045 0.51089776 
-0.109804176 0.08618111 0.99021006 
0.45718822 -0.28024992 0.84406096 
0.36080453 0.17907125 0.91528887 
0.716124 0.3237051 0.61837 
0.65006083 -0.13377543 0.74801415 
0.31804943 0.70659953 0.6321089 
-0.14040563 0.45756522 0.87802076 
-0.8612246 -0.23037261 0.4530129 
-0.6176973 -0.07165687 0.7831446 
-0.28998572 0.64398897 -0.7079453 
0.10629692 0.25235766 -0.96177787 
0.2863099 0.78096527 -0.55508566 
-0.5115112 0.6450095 -0.5677315 
-0.627295 0.75707096 0.1826054 
-0.7336208 0.6723164 0.09895099 
-0.59647036 0.21849672 -0.77232265 
0.108384505 0.97816026 -0.1773571 
0.16341245 0.8094103 0.5640492 
-0.26770645 0.6890519 0.6734543 
-0.43668523 0.81702465 0.37653258 
-0.06865174 0.20708895 0.9759105 
-0.5070714 0.6204474 0.59826726 
-0.58295566 0.8033236 -0.121794514 
-0.58824044 0.7729758 -0.23765855 
0.28974697 0.64693874 -0.70534885 
0.6515494 0.7553105 -0.070636034 
0.20271896 0.4354986 -0.87706673 
0.15046659 0.38295656 -0.9114297 
0.04983016 0.1595487 -0.9859317 
0.34708673 0.9171123 -0.19605082 
0.6757213 0.7180541 -0.1667307 
-0.15946424 0.97745574 0.13838896 
0.16634049 0.30458513 0.937848 
-0.25398552 0.6659906 0.7013901 
-0.4622945 0.8469753 0.26251996 
-0.2427635 0.9481614 0.20507504 
0.2153333 0.83461803 -0.5069954 
0.19161436 0.9728044 0.13013656 
0.25847933 0.9226735 0.28611568 
-0.43889207 0.14094166 0.88741714 
0.10404032 0.70951295 0.69696987 
-0.75589705 0.6505481 0.07353225 
-0.4962099 0.8316255 -0.24934864 
0.49528736 0.64018166 -0.5872461 
0.51667905 0.715066 -0.47087526 
0.61179346 0.78572327 -0.09136677 
0.5099317 0.62862957 0.5871922 
0.62377995 0.773537 -0.11197813 
-0.47478402 0.62981355 0.61474794 
-0.9621082 0.24920192 0.110663004 
-0.15647793 0.5242242 0.83708054 
-0.07461187 0.19928423 0.9770972 
-0.64957047 -0.16883425 0.7413186 
-0.27164775 0.6619235 0.6986163 
0.0667082 0.8027989 0.59250647 
0.550614 0.40466055 0.7301192 
0.26040158 0.7624486 0.5923371 
-0.5200942 0.29151356 0.80282116 
-0.7806308 0.33250356 0.5292041 
-0.62282735 -0.56126606 0.54503816 
-0.554941 -0.24419229 0.7952425 
-0.40543076 0.27996534 0.8701984 
-0.97013223 0.2422493 0.012601054 
-0.81534266 0.5321734 -0.22805218 
-0.9056875 -0.20509316 -0.37103516 
-0.1405737 -0.13481976 -0.98084795 
-0.20363359 0.8521286 -0.4820895 
0.6347196 -0.087505564 -0.76777196 
0.6937788 -0.6977177 -0.17849639 
0.8859968 0.20443375 -0.41619292 
0.8420065 0.46348172 0.27606097 
0.024821825 0.99870574 0.044394337 
0.727685 0.21753302 0.6505029 
0.5877465 0.18820299 0.78685045 
0.4502188 -0.39071378 0.80289847 
0.4193726 0.018810194 0.9076194 
0.43114832 0.46193695 0.7750648 
0.020446287 0.9624237 0.27078143 
-0.2069904 0.97258145 0.1060209 
0.38960811 0.9045849 -0.17300832 
0.26822528 0.819384 0.5066212 
0.46896926 0.49263182 0.7330633 
-0.3957287 0.8947665 -0.206862 
0.46723914 0.88330287 0.038258385 
0.08133098 0.995007 0.05784956 
0.7090838 0.28966272 0.6428808 
0.053598247 -0.018092629 0.9983987 
-0.70063233 -0.098064125 0.70675164 
-0.9849754 0.17268227 -0.0021092629 
-0.8513331 0.27168995 -0.44879472 
-0.778704 0.35829392 -0.5150201 
-0.5188574 0.81960404 -0.2429738 
-0.57203853 0.62146944 0.53530157 
-0.49500218 0.75337785 0.43289104 
-0.30111495 0.8154094 0.494406 
0.74080336 0.66285616 0.10877555 
0.87467045 0.48391062 0.027968096 
-0.24896784 0.69492567 0.6746061 
-0.6890303 0.4468468 0.5705833 
-0.6140469 -0.074898355 0.78570783 
-0.24220942 0.8002411 -0.5485879 
0.36622766 0.19493237 -0.9098784 
-0.06784773 0.66128075 -0.74706393 
0.27195024 0.8997094 -0.34141794 
0.062612645 0.76471525 -0.6413192 
0.38408658 0.88271594 -0.2707214 
0.6558614 0.6989189 -0.2852338 
0.570281 0.8202367 0.044625156 
0.33360925 0.7870535 0.51889455 
-0.6296978 0.48538893 0.6065297 
0.44828928 0.8184941 -0.35931093 
0.9329833 0.31927657 -0.16614686 
-0.10077703 0.9926335 0.0672512 
-0.8034869 0.5125289 0.30285802 
-0.10035523 0.97880495 -0.1785209 
0.16717392 0.9483055 0.26975852 
-0.48702344 0.6600109 0.5720086 
-0.28248328 0.59721917 0.750688 
-0.042861257 0.52203566 0.8518461 
0.15033619 -0.6180334 0.7716436 
0.455418 -0.37109616 0.80924785 
0.22041292 0.060509287 0.9735281 
-0.69359154 0.2899851 0.65942365 
-0.36185047 0.535176 0.7633158 
-0.04385865 0.99185234 -0.1196056 
-0.52659893 0.83683234 -0.14968401 
-0.42167294 0.47834504 0.77031034 
-0.52018434 0.61547154 0.5921175 
-0.3283925 0.91204643 -0.24562114 
0.20170014 0.96131027 0.18761566 
-0.407459 0.9116275 0.053968426 
0.34873828 0.8451069 0.4051864 
-0.0827913 0.75185674 0.6541078 
-0.39205584 0.5039487 0.76962847 
-0.31123617 0.8430436 0.43864512 
-0.12946853 0.90439355 0.40658367 
0.49606502 0.65574515 0.5691379 
0.14045154 0.22054054 0.96521264 
0.7887191 -0.33987138 0.5122595 
0.4053025 0.60372466 0.686474 
0.73707885 0.64062667 0.21520288 
0.24398954 0.8560166 0.4557465 
-0.4966813 0.84049904 0.21649316 
0.24155788 0.9098967 0.3372505 
-0.22386421 0.47435507 0.85139424 
-0.70626616 0.2882244 0.64661807 
-0.7955292 0.60501164 0.033081204 
-0.9215374 0.124453194 -0.36780474 
-0.43891174 0.7504709 -0.49411538 
-0.07615871 0.56201345 0.8236144 
-0.8459629 0.5303991 0.054986443 
-0.5064641 0.8405027 0.19248247 
-0.77266294 0.6316065 0.06375873 
-0.59417415 0.79411805 -0.12780377 
0.026803192 0.96906596 0.24534258 
-0.1525127 0.933627 -0.32416153 
0.0727936 0.30691728 -0.94894826 
0.94543314 0.04185815 0.3231162 
0.95176184 -0.1472172 0.26921457 
0.9289225 -0.33009636 0.16774812 
0.939431 0.11932914 0.32129443 
0.82239944 -0.10486904 0.55916154 
0.54345626 -0.6866008 0.48294386 
0.36864048 0.71249795 0.59703517 
0.5978042 0.7300687 0.3311041 
0.55886996 0.4509049 0.695952 
0.14940219 0.7721101 0.61767715 
0.10708857 0.9232533 0.36896536 
0.020544743 0.88866305 0.45810032 
0.47379196 0.84908503 0.23361482 
0.74567527 0.6635137 -0.060975917 
0.3009268 -0.22660835 -0.9263324 
0.973743 0.22313999 -0.045089014 
0.4772957 0.8176766 0.32186022 
0.34863937 0.91651934 0.19606887 
-0.08060256 0.76626354 0.6374508 
0.33523557 0.93820655 0.08593962 
0.24853161 0.96858954 0.008152699 
-0.21910617 0.9641294 0.149824 
0.13325635 0.9482917 0.28807208 
0.19711038 0.9520214 0.2341 
-0.550812 0.83243966 0.060419798 
-0.06639152 0.93754536 -0.34146893 
-0.30088046 0.92137295 0.24605487 
-0.30060634 0.89975464 0.3163503 
-0.009565423 0.19387113 0.98098046 
-0.41901675 0.056355044 0.90622795 
-0.7988274 0.23777936 0.55257195 
-0.8964825 0.3190841 0.30741584 
-0.77736884 0.60814816 0.16079062 
-0.8650711 0.2826842 0.41441718 
-0.96556526 0.059986487 0.25315103 
-0.7338036 0.34806302 0.58342487 
0.15963909 0.3223963 0.9330467 
0.44761458 0.4985095 0.742381 
0.41318572 0.87134695 0.26463598 
0.008682967 0.9528682 0.3032602 
-0.26534027 0.55056536 0.79150015 
-0.651226 0.6319214 0.42021444 
0.03141216 -0.21605995 0.97587466 
-0.16548802 -0.97175723 0.16823098 
-0.5792601 0.027966725 0.81466293 
-0.5177662 -0.35906136 0.77652645 
-0.31854558 0.1277593 0.93925834 
-0.6260619 0.5473425 0.5553942 
-0.33481964 0.52447355 0.78283036 
-0.8525308 0.4227518 0.3073632 
-0.25204805 0.9652919 0.06843516 
-0.20322163 0.948919 0.24135843 
0.7954679 0.5167924 0.31647488 
0.0652838 0.64758694 0.75918984 
-0.7963922 0.035238493 0.60375315 
-0.8519711 0.443117 0.27891314 
-0.55690986 0.82922333 -0.047330685 
-0.41122267 0.7581882 -0.5060106 
-0.39750728 0.8940819 -0.20641151 
-0.52767086 0.56744623 -0.6321141 
-0.2695038 0.74244857 -0.6133008 
0.784284 0.3823958 -0.48854065 
0.6464541 0.4107276 0.642962 
0.73879784 0.6324515 0.23277241 
0.62581366 0.6947393 0.35453448 
0.2554471 0.5341187 0.80589336 
0.6429487 0.68421566 0.344189 
0.5813771 0.08091377 0.809601 
0.51322824 0.6873639 0.5139336 
0.6401057 0.740359 0.20526394 
0.46387595 0.48247162 0.7429941 
-0.18038373 0.9735654 -0.14011492 
-0.3696833 0.9190724 0.13652952 
-0.8265003 0.40924466 0.3865436 
-0.4552117 0.8735421 0.17235643 
-0.40359044 0.8911781 0.20716317 
0.17866033 0.8791812 -0.44172505 
-0.17365478 0.9755929 -0.13439749 
0.25057086 0.96530545 -0.073482804 
0.31600943 0.94858944 0.017781895 
-0.3184885 0.81363255 0.48638183 
-0.037702266 0.18361947 0.9822741 
-0.5930729 -0.45233235 0.66607815 
-0.9818856 0.041531578 0.18486711 
-0.2383831 0.94766456 -0.21238078 
0.45665148 0.8210094 -0.34265593 
-0.29343525 0.95530945 -0.0357741 
0.69855416 0.6489695 0.30143136 
-0.07985589 0.9508238 0.29926124 
0.11218565 0.9936233 -0.01127638 
-0.34352285 0.9341609 0.09662079 
-0.2854733 0.9212397 0.26423964 
-0.4964079 0.6417132 0.58462244 
-0.7704907 0.41773698 0.48149773 
-0.46230683 0.8786581 0.119299345 
0.3554391 0.91787577 0.17654257 
-0.14067748 0.68731856 0.71260303 
-0.44290304 0.6880563 0.5748178 
0.008404906 0.9638823 0.2661961 
0.64457303 -0.30954304 0.69907707 
-0.2669056 -0.6518382 0.70983696 
-0.38904756 -0.2001902 0.89920294 
0.27715942 -0.45710662 0.84512496 
0.31150225 -0.37032202 0.875116 
0.54552203 0.016574917 0.83793265 
0.48828086 -0.21437384 0.84594655 
-0.13468528 -0.391956 0.91007173 
-0.81337047 0.3737081 0.44583702 
-0.5268374 0.7945524 0.3018758 
-0.26033786 0.94301784 -0.20722377 
-0.4363206 0.6837659 -0.58488333 
-0.5644111 0.8183226 -0.108573906 
0.42411068 0.7963065 0.43130764 
-0.24673413 0.8421686 0.479452 
0.4265381 0.8412921 0.332104 
0.83343124 0.4115309 0.36882907 
0.3308892 0.36964756 0.8682587 
-0.18336746 0.89262223 0.4118277 
-0.58641696 0.33300063 0.73839414 
0.07181062 0.24328491 0.967293 
-0.105186984 -0.20502856 0.9730874 
-0.19191687 0.98055565 0.040970236 
0.41189122 0.83583087 0.36294943 
0.8751139 0.24155667 0.41931635 
0.4745782 0.74035513 0.4760776 
0.019584082 0.92989683 0.3672987 
-0.10545208 0.9856782 0.13159953 
0.46019888 0.88467133 0.07465761 
0.4680636 0.8766671 0.11122683 
0.58474743 0.71251065 0.38781324 
-0.32156223 0.7819974 0.53392684 
0.5353966 0.12758526 0.8349087 
0.56765574 0.4752768 0.6722195 
0.024470985 0.17874932 0.9835903 
-0.45882833 0.41567105 0.78529876 
-0.33731472 0.8796635 0.33527744 
0.32230765 0.8103051 -0.4894113 
0.032264885 0.9971972 0.06750428 
-0.27711165 0.37888888 0.8829793 
0.2578382 0.70764154 0.6578473 
-0.8192949 0.5009571 0.27892265 
-0.81105137 0.48072582 -0.33331418 
0.36495802 0.76752424 0.52698416 
0.2604217 0.94206977 0.21138853 
0.842065 0.5015672 -0.19838606 
0.28327945 0.47780243 0.83153933 
0.51627946 0.731585 0.44524032 
-0.084650405 0.9929536 -0.08293143 
-0.33903575 0.66942936 0.66099864 
-0.3359802 0.41723537 0.84441227 
-0.70846266 0.4768866 0.5202499 
0.15399122 0.6070501 0.77960044 
-0.30778956 0.18300974 0.93368787 
0.15404925 -0.087703995 0.9841631 
0.788481 -0.28159863 0.5468091 
0.028544424 0.5570049 0.8300185 
-0.33465156 0.737656 0.5864061 
-0.56721765 0.5349829 0.626145 
0.10588995 0.06883768 0.99199235 
-0.51931506 -0.5608977 0.6447525 
-0.99209374 0.08945837 0.088019006 
-0.83390176 -0.55191195 0.0010864366 
-0.9145543 0.29610455 -0.2755224 
-0.7186667 0.42219827 -0.5525096 
0.027971001 -0.103852555 -0.99419934 
-0.019166445 -0.11238123 -0.9934804 
0.4616925 0.38684094 -0.7982444 
0.63953 0.19004636 -0.7449053 
0.94569284 0.32473192 -0.014638512 
0.57415324 0.7108831 0.40619376 
0.4010596 0.5120319 0.7595884 
0.79500294 0.39212444 0.4628269 
0.9525983 -0.04523321 0.30084977 
0.6302615 -0.29877287 0.71659285 
-0.05969627 -0.19345102 0.97929215 
0.013348668 -0.22092523 0.97519946 
-0.39556634 0.16254325 0.9039398 
-0.49178293 0.39476314 0.7760875 
0.05387756 0.5210724 0.85181034 
0.7600698 0.23337165 0.6064913 
-0.08044219 0.39914867 0.9133507 
-0.04115484 0.8031987 -0.5942879 
0.16523156 0.94679356 0.2761896 
-0.3061592 0.8148145 0.49228448 
-0.25501505 0.84354484 0.47265145 
-0.28351295 0.13539025 0.94936293 
-0.99524164 0.08721034 0.043456953 
-0.72281724 0.36595467 0.5861846 
-0.86875165 0.45023838 -0.20629087 
-0.47836956 0.45581493 -0.75059664 
-0.27998707 0.83916944 -0.4662637 
-0.6841102 0.028628532 0.72881657 
-0.8942274 -0.07749719 0.44085327 
-0.75693697 0.6528882 0.027990762 
0.3542817 0.8702529 -0.3422636 
0.92110574 0.091115415 0.37849995 
0.22006615 0.1963859 0.9555122 
0.26509354 0.782611 0.56324553 
0.14880157 -0.044661026 0.98785806 
0.44873792 0.87248594 0.19339772 
-0.055399798 0.82563996 -0.5614709 
0.24610403 0.9348716 0.255828 
0.23953368 0.96430105 0.112903975 
0.38856572 0.8729305 0.29497284 
0.35887498 0.6893371 0.6293038 
-0.05503671 0.8658802 0.49721467 
0.35022867 0.61815464 0.70372206 
0.09506032 0.55791116 0.8244384 
-0.043343436 0.4251375 0.9040904 
-0.14965351 0.8621228 0.4840951 
-0.43684196 0.85105085 0.29134452 
-0.19135997 0.8836039 0.42734727 
-0.68998766 0.61518764 0.38139376 
0.15959075 0.78941756 0.5927485 
-0.4660664 0.6543273 0.59551495 
-0.43848982 -0.029792303 0.89824224 
-0.82537186 0.36878926 0.42749956 
0.13729092 -0.8145432 0.5636229 
0.52250797 -0.33006403 0.7861573 
0.60594827 -0.11067214 0.78776807 
0.4733107 -0.04079912 0.8799503 
-0.06155451 0.52012646 0.8518682 
-0.91707903 0.2719342 0.2915781 
-0.35682455 0.93402016 -0.01681286 
-0.4603552 0.605184 0.649481 
-0.2068272 0.82916695 0.51933104 
-0.29892814 0.9143534 0.27312994 
-0.35530257 0.7804935 0.51438326 
0.029773999 0.81372976 0.5804804 
0.08815454 0.90361196 0.41918272 
-0.27314994 0.9390716 0.20864719 
-0.24216765 0.9058348 0.34758937 
-0.021206383 0.8165903 0.57682794 
-0.31073675 0.8308611 0.46164122 
-0.079735875 0.76832044 0.63507956 
0.23424393 0.5441055 0.8056544 
-0.3006269 0.541564 0.78506815 
0.6527519 0.104367025 0.7503482 
0.6627103 0.5577909 0.4996843 
0.80445117 0.38787642 0.4499003 
-0.001917204 0.84529436 0.53429747 
-0.4418544 0.1651332 0.88175726 
0.36248973 0.75600994 0.54502314 
0.48082307 0.33667582 0.80960405 
-0.20444594 0.35469553 0.9123558 
-0.8582661 -0.015877873 0.5129592 
-0.82374996 -0.3726474 -0.42728207 
-0.70858544 0.49913958 0.49876478 
-0.45884234 0.7691472 0.44483295 
-0.29433066 0.58141756 0.7585006 
0.15178204 0.97856915 0.1391569 
-0.3808983 0.8467021 -0.3714998 
-0.78101563 0.60201025 0.16612777 
0.03373197 0.978627 0.20285787 
-0.43089285 0.89806414 0.08838632 
0.2731672 0.5329299 -0.800853 
0.46771577 0.8805157 -0.07703305 
-0.068432584 0.7424658 0.66637945 
0.14374176 -0.14674734 0.9786744 
-0.37221986 0.1995772 0.90643334 
0.11394391 -0.5590538 0.82126474 
0.49083084 -0.7524641 0.43918434 
0.43574497 -0.7260959 0.53189385 
0.36229146 0.3426294 0.86680454 
-0.047025565 0.16680866 0.9848673 
-0.12982558 0.58055 0.80380785 
-0.37562653 0.92616874 -0.033410866 
0.05797677 0.89051116 0.45125222 
0.6633095 0.72477895 0.18632247 
0.31061172 0.84304446 -0.43908605 
-0.35093766 0.42546132 -0.8341615 
0.62930757 0.747717 -0.2118757 
0.26293755 0.68073183 0.6837164 
0.14087528 0.7179688 0.6816707 
0.14497636 0.32817268 0.9334263 
0.13319567 0.46863765 0.8732913 
-0.4376378 0.88609415 0.1526777 
0.4681611 0.88134116 0.06374199 
-0.24220505 0.9460592 0.21519494 
-0.105340995 0.9934803 0.04359118 
-0.6244845 0.7737765 -0.10625069 
0.004535543 0.8043564 0.59412986 
0.14875372 0.5760995 0.8037299 
0.35192758 0.60890913 0.7108986 
0.39332488 0.14471345 0.9079392 
-0.68744916 -0.06871312 0.7229746 
-0.53227943 0.8040083 0.2650461 
-0.509633 0.7121941 0.4827566 
-0.7130434 0.07257354 0.6973538 
-0.72613835 0.10152478 0.68001163 
-0.75649935 -0.053073186 0.65183735 
-0.9053695 0.16124342 0.3928188 
-0.21896443 0.27608213 0.9358597 
-0.1331569 0.16431502 0.97737914 
0.14088906 0.16123398 0.976808 
0.1664664 0.39335814 0.9041893 
0.36420152 0.7082335 0.6047832 
0.2901318 0.3317279 0.89765257 
0.15962511 0.48382434 0.86048466 
0.68555456 -0.4916212 0.5369578 
-0.5324663 0.19182305 0.82442933 
-0.5445499 0.15553866 0.82418036 
-0.62848634 0.009747531 0.7777596 
-0.22064765 0.9111722 0.3479654 
-0.5281044 0.7380242 0.42003098 
-0.5965932 0.66507846 0.44916296 
0.03878124 0.9689557 0.2441741 
0.29417512 0.81620765 0.4972586 
0.62818927 0.57776713 0.52111745 
0.075769335 0.25431228 0.9641496 
-0.4137581 0.8075765 0.42026722 
-0.47242936 0.47313994 0.74360555 
-0.58219355 0.62660074 0.5180949 
-0.18593897 0.9659175 0.18008365 
-0.16418849 0.9687958 0.18567985 
-0.5699707 0.7254351 -0.38584644 
0.17575033 0.75033504 -0.63726693 
0.7698162 0.37067452 -0.5195994 
0.35384467 0.253752 0.9002244 
0.38206252 0.4664902 0.7977564 
0.024304511 0.6109808 0.79127234 
0.232937 0.21021293 0.9495004 
0.58226115 0.009935306 0.81294113 
0.71560204 0.23571822 0.6575338 
0.63142633 0.31855866 0.7069804 
0.7040075 0.4985024 0.5058348 
0.94669074 0.13415222 0.29288208 
0.677827 0.28998917 0.67561597 
-0.6188226 0.36970073 0.69309455 
-0.39475065 0.45821106 0.796376 
0.3892472 0.6771621 0.62445027 
-0.26216528 0.7174565 0.6453879 
-0.24759509 0.8660703 0.43430308 
-0.50902784 0.80890334 0.29422137 
0.03829406 0.85501415 0.51718885 
0.018417133 0.4799768 0.87708783 
-0.026243879 0.712663 0.7010155 
-0.11060194 -0.040311676 0.99304694 
-0.4869779 -0.39493096 0.7790265 
-0.6780913 0.3089522 -0.66688895 
-0.7835017 0.12621102 -0.60843724 
-0.37204188 0.4853245 -0.7912301 
-0.17373358 0.9759844 -0.13142012 
0.75487816 0.6307751 0.17967156 
0.33464298 0.72099656 0.6067768 
0.43376267 0.7375242 0.5175983 
-0.26895437 0.95384 0.13361451 
-0.1553312 0.8143472 0.5592057 
-0.25749058 0.951191 0.17010105 
-0.5745332 0.302062 0.76070374 
-0.43420935 0.89972574 0.04422658 
-0.52343494 0.7833272 -0.3352826 
-0.6137744 0.5556739 0.5608098 
-0.73507416 -0.026927335 0.6774518 
-0.4359611 0.44551194 0.7819573 
0.12071551 -0.54092026 0.832366 
0.11015359 -0.5013118 0.85822654 
-0.40472478 0.46585265 0.7868794 
-0.3333856 -0.36905098 0.86755717 
0.5131393 0.28614455 0.80920297 
0.71735215 0.018228343 0.6964723 
0.12016629 -0.053787775 0.99129564 
-0.62824345 -0.2514816 0.7362521 
-0.89580756 0.19133535 0.40114805 
-0.7958214 0.60238624 0.06163598 
-0.81742847 0.5731222 0.05780705 
0.24218653 0.92740977 -0.28505585 
0.3126972 0.82030547 0.47887328 
-0.07517922 0.51996034 0.8508756 
0.2466484 0.4201175 0.8733074 
0.92883444 0.18158613 0.3229446 
0.32757145 0.34386927 0.8800289 
-0.35271755 -0.33227298 0.87474865 
-0.43871564 0.39332306 0.8079763 
-0.033808768 0.9835098 0.1776667 
-0.34553424 0.80351675 0.48473388 
-0.9199634 0.32266477 0.22260883 
-0.6149242 0.49650794 0.6126566 
-0.4359445 0.27165285 0.85799605 
0.44704622 0.8239651 0.34818292 
0.04802784 0.736858 0.67433935 
-0.32567793 0.576326 0.7495214 
-0.34991392 0.67078656 0.6539157 
0.06550418 0.6598394 0.7485461 
0.16436173 0.8869956 0.43153673 
0.33165896 0.52399576 0.78449404 
-0.20239067 0.571264 0.79542154 
0.46145 0.27621564 0.8430711 
0.110051215 0.061360735 0.99203 
-0.18661988 0.8368958 0.51456636 
0.10724787 0.5474898 0.8299113 
-0.35034746 0.8188394 0.4547073 
0.202233 0.8501536 0.48614883 
0.6483134 0.5730382 0.50131536 
0.9023385 0.14089963 0.4073482 
0.48518187 0.43387783 0.7591762 
0.38627267 0.28085336 0.8785869 
0.20147474 0.5704389 0.7962459 
0.41123816 0.50187707 0.7609222 
-0.067421496 0.3071104 0.9492827 
0.19289115 0.20280199 0.96003354 
0.50599885 0.30519888 0.8067334 
0.17718038 0.08605874 0.98040867 
-0.07587562 0.7464236 0.66113144 
-0.111931406 0.80834055 0.5779767 
-0.34380165 0.8668331 0.36111066 
-0.8955303 0.37568966 0.23850143 
-0.22938864 0.9570757 -0.1771637 
-0.6360105 0.7716488 0.006987612 
-0.6005333 -0.0066616326 0.79957205 
0.18281691 0.15979774 0.9700736 
-0.10912682 0.40370646 0.9083571 
-0.057627026 0.8990989 0.433936 
0.2614085 0.83488435 0.48439014 
-0.13771613 0.28070876 0.9498615 
-0.52147573 -0.4580243 0.7199145 
-0.97689366 0.035803407 0.21070564 
-0.9470655 -0.22064653 -0.2331996 
-0.894555 0.35921824 -0.26595843 
-0.72022593 0.44056392 -0.53589004 
-0.2697276 -0.2617836 -0.92666954 
-0.51490045 0.4818231 -0.70903045 
-0.31955487 0.63857675 -0.7000747 
0.8882001 0.233532 -0.39568093 
0.83962125 0.513796 -0.17621043 
0.6633897 0.2802095 0.6938277 
0.50152326 0.14792143 0.8524047 
0.5538823 -0.3538418 0.7536647 
0.93304116 -0.34384745 0.10584473 
0.3221165 -0.24987856 0.9131275 
0.13823512 -0.21360244 0.9670911 
-0.08725574 -0.08047218 0.99293035 
-0.5512237 -0.014511306 0.8342313 
-0.11399635 0.23997854 0.96406186 
0.044226177 0.35238945 0.93480796 
0.39899933 0.41510424 0.8176112 
-0.5873885 -0.110362716 0.80174494 
0.12871814 0.9647442 -0.22956535 
0.35444045 0.65249854 0.6697893 
-0.53001386 0.17651956 0.8294132 
0.40701947 -0.26843956 0.87308383 
-0.2418132 -0.12137153 0.96270216 
-0.55328435 0.408443 0.7259826 
-0.5881186 0.46037832 0.66495746 
-0.6523085 0.49312297 0.57560694 
-0.7203997 0.6835986 -0.11712074 
-0.20171833 0.9718216 0.121953614 
-0.2786202 0.7469824 0.60364574 
-0.79959905 0.48252082 0.35751227 
-0.6310574 0.72524 0.2753064 
0.053102575 0.9737869 0.22117709 
0.8210098 -0.036941208 0.5697177 
0.35017678 0.017090498 0.93652767 
0.08939874 0.47316754 0.8764248 
0.16891973 0.4151237 0.89394546 
0.40160233 0.29627946 0.8665646 
0.5049921 0.84929883 -0.15386572 
0.43644866 0.87652946 0.20299941 
0.5505358 0.7252105 0.41349757 
0.45038915 -0.03746753 0.892046 
0.654529 0.2988811 0.6944508 
0.18074428 0.8116454 0.5554847 
0.39618972 0.03169818 0.91762143 
-0.045412567 0.2936488 0.95483416 
-0.76021695 0.4990788 0.41592136 
-0.30352047 0.91737884 0.25747132 
-0.97565866 0.2025698 0.08399809 
-0.5660025 0.80912966 0.15795687 
0.2790933 0.5098042 0.81376076 
0.4828566 -0.061996836 0.87350214 
0.37157834 0.097544685 0.923263 
-0.48313072 0.0147405 0.8754242 
-0.35799336 -0.16901003 0.9183008 
-0.38752997 -0.87869227 0.27878395 
-0.28888574 -0.94490933 0.15392023 
-0.05126906 -0.89976037 0.43336222 
0.87795156 0.3303813 0.34648138 
0.2581222 0.8978035 0.35682198 
-0.31194022 0.5398631 0.7818191 
0.08287901 0.3806817 0.92098457 
-0.48336795 0.31172484 0.81803614 
-0.5943969 0.49913514 0.6305209 
-0.716603 0.49745506 0.4888955 
-0.2882163 0.8128583 0.50615495 
0.653126 0.60207754 0.45927027 
0.675261 0.46183124 0.5750952 
0.3241385 0.87970716 0.34792182 
0.028830782 0.8900213 0.45500657 
-0.14238688 0.912747 0.3829086 
-0.4286189 0.8650167 0.2608294 
-0.38322002 0.8261103 0.41313964 
0.45131335 0.08620907 0.88819164 
0.19772416 0.5145514 0.83435124 
-0.17915983 0.6241557 0.76048106 
0.33209008 0.30288908 0.8932942 
0.4140365 0.75594735 0.50706744 
0.24244584 0.69975793 0.67198133 
0.18020345 0.577648 0.7961468 
0.10891861 0.6712763 0.7331609 
0.060004957 0.6557297 0.7526074 
-0.23851539 0.46941537 0.8501528 
-0.18002155 0.52944857 0.8290214 
-0.44913813 -0.14818 0.881089 
-0.43790427 0.4880947 0.75498587 
-0.8060179 0.20319492 0.55592 
-0.7626732 0.14568454 0.6301632 
-0.7395851 0.48523912 0.46643007 
-0.8675146 0.30649003 -0.3917684 
-0.36748552 0.9065581 -0.20762232 
0.06719931 0.9024238 0.42557663 
-0.18434231 0.98233914 0.03205901 
0.1274978 0.9894302 0.069081634 
0.11601786 0.7609018 0.6384107 
-0.1500586 0.9454819 0.28904405 
-0.30501285 0.1758764 0.93596727 
-0.33196136 -0.29262963 0.896755 
0.02012917 -0.6841694 0.7290453 
-0.40969354 -0.6603561 0.62934977 
0.010928588 -0.25873947 0.9658854 
0.057120517 -0.30351233 0.9511139 
0.5080954 0.8353723 0.20974328 
0.45178112 0.75519896 0.4749405 
0.2864981 0.870663 0.39983124 
0.53990585 0.5154399 0.66544974 
0.5310375 0.41706142 0.73760355 
0.62801933 0.055174146 0.77623945 
0.59118646 0.3773858 0.7127963 
0.8115389 0.17142987 0.55858445 
0.45830166 0.21745807 0.861784 
0.17092666 0.1276383 0.97698134 
0.43008232 0.52755743 0.73260653 
0.015258173 0.5902117 0.8071044 
-0.17134617 0.82496077 0.53859097 
0.053790823 0.8191949 0.5709871 
0.12214808 0.404372 0.9064012 
-0.2699104 0.8887181 0.3705788 
0.22079359 0.8992958 0.37751484 
0.16540521 0.7346818 0.65793914 
0.31261572 0.61651134 0.7226238 
0.3999357 0.693715 0.5990083 
0.30419278 0.264599 0.91512525 
-0.18567257 -0.74667114 0.638755 
-0.5538436 0.46338075 0.69176275 
-0.70789295 0.59420824 0.38184303 
-0.21379533 0.17831254 0.9604667 
0.27075288 -0.65670025 0.70387334 
0.4481772 -0.2526552 0.85749793 
-0.013246166 0.55018187 0.83493984 
0.53019196 -0.101251416 0.84181035 
0.3862725 -0.18952592 0.90270346 
0.5263244 -0.05178709 0.8487053 
0.35614085 0.38781705 0.85015386 
0.32334372 0.4782268 0.8165464 
0.28054807 -0.24011949 0.92931986 
-0.2099054 0.21401075 0.9540121 
-0.08590446 -0.34552845 0.93446815 
0.2322977 0.12832993 0.9641418 
-0.3151857 0.40300164 0.8592135 
-0.51628286 0.40869 0.7526118 
-0.18554543 0.0748445 0.9797812 
-0.24960522 -0.18080787 0.95131797 
0.0090923365 0.99405056 0.10853957 
-0.25552237 0.36556175 0.89502674 
0.3397765 0.39597514 0.85308594 
0.12652043 0.35890645 0.92475885 
0.49889562 0.09680359 0.86123884 
0.033631403 0.5161611 0.8558311 
-0.02738765 0.6933294 0.72010016 
-0.3271896 0.65293163 0.6831013 
0.094234414 0.9112408 0.40094897 
-0.501091 0.86385936 0.05152569 
-0.12191162 0.9830526 0.13691291 
0.038104985 0.81549716 -0.5775054 