# OOMMF: rectangular mesh v1.0
# Segment count: 1
# Begin: Segment
# Begin: Header
# Desc: Time (s) :  1.689999999999998e-07
# Title: m
# meshtype: rectangular
# meshunit: m
# xbase: 2e-09
# ybase: 2e-09
# zbase: 5e-10
# xstepsize: 4e-09
# ystepsize: 4e-09
# zstepsize: 1e-09
# xmin: 0
# ymin: 0
# zmin: 0
# xmax: 1.024e-06
# ymax: 1.024e-06
# zmax: 1e-09
# xnodes: 256
# ynodes: 256
# znodes: 1
# ValueRangeMinMag: 1e-08
# ValueRangeMaxMag: 1
# valueunit: 
# valuemultiplier: 1
# End: Header
# Begin: Data Text
-0.078600734 0.79479635 -0.6017647 
0.6240502 0.71084476 -0.3244397 
0.8536692 0.49504086 0.16181323 
0.63502455 0.74756473 0.19465584 
0.24656703 0.9207705 0.30230197 
0.017153883 0.97281814 0.23093443 
-0.28145155 0.8742353 0.39559808 
-0.5748242 0.81826556 0.0043246457 
0.29440513 0.29312733 0.9096164 
-0.1251366 0.33683196 0.9332123 
-0.5345289 0.77089214 0.34641635 
-0.38300365 0.812116 0.44019985 
-0.01409991 -0.23636445 0.9715622 
-0.16352841 0.23274282 0.9586915 
-0.24567373 0.7018412 0.6686281 
-0.3540752 0.6911225 0.63006395 
-0.098450586 0.39575088 0.91306555 
-0.47498825 0.6694023 0.57121515 
-0.13480406 0.91803527 0.37287974 
0.6096094 -0.09588389 0.78688157 
-0.47940642 0.5511561 0.6829323 
0.16844645 0.97692484 -0.13131526 
0.82532823 0.4557188 -0.33339733 
0.81848204 0.3453687 0.45913813 
0.4201971 0.36260423 -0.831837 
0.35153797 0.35714096 -0.8653737 
0.9869674 0.10703659 0.120160654 
0.48353186 0.6626568 0.5719117 
-0.4464642 0.6148234 0.6501246 
-0.070133574 0.43469208 0.89784414 
-0.29147375 0.5379845 0.7909587 
-0.44625574 0.12538013 0.8860789 
-0.79872775 0.53856164 -0.26830086 
-0.18154337 0.5313076 -0.8274989 
0.18896347 0.7079245 -0.68054086 
-0.07352277 0.7253367 -0.6844568 
0.5755111 0.30770242 -0.757698 
0.50986284 0.8560227 0.08523556 
-0.171428 0.32411125 0.93035716 
-0.9348713 0.2849411 0.21171744 
-0.6256963 0.75250787 -0.2055144 
-0.15347683 0.96203727 0.22567496 
-0.92768925 0.3651904 0.07764518 
-0.8229958 -0.060282018 -0.56484 
0.5041926 -0.16077256 -0.84849393 
0.8342606 0.11845558 -0.5384958 
0.47612217 0.87937444 0.0028945988 
0.0422743 0.92674977 0.37329325 
-0.06357246 0.6122211 0.78812677 
-0.5765987 0.7280123 0.37085313 
-0.21111292 0.66455674 0.7167955 
0.08402584 0.39475584 0.9149358 
-0.95064783 -0.09588123 0.29508582 
-0.65492797 0.7481514 -0.106484175 
-0.59736186 0.7330149 0.32534295 
-0.8095199 0.42519495 0.40482956 
-0.7536581 0.468638 -0.4608447 
-0.7891795 0.6061262 0.0990292 
-0.20142303 0.96746176 0.15312213 
-0.16309255 0.8188909 -0.5502895 
-0.30377182 0.39668304 -0.86623627 
0.46933883 0.82245743 0.32137972 
0.29680216 0.33150354 0.89555234 
0.35487413 0.8493187 0.39079678 
0.27788466 0.48382437 0.829876 
0.04167627 0.5152517 0.856025 
0.35636035 0.68510324 0.63532746 
0.5471067 0.8295715 -0.111738294 
0.4158631 0.8514099 0.31962347 
-0.5462424 0.6499183 0.5284179 
-0.34500977 0.7915247 0.50443715 
-0.0959147 0.7626397 0.6396727 
0.029639274 0.7544468 0.6556918 
0.28650278 0.6157462 0.7340115 
0.44420475 0.3993378 0.80200464 
0.07159521 -0.080105305 0.9942119 
-0.13035457 0.7673195 0.6278763 
-0.0065811533 0.99458075 -0.10375911 
-0.18644957 0.84353286 0.50367546 
-0.40708357 0.7301797 0.5487447 
-0.90231586 -0.047165915 0.42848766 
-0.8988673 -0.22298872 0.37724462 
-0.6296406 0.382471 0.67621654 
-0.04573861 0.986696 -0.15600988 
-0.37738085 0.8632932 -0.3351246 
-0.6191177 0.7667838 -0.16951695 
0.89988136 0.36600348 -0.23718153 
0.8172814 0.39168832 0.4226481 
0.6901683 0.60145634 0.40239045 
0.34999585 0.59164006 0.72626793 
-0.4119283 0.47131658 0.7798563 
-0.7480116 0.56356424 0.35053414 
-0.12246346 -0.06799136 0.99014133 
0.24670154 0.45473805 0.8557754 
-0.4669282 0.8373618 0.28425893 
-0.4386654 0.32655743 0.83721733 
0.24927486 0.741792 0.62258065 
0.13458143 0.5188071 0.8442317 
0.6429919 0.045457497 0.7645228 
0.82109994 -0.066043906 0.5669507 
0.8547159 0.001264256 0.5190947 
0.49801472 0.43558732 0.74983007 
0.054937493 0.27333182 0.96034974 
-0.17192939 0.29753545 0.9391023 
-0.49132326 0.33341363 0.80463463 
-0.5347807 0.41459915 0.73628616 
-0.35529 0.84101605 0.4079962 
-0.25688085 0.51454014 0.8180835 
-0.29445416 -0.15114358 0.9436379 
-0.6712483 0.21554594 0.7092008 
-0.123741746 0.8714642 0.47459278 
0.21470167 0.96165806 0.17063746 
0.36717534 0.7372492 0.5671385 
0.43813944 0.7424508 0.5067552 
-0.036355592 0.75905156 0.6500146 
0.32502988 0.86343527 0.3857915 
-0.79111624 0.52452064 0.31466392 
-0.9131478 0.39285776 -0.10873828 
-0.9268339 0.11152271 -0.35852695 
-0.39741662 0.90247047 0.16615386 
0.35650405 0.9170138 0.17885935 
0.68795407 0.72505724 -0.03180098 
-0.076960236 0.677816 0.73119265 
-0.093302734 0.51547474 0.85181016 
0.29601815 0.81240904 0.50235933 
-0.49307424 0.121425636 0.8614718 
-0.6444181 -0.26863584 0.7159331 
-0.38229033 -0.05522759 0.92239046 
-0.85963756 0.027121114 0.51018405 
-0.40639976 -0.01756661 0.91352654 
-0.24190506 0.015281761 0.9701796 
-0.14458957 0.04571535 0.98843515 
0.08433491 -0.26933748 0.9593461 
-0.6835534 -0.03062023 0.72925794 
-0.5551117 -0.2247316 0.8008413 
-0.78484887 -0.22827868 0.5761086 
0.102770925 0.64814746 0.75454825 
0.23766083 0.93159235 0.27505118 
0.15142348 0.6510426 0.743784 
0.47444347 0.6080011 0.6365831 
0.85614514 0.056737162 0.5136112 
0.57675165 0.7159015 0.39350054 
0.6552336 0.72804487 0.20154294 
0.49615932 0.31680548 -0.80836886 
0.3342422 0.68329686 0.64914376 
0.40541545 0.055889834 0.91242236 
0.40437758 0.69465697 0.59492064 
0.35761026 0.81033593 0.464188 
0.55780077 0.3553305 0.7500657 
0.31927472 0.35470596 0.87877613 
-0.4496628 0.5749697 0.68353 
-0.55666375 0.70198137 0.44423833 
-0.7159576 0.34932968 -0.60446143 
-0.042006865 0.82059705 -0.5699614 
0.7497508 0.31742927 0.5806139 
-0.15262207 0.92556834 0.34645325 
0.16105734 0.90396214 -0.39612252 
-0.51396203 0.6681159 -0.53801876 
-0.052691672 -0.42004725 -0.9059713 
0.90398335 -0.15753858 -0.3974869 
0.65287405 -0.25397822 -0.713618 
0.71463084 -0.6780508 0.17190105 
0.27214903 -0.80485535 0.5273925 
0.9567648 0.09312162 0.27555317 
0.7792657 -0.61381745 0.12638466 
0.7539001 -0.6134829 -0.2351031 
0.82046026 -0.247876 -0.51517224 
0.57200783 0.8089005 -0.13596694 
0.54273766 0.65599924 -0.52450055 
0.46151328 0.69139236 -0.5558616 
0.19979288 0.9271894 -0.31686383 
0.8181853 0.57119954 0.065605454 
0.51357764 0.68298167 0.5193979 
0.10040456 0.7360369 0.6694541 
0.24263944 0.56388783 0.7894027 
0.539607 -0.41636556 0.7317541 
0.18894999 -0.76320654 0.61791074 
-0.44314474 -0.8912761 0.096175164 
-0.14896989 -0.32446718 -0.9340927 
0.022992102 0.9381186 -0.34555024 
0.53881085 0.61966825 -0.5706963 
-0.0520218 0.9832306 0.17478994 
0.3234154 0.9265281 -0.19221935 
0.9666777 0.18944615 -0.17217514 
0.97709996 0.096346 0.18971902 
0.55620587 -0.14351976 0.81855804 
0.7445823 0.65779835 -0.1135726 
0.9344405 0.09535754 0.3431151 
0.76181495 0.41635433 0.49627316 
0.83688414 0.51687026 0.18019485 
0.2438732 0.18480405 0.9520365 
0.5880834 0.539531 0.60254824 
-0.33254492 -0.44956407 0.82903934 
-0.36882445 -0.18628581 0.91064054 
-0.45545477 0.2948016 0.8400315 
-0.79456145 0.1307101 0.5929477 
0.0033242954 0.06296087 0.9980105 
-0.6327092 -0.026509305 0.7739356 
-0.32435128 0.8046991 0.4972481 
-0.24723431 0.62669575 0.73900455 
-0.6870742 0.46386462 0.5592483 
-0.45823398 -0.11353752 0.88155025 
-0.6662199 0.5651996 0.48651883 
0.35805276 0.52208287 0.774098 
-0.512223 0.64848745 0.56310886 
-0.6536608 0.5848952 0.48023456 
-0.95048136 0.2973642 -0.090331614 
-0.90747005 0.2537001 0.3348649 
-0.30278558 0.73241246 -0.6098303 
-0.15231727 0.81030995 -0.56585985 
-0.32971606 0.90322185 -0.274732 
0.3938573 0.612214 -0.68561685 
0.57899946 0.80951947 0.097148724 
0.4507672 0.85005176 -0.2724356 
0.56347716 0.65535104 -0.50299954 
-0.037857614 0.46465114 -0.8846843 
-0.19844246 0.54017985 -0.81781816 
-0.17307521 0.9628676 -0.20719801 
-0.7244758 0.31022188 -0.6155463 
-0.6354785 0.12116867 -0.7625519 
-0.8447434 -0.1557509 -0.5120061 
-0.6063936 0.71967316 -0.3381677 
-0.87386894 0.30652037 0.37735724 
-0.70184547 0.08161332 -0.7076385 
-0.3823255 0.12735188 -0.91520965 
-0.6662319 -0.15125377 -0.7302448 
-0.46029145 -0.19575684 -0.8659163 
0.5706318 0.4644389 -0.6772561 
0.53198475 0.3442881 -0.77360064 
-0.07012309 0.3325361 -0.94047993 
0.67590606 0.5473703 0.49349445 
0.032220267 0.6621214 0.74870366 
-0.7473955 -0.08322646 0.65914595 
-0.58353055 0.60778815 0.5385961 
-0.24174179 0.8639876 0.44168586 
0.8266324 0.53828615 0.16409482 
0.8564926 -0.22104919 0.46643096 
-0.22498597 0.11754212 0.9672462 
0.718366 0.6909123 0.08118131 
0.55828744 0.4905693 0.66907173 
0.5646882 0.13654916 0.8139297 
0.2820547 0.0484806 0.9581726 
-0.05592809 0.37781033 0.92419225 
0.27003112 0.41662666 0.8680469 
0.44720852 0.7972448 0.40546912 
0.47368935 0.22342524 0.85188013 
0.31867236 0.49328503 0.80939347 
-0.6850385 0.07880535 0.724232 
-0.20010734 -0.036001254 0.9791124 
-0.014427247 0.9059944 0.42304364 
0.85674536 0.49112675 0.15742297 
0.17162298 0.9522171 0.2526427 
-0.27843508 0.23663239 0.93084854 
-0.24824047 0.2942988 0.92291117 
-0.61086625 0.47286686 0.63501143 
-0.79019487 -0.16532208 0.59013623 
-0.32715675 0.738464 0.58960956 
0.4109207 0.82350737 0.39112616 
0.2545479 0.7056101 -0.66130155 
0.6137486 0.5544279 -0.5620698 
0.7279007 0.61973786 -0.29340354 
0.714217 0.6123052 0.33908182 
0.10865566 0.8379761 0.5347803 
-0.3107114 0.95032096 -0.01866835 
0.571669 0.19505265 0.79696244 
-0.0121441055 0.31814697 0.9479636 
0.039626617 0.775089 0.63060826 
-0.15394486 0.70798874 0.6892409 
-0.5160937 0.7054664 0.48576176 
-0.5577331 0.29619086 0.775374 
-0.3092835 0.18317133 0.9331624 
0.0456476 0.5684743 0.82143366 
-0.31917003 0.49573585 0.80769825 
-0.4183835 0.36111483 0.8333975 
0.09472901 0.02474523 0.99519557 
0.65442944 0.1255012 0.7456351 
-0.6127557 0.07031603 0.787138 
-0.43219236 0.5790718 0.6912927 
0.09358255 0.99442816 -0.04852766 
-0.04550352 0.9840875 0.17175935 
-0.30754638 0.828167 -0.4685666 
0.40457115 0.87077725 0.27940878 
0.92900854 0.33830947 -0.1499663 
0.36180973 0.8801442 0.30731097 
0.16944347 0.8748978 0.45369914 
-0.24392025 0.2122092 0.9462929 
-0.22244732 -0.5212021 0.8239331 
-0.09620253 -0.3121364 0.945154 
-0.85691947 0.49357447 -0.14857055 
-0.2574833 0.7703362 -0.5833392 
-0.27758285 0.757533 -0.5908397 
-0.35551 0.510882 -0.7826955 
0.5500715 0.62551534 -0.5533101 
0.7742702 0.6320942 0.031026924 
0.38051763 0.3573966 0.8529209 
-0.32876298 0.73803663 0.58925116 
0.25325775 0.9672024 0.01949417 
0.06799015 0.98184425 0.17708583 
0.054974496 0.64590883 -0.76143265 
0.30393773 0.0790284 -0.9494085 
0.43068138 -0.066706 -0.90003544 
0.6678502 0.6353378 -0.38771397 
-0.030932713 0.99818325 -0.051706545 
0.015167498 0.965333 0.26058042 
0.07517508 0.44115406 0.8942773 
-0.51615053 0.48616034 0.7051502 
0.12896237 0.23297796 0.9638932 
0.051390164 -0.273144 0.9605995 
-0.6327278 -0.18015099 0.7531276 
-0.6411498 0.30124024 0.70581955 
-0.32059422 0.66436213 0.675161 
0.33920756 0.54006016 0.77024233 
-0.5433021 0.7404365 0.3956979 
-0.3001695 0.8427316 0.44687995 
0.39069924 0.44965875 0.8032193 
0.53238165 0.79324526 0.29551977 
-0.19656178 0.9646256 -0.17567258 
-0.06961325 0.72499245 0.68522996 
0.6002769 0.703715 0.38006952 
-0.14165995 0.9017018 0.40849277 
0.123533234 0.6829739 0.719921 
-0.09216253 0.31395248 0.944955 
0.7575968 0.05056255 0.65076166 
0.8021306 0.072537065 0.5927268 
0.3304363 0.5982198 0.7300308 
0.12766385 0.5737273 0.8090358 
0.074069045 0.7470947 0.660578 
0.16439208 0.33970186 0.92605513 
-0.5797513 0.57175684 0.580502 
-0.5019623 0.21160543 0.8386042 
-0.21637705 0.69397 0.6867217 
-0.31787238 0.22663048 0.9206497 
-0.4029128 0.7220676 0.5623875 
-0.0131791495 -0.1847823 0.98269117 
-0.51097274 0.12073635 0.8510756 
-0.8086515 0.1991375 0.55355847 
-0.79958826 0.3403364 0.49480286 
-0.44930857 0.20938215 0.8684935 
-0.076595 0.27660453 0.9579265 
-0.22528438 0.77728486 0.58743095 
-0.19315559 0.9627332 0.18930335 
-0.16522054 0.90695643 0.38746914 
0.10448203 0.9906847 0.08733497 
0.04832897 0.7246488 0.68742174 
-0.15111528 0.5806384 0.8000146 
0.1407463 0.61341375 0.7771192 
-0.19621581 0.7378427 0.64582324 
-0.17927277 0.44039217 0.87972504 
-0.049304694 0.3539235 0.9339739 
0.14103049 0.755275 0.6400548 
-0.38650492 0.59246564 0.7068228 
-0.49720508 0.5968501 0.62972784 
-0.011168833 0.9580197 0.2864851 
0.1669719 0.67231405 0.72118956 
0.09254983 0.08013478 0.99247825 
0.5654234 -0.6189842 0.5451193 
0.9318528 -0.008737478 0.36273152 
0.57354873 -0.31874436 0.7546151 
0.4824466 -0.050981406 0.8744406 
-0.2541659 0.09788505 0.96219456 
-0.22935733 0.87931854 0.4173656 
-0.35710594 -0.03501984 0.9334072 
-0.7146249 -0.036532342 0.6985533 
-0.58123994 0.12664998 0.8038159 
-0.57537943 -0.003021416 0.81788105 
-0.008635605 0.9059318 0.4233356 
0.5209926 0.3342977 0.7853737 
-0.025005456 0.7623858 0.6466395 
-0.052860517 0.36961284 0.92768115 
-0.040431876 0.7034726 0.7095714 
0.2842279 0.4728592 0.83403754 
0.35764748 0.47792378 0.80229497 
-0.074887976 0.496897 0.86457235 
0.29526553 0.36835012 0.88155353 
-0.3274073 -0.13417096 0.9353088 
0.032943193 0.35821015 0.93305963 
-0.046540935 0.21388419 0.97574973 
0.017883414 0.6610276 0.75014853 
0.027944013 0.7226512 0.6906479 
0.02726736 0.5900568 0.8069012 
0.37865353 0.12046188 0.91766584 
-0.2031365 -0.3257585 0.92337257 
-0.1680614 -0.7801027 0.60265684 
-0.23141162 -0.41474953 0.880018 
-0.5710764 -0.27873868 0.7721247 
0.36134115 -0.5624493 0.74369586 
0.87811655 0.05583339 0.47517782 
0.56613886 -0.414983 0.71223307 
-0.78515935 -0.50750315 0.35491613 
-0.605439 -0.308189 0.73380053 
-0.59277374 -0.1756893 0.78597236 
-0.40130073 0.09118896 0.91139585 
-0.84891033 -0.008338927 0.5284713 
-0.26701558 0.47488058 0.83856505 
0.11604797 0.00759329 0.9932146 
-0.06379785 0.36188725 0.93003625 
0.71448135 0.30801615 0.6282059 
0.60302174 0.013205755 0.7976156 
0.84704137 0.4918198 0.20157932 
0.6984054 0.23589829 0.6757085 
0.16859475 0.49062213 0.85490686 
-0.75192696 0.5018889 0.42744985 
-0.39884615 0.8409963 0.3655778 
0.17459156 0.9368058 0.303171 
0.41053176 0.77326095 0.48325065 
0.0153843835 0.7509951 0.6601285 
-0.40603074 -0.18154024 0.8956463 
0.071472675 0.49589503 0.86543626 
-0.06401536 0.93998504 0.33515713 
0.22962505 0.966339 -0.11602316 
0.69052577 0.36102572 0.6267652 
-0.19891895 0.96583855 0.1660936 
-0.2394166 0.89502877 0.3763023 
-0.5520086 0.82483035 -0.12223467 
-0.14103602 0.7483199 -0.6481714 
0.7630678 0.3887603 -0.51632655 
0.41752228 0.19833894 -0.88675636 
0.36446148 -0.38022846 -0.8500554 
0.26683342 -0.82070225 -0.5052206 
0.7804674 0.09885321 -0.617332 
0.7765438 -0.14702763 -0.6126685 
0.7079943 -0.083470754 -0.70126796 
0.7209159 -0.5632778 -0.40373078 
0.41974694 0.9058037 0.057725754 
0.46792743 0.80039597 0.3747138 
-0.29805505 0.9228972 -0.24377035 
-0.0047792695 0.90712565 -0.4208329 
-0.76369923 0.59536725 -0.24960265 
-0.12634061 0.93488187 0.3317137 
-0.10203794 0.73524046 0.670082 
-0.38215828 0.76764446 0.51446766 
-0.40213174 -0.21116452 0.89089817 
0.092931494 -0.30975905 0.9462627 
-0.7374684 -0.10869344 0.66657794 
-0.7113373 -0.076718085 -0.6986513 
0.39514232 0.87204564 -0.28878912 
0.48348242 0.8693731 -0.10215311 
0.030537842 0.76758075 -0.64022446 
-0.18257557 0.77349484 0.6069365 
0.7830552 0.61708766 0.07763734 
0.75757736 0.6501301 0.05837293 
0.08380682 0.7154506 0.6936188 
0.36048335 0.61167103 0.704209 
0.46663687 0.30583042 0.8298902 
0.82276285 0.34974602 0.44803908 
0.81178176 -0.3466805 0.46991822 
0.004118464 0.59762555 0.8017647 
0.56519383 0.42469954 0.70723844 
0.2914801 0.28707036 0.91248566 
0.35142124 0.02484029 0.9358879 
0.37524983 -0.5101512 0.77390784 
-0.43687817 0.13930663 0.8886683 
-0.6578567 -0.23915222 0.7141644 
-0.60179555 -0.33415687 0.72538364 
-0.4580323 -0.13856253 0.87807 
-0.2999109 0.6562649 0.69236547 
-0.7192882 -0.012017098 0.6946079 
-0.5385945 0.23327865 0.80962783 
-0.90603703 0.37639162 -0.19345894 
-0.6234616 0.7816159 -0.01929298 
-0.75661486 0.5834833 -0.2950956 
-0.4143854 0.863695 0.2869072 
-0.6782889 0.7250764 -0.11911587 
-0.0933541 0.9950126 0.035142053 
-0.5081999 0.8178127 -0.27002832 
0.07635121 0.87264025 -0.48235834 
0.5951102 0.5783473 -0.55799484 
0.33372298 0.9413076 -0.050685525 
0.18513525 0.95459664 0.23338869 
-0.1562828 0.9538464 -0.25642332 
0.61148065 0.6805254 -0.40370357 
-0.27317902 0.8636131 -0.42372832 
-0.6416381 0.71263427 -0.28364253 
-0.4726868 0.80302787 -0.36292356 
-0.5660487 -0.10983545 -0.8170221 
-0.25627363 0.56957144 -0.7809688 
-0.78874356 0.34788 0.5068168 
-0.76021534 -0.45054165 -0.46806508 
-0.7029101 -0.5706346 -0.42461002 
-0.07864695 -0.40838054 -0.90941745 
0.4386732 -0.008521546 -0.8986063 
0.107493915 0.45293054 -0.88504183 
0.19169104 0.94733363 -0.25654182 
0.518402 0.4715665 -0.71336144 
-0.04207676 0.8688629 -0.4932613 
0.2941205 0.9545922 0.047402788 
0.8017587 0.29970297 0.51706976 
0.53398675 0.38009632 0.75523835 
-0.4516976 0.33834624 0.82552475 
-0.036398157 0.89266104 0.4492566 
0.077987626 0.3303831 0.9406195 
0.39799446 0.03335548 0.9167812 
0.1474195 0.33433783 0.9308522 
0.24159169 0.19221017 0.9511513 
0.12634249 0.6467911 0.7521297 
0.8168103 0.1574608 0.555002 
0.6204729 -0.20081021 0.75808233 
0.571403 -0.17899509 0.8009116 
0.41942462 0.9017914 -0.10418807 
0.9472331 0.2839221 -0.14878789 
0.99573886 -0.06192217 0.06833603 
0.1637004 -0.23781134 0.9574174 
0.16140364 -0.35963514 0.9190275 
-0.1089565 -0.2707105 0.95647496 
-0.35658216 -0.46129367 0.81243926 
0.11205047 0.5050328 0.855796 
0.35261247 0.85597384 0.37811798 
0.24205226 0.46124986 0.85361546 
-0.44525778 0.43292847 0.7837846 
-0.9476073 0.29415488 0.124552935 
-0.73275685 0.0800823 0.675762 
-0.92444974 -0.17613609 0.33818465 
0.14005022 0.9503943 0.27773497 
-0.374804 0.8879708 0.26651415 
0.032977298 0.67571163 -0.7364281 
0.21271555 0.69632035 -0.68548536 
-0.0047969995 0.98101807 -0.1938572 
0.4932919 0.79522294 0.35253888 
-0.2130553 0.8572054 0.46883526 
0.649648 0.73672795 0.18758856 
0.7855087 -0.42286307 0.451844 
0.46117973 0.03030862 0.88678896 
-0.16123094 0.8941816 0.41766483 
-0.39176714 0.6293304 0.6711645 
0.106664635 0.1757776 0.97863424 
0.040676627 0.71162045 0.7013857 
0.23694915 0.75415534 0.61245817 
-0.22031741 0.43157077 0.8747611 
-0.19830723 0.84765124 0.4920993 
0.18602407 0.7313595 0.6561314 
0.48930532 0.1566705 0.85792476 
0.46698418 0.15005296 0.8714413 
-0.30604777 -0.18020026 0.9348063 
0.28318238 -0.08510842 0.9552824 
0.49693882 0.17162962 0.85064393 
0.2679639 0.707783 0.6536349 
0.23824719 0.9476355 0.21266252 
0.35620314 0.91410214 0.19374406 
-0.16030475 0.95560974 0.2472091 
0.08239938 0.36276436 0.92823076 
0.18472098 0.6701884 0.71883637 
-0.04106748 0.35963464 0.93218905 
-0.26645604 0.6728923 0.69008493 
-0.54347277 0.4869475 0.68375397 
-0.8133326 0.58052737 0.03844682 
-0.5173051 0.8549536 -0.038077652 
-0.44571954 0.84983665 0.2812684 
-0.2711673 0.7927746 -0.54587257 
0.29743317 0.93596816 -0.18840684 
0.49192828 0.8683861 0.06254731 
0.19907598 0.33026046 0.9226575 
-0.35711 0.2506261 0.8998106 
-0.069642276 0.9332395 0.35244006 
-0.3485608 0.91744286 0.19184387 
-0.45600873 0.6625576 0.5941999 
0.32371944 0.5471113 -0.7719294 
0.7888904 0.6109786 0.06600906 
0.35396752 0.24567725 0.90241325 
0.56082606 0.8089906 -0.17609197 
0.70998454 0.4037247 0.5769995 
0.5051482 0.25334278 0.8250108 
0.20651445 0.28725943 0.9353255 
0.03043651 0.29304755 0.9556133 
0.51092976 -0.24764717 0.8231778 
0.49913976 -0.18335174 0.8469013 
0.041134395 -0.28140727 0.9587064 
-0.9175134 0.39405018 -0.053792574 
-0.012909379 0.86515754 0.50133413 
-0.25122148 0.9678084 0.015315568 
-0.1424833 0.8018833 0.580243 
-0.025825292 0.77963704 0.625699 
0.075396955 0.98831344 0.13248357 
-0.43830436 0.89443314 0.08876258 
-0.8420566 0.53153807 -0.09169557 
0.15553139 0.94706523 0.28085124 
-0.1490587 0.9674045 0.2047199 
0.70313966 0.5750958 0.41816208 
0.7277347 -0.028979981 0.6852462 
0.50287116 -0.380251 0.77622795 
0.4727935 0.3357196 0.8147139 
0.5882883 0.16175719 0.7923078 
-0.36008167 0.07558253 0.92985404 
-0.39467418 0.36510465 0.84316725 
-0.10629471 0.6334618 0.7664383 
-0.7427158 0.36738947 0.5598198 
-0.44709036 0.44937912 0.77341366 
0.050058246 0.73829377 0.6726191 
0.42249194 0.27638218 0.8631996 
-0.13319486 -0.028453643 0.9906814 
-0.5503827 -0.4056672 0.729735 
-0.5330262 -0.6632684 0.52531725 
-0.63565916 -0.4528425 0.625197 
-0.66191703 0.40999797 0.62750894 
-0.60516644 0.36364722 0.7081909 
-0.07471209 0.27084276 0.95972 
0.14745484 0.67493886 0.7229901 
-0.6317988 0.58350545 0.5102468 
0.14895375 0.646615 0.7481322 
-0.3368588 0.7102274 0.6181451 
0.11995506 0.6331194 0.7647029 
-0.11432365 0.68627334 0.7183029 
0.2280294 0.1668196 0.95925695 
0.27481812 0.50722396 0.8168224 
-0.037224244 -0.15911777 0.98655766 
-0.52504396 0.32614264 0.78610426 
-0.1660275 0.39158118 0.905041 
-0.28883108 0.44090942 0.84980917 
-0.3875213 0.36922622 0.8446889 
-0.18464546 0.7729109 0.60705423 
-0.47850144 0.101299554 0.87222415 
0.1321053 0.605443 0.7848484 
0.2209565 0.41919407 0.880599 
0.8529372 0.23886634 0.46415624 
0.98882776 0.14779979 0.019364482 
0.31583717 -0.26986265 0.9096269 
0.6683803 0.61887264 0.4126311 
0.40911588 0.78263676 0.4691526 
-0.2633749 0.19461907 0.9448583 
-0.07186799 0.28766835 0.95502985 
-0.8478843 0.11469451 0.51762664 
-0.017806191 0.9381628 0.3457364 
0.031735335 0.85693306 0.5144497 
-0.14147314 0.56799096 0.81078464 
-0.0770668 0.63324213 0.7701072 
0.10467259 0.80519354 0.58370113 
-0.20323057 0.22676189 0.9525106 
0.43075722 0.42518082 0.79603356 
0.11675408 0.26872987 0.9561134 
0.60100716 0.6606402 0.44982785 
0.83240277 0.5219049 0.18633604 
0.05426537 0.4267941 0.9027193 
-0.3257531 -0.11584929 0.9383304 
-0.7709503 -0.33840206 0.53955513 
-0.6651239 0.6728211 0.32391676 
-0.29423803 0.5560936 0.7772927 
0.29685554 0.5610127 0.77274936 
-0.33679786 -0.26134905 0.90457946 
-0.15800343 -0.0048328596 0.98742676 
0.109233186 -0.34441128 0.9324425 
-0.19415006 -0.9761576 -0.0970673 
0.4046435 -0.59327704 0.6959067 
-0.4288487 -0.7858394 0.44558448 
-0.5295632 -0.5316619 0.660983 
0.8148303 -0.00081514736 0.579699 
0.124361165 -0.2806133 0.95173025 
-0.22299732 -0.124607936 0.96682215 
-0.017741727 0.4329415 0.9012475 
-0.524943 0.64883435 0.55086195 
-0.6065766 0.6699837 0.42800304 
-0.50443125 0.12241808 0.8547297 
0.4428837 -0.2690939 0.8552442 
0.74760336 -0.017320003 0.6639197 
0.62127846 0.49788788 0.60507923 
0.7050243 0.62446 0.33614054 
0.39351252 0.3547775 0.84810436 
0.20141503 0.61342514 0.76363707 
0.28139743 0.17031541 0.944356 
0.30232936 0.72909546 0.6140169 
-0.09852953 0.9542182 0.28241736 
0.93735266 0.122924164 0.3259749 
0.3783608 0.67702484 0.6312532 
0.11379241 0.4350804 0.893172 
-0.21450843 0.05075461 0.9754026 
0.06657537 0.5562169 0.8283661 
0.03899196 0.8788079 0.47557998 
0.11860992 0.9928677 0.012057243 
-0.1739338 0.9339867 0.31211516 
-0.68017685 0.4299126 0.59374636 
0.10427471 0.9488878 -0.29789028 
-0.03392134 0.95347303 0.29956415 
-0.3992606 0.9162521 0.032757826 
-0.40688655 0.5952623 -0.6928969 
0.1273325 0.000753323 -0.99185985 
0.43358597 -0.48184937 -0.76146203 
0.75524974 -0.07761167 -0.65082586 
0.23959981 0.9540625 0.17987995 
-0.15109196 0.8649467 -0.4785795 
0.5498313 0.40316674 -0.7315341 
0.4630993 0.6905861 -0.5555447 
0.27459362 0.79522866 0.5405644 
-0.14204945 0.8314213 0.5371784 
-0.48785388 0.8466228 0.21267025 
-0.16433126 0.87433034 0.45666373 
0.117028445 0.98292804 0.14197499 
0.07903068 0.75500643 0.6509374 
0.6588526 0.110849515 0.74406034 
0.65148556 0.5025564 0.5683342 
0.6920507 0.13921091 0.70829815 
0.13012369 -0.12802531 0.9831975 
0.16382346 -0.7103443 0.6845239 
-0.8423597 0.23844345 0.48329577 
0.48855904 0.86735874 0.09486321 
0.6740927 0.65900457 0.33363476 
0.32499975 0.8552692 -0.40359634 
0.49439618 0.8511234 0.17652626 
0.5567388 0.8305822 -0.013234384 
0.6817706 0.7312943 -0.01993954 
0.17642067 0.23571397 0.955675 
0.6826098 -0.42334408 0.5956708 
0.75439835 -0.074380174 0.65218914 
0.598118 -0.5360216 0.5957648 
0.622715 0.108990505 0.7748208 
0.070732795 0.12793481 0.9892571 
-0.10035333 -0.37752244 0.92054665 
0.40904397 -0.46489286 0.7852118 
-0.0711264 -0.3159973 0.9460902 
0.49977514 -0.1056146 0.85969204 
-0.43026984 0.3350491 0.8382184 
-0.8171053 -0.566317 0.10781408 
-0.051543083 -0.24980646 0.966923 
0.48823553 -0.23688355 0.8399479 
-0.13787358 0.43059364 0.8919529 
-0.36623272 0.036644287 0.92980146 
0.40407425 0.18217508 0.89640194 
0.055510882 -0.017454024 0.99830556 
0.4046182 0.2156686 0.8886908 
0.16772793 0.8314597 0.5296622 
-0.2015008 0.8287292 0.52211624 
-0.056829646 0.8153338 0.5761955 
-0.19620469 0.7029712 0.68361926 
0.39556098 0.88941556 0.2290668 
0.13170615 0.95522624 0.26494604 
0.88008666 0.18466912 -0.43742988 
-0.28064013 0.946119 -0.16155486 
-0.24819493 0.96838516 0.025091192 
0.34614936 0.36271942 0.86522555 
0.58212906 0.60060704 0.5480849 
-0.16614328 0.8640521 0.4751951 
-0.49753335 0.71440375 0.49202433 
-0.89610994 0.4346771 -0.08968189 
-0.5526985 0.62607557 -0.5500488 
-0.77718437 0.61210907 -0.14596912 
-0.95583045 0.28521505 -0.07099695 
-0.593509 -0.61904603 -0.51432395 
0.032025546 0.23931515 -0.9704137 
-0.480402 0.16604576 -0.8611869 
0.26629364 -0.01972398 -0.9636901 
0.52294403 0.80799633 -0.27142507 
0.90508574 0.2642649 -0.33314252 
0.2298062 0.94579905 -0.22946309 
0.19420545 0.9665012 -0.16780914 
0.0026640962 0.6447585 0.76438177 
0.7753637 0.61649495 0.13691363 
0.89731956 0.17052297 0.40711117 
-0.07510527 0.3375122 0.9383202 
0.10303807 0.3014307 0.94790435 
0.50271076 0.04274885 0.863397 
0.7518902 0.038315233 0.6581741 
0.08027694 0.39424747 0.9154915 
0.18638891 0.37712315 0.907214 
-0.06944825 0.08849496 0.9936527 
0.25887716 -0.34146366 0.90354043 
0.39797 -0.7275127 0.5588785 
0.35247883 0.053433903 0.9342931 
-0.45802027 0.25259036 0.8523002 
-0.17965361 -0.4048727 0.8965504 
0.06988777 0.6755173 0.7340246 
0.7390056 0.2933895 0.6064597 
-0.059029784 -0.06827142 0.9959189 
0.26440737 0.16627516 0.9499692 
-0.10757744 -0.44987795 0.8865872 
-0.5471041 0.49306068 0.6764379 
-0.5315632 0.8179494 -0.21999852 
-0.5652042 0.45466983 0.68834555 
-0.39275137 0.91696876 0.070105374 
-0.5225216 0.6742865 0.5218323 
-0.45914438 -0.056293696 0.88657624 
-0.6048418 -0.7031054 0.3739107 
0.97692186 0.027935108 0.21176244 
0.3459753 0.4929692 0.79829973 
0.57685626 -0.28492573 0.7655419 
0.13837624 0.8282466 0.5430099 
-0.41204953 0.8833103 0.22355762 
0.3073485 0.8280849 0.4688417 
-0.1570855 0.51533103 0.8424714 
0.7654894 0.5459082 0.34060284 
0.40010932 0.87787837 0.2631391 
0.3599856 0.33426756 0.8710199 
-0.1424 0.7066158 0.6931208 
0.27000645 0.6506364 0.7097668 
0.7143616 0.43159682 0.55082816 
0.59249824 0.6105639 0.52550703 
0.05943193 0.2640121 0.9626866 
0.45712614 0.24767914 0.8542194 
0.749571 0.64795727 0.13525793 
0.28634608 0.49840298 0.8182911 
0.5693932 0.17681345 0.8028253 
0.32997838 0.35442007 0.87492895 
-0.1121644 0.7434127 0.65936095 
0.3006529 0.92022705 -0.2505796 
0.78413606 0.551129 0.2852851 
0.7264774 0.5279867 0.43984172 
0.5270823 0.8305446 0.17994452 
0.7728834 0.59201425 0.22840863 
-0.404945 0.70325565 0.58433825 
-0.1739528 0.76819164 0.61613476 
-0.4706479 0.09366956 0.87733495 
-0.8097653 -0.0577396 0.5839061 
-0.19863111 -0.13105139 0.971273 
-0.66755366 0.7140823 0.21085218 
-0.62942255 0.7751928 -0.05388247 
0.0723845 0.99552727 -0.060711604 
-0.5714609 0.82049125 -0.0150531875 
-0.19786972 0.9794155 0.03991137 
-0.16875017 0.94520676 -0.27947745 
0.10145476 0.6778764 -0.7281419 
0.23840748 0.9066967 0.34794098 
0.031787004 0.44489017 0.8950209 
-0.016854258 0.5526434 0.8332474 
0.3591838 0.8215356 0.4427938 
0.3062892 0.15266088 0.9396178 
0.19396052 0.74623054 0.63680404 
0.5342009 0.46252763 0.7076 
0.4063027 -0.035783973 0.9130376 
0.6484877 0.49067938 0.58197725 
0.4489443 0.05825035 0.8916592 
0.5892369 0.572942 0.5696819 
0.17611875 0.21818826 0.95988345 
0.5618189 0.09875355 0.82134473 
0.075560555 -0.1346308 0.9880107 
0.44979745 -0.2237348 0.8646531 
0.3071564 0.20041087 0.9303174 
-0.05272208 0.6836992 0.7278571 
0.21693158 0.676738 0.70353854 
0.037654795 0.6994844 0.71365523 
-0.29989016 0.38066012 0.8747365 
-0.5793232 0.214631 0.7863322 
-0.452426 0.85564804 0.25135112 
-0.69655716 0.6815563 0.22425267 
-0.5727306 0.77057546 -0.27963048 
-0.17072242 0.9745297 0.14541635 
0.17971173 0.89376765 0.41095388 
0.28788894 -0.3077751 0.90685964 
0.613297 -0.22493035 0.757148 
0.023580546 0.91663873 0.39902064 
0.09745218 0.4477374 0.88883877 
-0.59105784 0.28756145 0.7536306 
-0.6019112 -0.47460404 0.6422258 
-0.50434136 0.21699136 0.8357958 
0.0625466 0.48320848 0.8732683 
-0.5316967 0.6286382 0.56754977 
-0.16307016 -0.093899414 0.98213595 
-0.21280752 -0.46372285 0.86004317 
0.20586617 0.04691431 0.97745496 
-0.34327054 0.2867676 0.8943879 
-0.69908553 -0.54725325 0.46021017 
0.1291115 -0.5989059 0.79034287 
-0.34816694 -0.36509135 0.8634165 
-0.1362516 0.1092236 0.9846349 
0.05562263 -0.049386185 0.9972298 
-0.2591557 0.58742213 0.766664 
-0.5043226 0.76256835 0.40515223 
0.6040649 0.78382295 -0.14396925 
0.09317993 0.87399745 0.47691303 
0.18817426 0.50214714 0.84406084 
0.14754103 0.28166443 0.94810176 
0.20316443 -0.34969515 0.9145697 
0.08086067 -0.006731281 0.99670273 
0.23324658 0.5480892 0.8032399 
-0.25074908 0.22280088 0.9420641 
-0.93438244 0.13745727 0.3286868 
-0.86767054 0.027173586 0.49639654 
-0.76121426 0.4816152 0.43428057 
-0.8813378 -0.46602502 0.07787381 
-0.19263794 -0.07006367 0.9787655 
0.11242162 0.21857493 0.9693226 
0.3479762 0.5552454 0.75539076 
0.43631056 0.3231588 0.8397628 
0.9826777 0.039544985 0.18105443 
0.51770973 0.74812067 0.41508088 
0.79514253 0.07190941 0.6021441 
0.13091429 -0.746808 0.6520271 
0.061852295 -0.07778691 0.9950496 
0.06985428 -0.008293955 0.9975228 