# OOMMF: rectangular mesh v1.0
# Segment count: 1
# Begin: Segment
# Begin: Header
# Desc: Time (s) :  1.719999999999998e-07
# Title: m
# meshtype: rectangular
# meshunit: m
# xbase: 2e-09
# ybase: 2e-09
# zbase: 5e-10
# xstepsize: 4e-09
# ystepsize: 4e-09
# zstepsize: 1e-09
# xmin: 0
# ymin: 0
# zmin: 0
# xmax: 1.024e-06
# ymax: 1.024e-06
# zmax: 1e-09
# xnodes: 256
# ynodes: 256
# znodes: 1
# ValueRangeMinMag: 1e-08
# ValueRangeMaxMag: 1
# valueunit: 
# valuemultiplier: 1
# End: Header
# Begin: Data Text
0.87577033 0.3096827 0.3703012 
0.88630253 0.40901217 0.21720266 
0.7853317 0.5824308 0.20982976 
0.50416034 0.7826589 0.36505812 
0.35334137 -0.09595557 0.93056023 
0.30823198 0.8229792 0.47717744 
0.25622758 0.8566509 0.44776848 
-0.028908381 0.7768413 0.6290326 
-0.57987624 0.81306773 0.051617816 
-0.14302386 -0.5152676 -0.84501094 
0.2991779 -0.5408616 -0.7861052 
0.11249443 -0.18140638 -0.97695285 
0.78309345 0.53341633 -0.31973708 
0.6111852 0.6638159 0.43104655 
0.81100196 0.5059179 0.29380777 
0.90736604 -0.0707841 -0.41433865 
0.5081458 0.7250043 0.46492642 
0.1431529 0.56600654 0.8118768 
-0.3047335 0.94857955 -0.085641816 
0.08793822 0.8054007 0.58617127 
0.25728932 0.5669827 0.7825171 
0.5893837 0.35853806 0.7239319 
-0.23684624 0.10282308 0.96609074 
-0.40700486 0.08949782 0.9090309 
-0.4223581 0.63719773 0.6446649 
-0.010014949 0.77845216 0.627624 
-0.6866516 0.3563847 0.63364 
-0.123938836 0.8164471 0.5639622 
0.84398603 0.47448376 0.25010556 
0.5839418 0.47416943 0.6589198 
0.3318981 0.6866452 0.64680916 
-0.1254248 0.29622084 0.94684845 
0.108304024 0.5909202 0.79942703 
-0.4936055 0.5822091 0.6460543 
-0.80560416 0.209041 0.55434984 
-0.98041093 0.08033742 -0.17983396 
-0.21538039 0.5357072 -0.8164737 
-0.17906049 0.5575221 -0.810621 
-0.00032186607 0.13670932 -0.99061126 
0.17877832 0.4676266 -0.865658 
0.74338895 -0.35449144 -0.5671937 
0.48972824 0.14993356 -0.85888654 
0.8450827 0.51576346 0.1407953 
0.8408445 0.26823226 -0.47014046 
0.9479909 0.31706336 0.028003998 
0.8419729 0.45238575 0.29398784 
0.37782598 0.4927521 0.7838642 
-0.1288897 0.22441913 0.9659315 
-0.65710413 0.72216487 0.21608388 
-0.7856374 0.3066239 0.53736 
-0.16126236 0.56061643 0.8122214 
-0.38777715 0.6410739 0.662309 
-0.70785064 0.3664811 0.6038536 
0.13447466 0.6121993 0.77918464 
-0.6690287 0.73837113 0.08490453 
-0.34551072 0.88391525 0.31514478 
-0.34613547 0.84592986 0.40570077 
-0.38360077 0.9121736 -0.14418688 
0.1350208 0.98077023 0.14092271 
-0.7471272 0.64882255 0.14432742 
-0.66349083 0.6849468 -0.30104476 
-0.71102256 0.70314765 -0.005505398 
-0.54886603 0.45981133 -0.69808286 
-0.89296436 0.37400895 -0.25046358 
-0.52592814 0.78805465 -0.31995225 
-0.023051217 0.9605284 0.2772253 
0.76641804 0.47247565 0.43516695 
0.4877398 0.84083664 0.23474202 
0.55476236 0.82096404 0.1351178 
0.26742464 0.94600546 -0.1831879 
-0.33716983 0.8598588 0.383353 
-0.3950892 0.80871844 0.43575126 
-0.054205623 0.9275221 0.36981678 
0.16339432 0.6842848 0.7106734 
-0.17592773 0.32422954 0.9294755 
-0.45632842 0.7837254 0.42135394 
-0.058119506 0.4077937 0.91122246 
-0.2615864 0.53330266 0.80446315 
0.45817998 -0.22511604 0.8598802 
-0.18463367 0.1076227 0.976897 
-0.6445799 0.7305971 0.22526586 
-0.5736434 0.7853138 0.23284256 
-0.1832159 0.5828919 0.7916243 
-0.28341645 0.95737374 0.055774234 
0.16143605 0.65702873 -0.7363775 
0.15999378 0.45131814 -0.8779032 
0.4843877 0.39130944 -0.7824612 
0.045211136 0.94294953 0.3298516 
-0.32463443 0.9431224 -0.071643054 
0.18666229 0.43566898 -0.8805394 
0.86660266 0.48988375 0.09494057 
0.940205 0.28722382 0.18307658 
0.27647308 0.7399786 0.6131838 
-0.80578476 0.58250487 0.10676618 
-0.7444348 0.6501367 0.15211564 
-0.3003787 0.700164 0.6477214 
-0.56104994 0.02012869 0.82753724 
-0.8927884 -0.44839266 0.04327762 
-0.9758893 0.1911071 -0.10544241 
-0.07201312 0.7817549 0.61941373 
-0.47415978 0.64375865 0.6006226 
-0.5037783 0.86371243 -0.014437328 
-0.7767127 0.5360431 0.33071923 
-0.49347213 0.5654296 0.6608893 
-0.43677282 0.8984473 0.04496732 
0.62824804 0.5353376 0.56455123 
0.10880493 0.39112508 0.9138833 
0.37088045 0.71370214 0.5942029 
-0.2611126 0.4990151 0.8263197 
-0.97981983 0.10171122 -0.1720698 
-0.6247542 0.67236865 0.39699206 
-0.40599275 0.43625745 0.8030252 
-0.105842814 0.41576642 0.90329164 
0.21881105 0.6654837 0.71361977 
-0.19850859 0.4996336 0.8431848 
-0.7682336 0.5301809 0.35878348 
-0.4177607 0.9028924 0.101298355 
-0.6888216 0.60494393 -0.3994593 
-0.46700716 0.32439926 -0.8225993 
-0.70120543 0.17487453 -0.69118017 
-0.54129523 0.46519053 0.7004266 
-0.88417804 0.39147267 -0.2549087 
-0.51650393 0.84973395 0.10571682 
-0.22878568 0.7145438 -0.6611235 
-0.58589953 0.80909264 -0.045725256 
-0.6846869 0.72646844 0.058716618 
-0.30009973 0.9529308 -0.04316386 
-0.5943552 0.78299373 -0.18347424 
0.034994375 0.9993215 0.011493212 
-0.43032283 0.85886455 0.27780232 
-0.007847816 0.9983361 -0.057127267 
0.35205868 0.3540396 0.8664357 
0.3172203 0.6776648 0.6634318 
-0.12976569 0.9505017 0.28232527 
-0.1474479 0.98877853 -0.024005506 
-0.37654164 0.91484034 0.14588915 
0.073958084 0.9334337 0.3510438 
-0.12083377 0.89620715 0.4268631 
-0.6020047 0.23767586 0.76229954 
-0.6896101 0.6936533 0.2080459 
0.22691421 0.94893974 -0.21914238 
0.5393567 0.83502626 -0.10874521 
0.29014072 0.9555929 -0.05158295 
-0.22128628 0.78204393 -0.5826144 
0.43732136 0.56765264 -0.69751024 
0.7529535 0.56578815 -0.33607262 
0.8773544 0.46329388 -0.12493254 
0.6526995 0.6238523 0.42987406 
0.34533948 0.31132656 0.8853342 
-0.34801006 0.70342225 0.61974686 
0.3528836 0.42392644 0.8341221 
-0.03942599 -0.13310257 0.9903178 
0.10789345 0.3992702 0.91046274 
-0.030957216 0.800803 0.59812725 
0.13644747 0.83081794 0.5395588 
-0.77273256 0.5387898 0.33554447 
-0.77221066 0.0076615163 -0.63532054 
-0.82450527 -0.5328811 -0.1903393 
-0.15725946 0.5545563 -0.81715167 
0.23722956 0.9714351 0.0059942193 
0.88921404 0.114587024 -0.44290897 
0.25730518 0.8510561 0.45770916 
0.99248147 0.10950921 -0.054664787 
0.7938248 -0.48171827 0.37120062 
0.91790247 -0.22958334 0.32364583 
0.7834542 -0.17282917 0.5969336 
0.69219524 -0.03416569 0.7209012 
0.3583191 0.35233685 0.86456126 
0.5974297 0.73201996 0.32745168 
0.6191491 0.59630007 -0.5109606 
0.4118214 0.634727 0.6538538 
0.4376556 0.8628673 0.2528193 
0.8248854 0.47149998 0.3118523 
0.9118642 -0.27543974 0.3043626 
0.72163254 0.18957916 0.6658125 
0.74937123 0.23981017 0.6171984 
0.3210348 0.31691727 0.8924686 
0.00024087446 0.6782756 0.73480767 
-0.6887363 0.7066193 0.16226971 
-0.6600667 0.7510924 0.013122259 
-0.8768666 0.47912452 -0.039304912 
-0.5254959 0.8480839 0.067880444 
-0.25117528 0.96726716 -0.036129024 
-0.28624737 0.85806537 0.42636403 
-0.13263579 0.90962654 0.3936843 
-0.23993884 0.8292286 -0.50478655 
0.36509207 0.8737038 0.32148007 
0.19226272 0.92760676 0.32028252 
-0.5061892 0.8526324 0.12957817 
-0.20571429 0.04195623 -0.97771233 
-0.16133587 0.5205182 -0.8384698 
-0.33404595 0.3774939 -0.8636619 
0.39989343 0.759757 -0.5126934 
0.48880312 0.8306833 -0.26652747 
0.12677188 0.983831 -0.12651326 
0.13059945 0.98107207 -0.14297314 
0.1057326 0.97312737 0.20455758 
-0.5960495 0.62945276 0.4985121 
-0.7823867 0.57699066 0.2344205 
0.5198741 0.7818902 -0.34406188 
0.7734282 0.49327123 0.39811093 
-0.012046571 0.8379814 0.5455659 
0.587086 0.79397094 -0.15792447 
0.41706234 0.9025871 0.10674946 
0.37614253 0.8729969 -0.31047285 
0.25362682 0.40507302 0.87840164 
0.55157256 -0.48294178 0.6800993 
0.40424088 -0.039853293 0.91378397 
0.4803821 0.15822661 0.8626688 
0.58466315 0.7941057 0.16602771 
0.3599695 0.917681 0.16817716 
-0.5095106 0.54069024 0.66936773 
0.5866555 0.7327118 0.34491858 
0.2998795 0.44064936 -0.84610903 
0.60714024 0.40567872 -0.68323165 
0.6297281 0.50441134 -0.5907723 
0.9770059 -0.054750264 -0.20606297 
0.2183652 0.7836253 0.58159107 
0.32252482 0.85347134 0.4093465 
0.5189201 0.8296915 0.20575182 
0.55460775 0.8194287 -0.14473015 
0.9476802 -0.29793987 -0.114604495 
0.41325238 -0.4538961 0.7894306 
0.098157346 0.008012192 0.99513865 
-0.114712104 0.2695931 0.9561175 
-0.34024146 -0.10943048 0.93394905 
0.17276858 0.66287893 0.7285208 
0.10657189 0.47151887 0.8753928 
0.33639297 0.93455696 0.11594473 
-0.22947381 0.798017 0.5572349 
-0.23602676 0.80480814 0.5445873 
-0.22946715 0.81179017 0.5369744 
-0.09934464 0.67834514 0.7279963 
-0.0992644 0.6573743 0.7469977 
-0.53946185 0.8419567 -0.009481844 
-0.32815945 0.82690805 -0.45665577 
-0.3585984 0.5942937 -0.7198766 
-0.6367028 0.76956207 0.048823707 
-0.506977 0.8353943 0.21234588 
0.90962154 0.2146306 0.35569972 
0.78909117 -0.2757109 0.548925 
0.57379836 0.5922683 0.5656623 
0.25005183 0.7054412 0.6631944 
0.31354362 0.4757789 0.8217816 
0.4591178 0.04286015 0.8873409 
0.8085563 0.23357706 0.54007274 
0.22418465 0.09298498 0.9701005 
-0.66304797 0.12469522 0.7381183 
-0.86617124 0.22464858 0.4464083 
-0.8315541 0.30022326 0.4673157 
0.45569244 -0.20818311 0.86545026 
-0.50042886 0.470759 0.72660655 
0.038556635 0.9887593 0.14445926 
-0.21333018 -0.16433567 0.9630598 
-0.29997957 -0.6543961 0.6941023 
-0.42486697 -0.8586 0.28686938 
0.8205651 0.56085163 0.11008375 
0.93077886 0.34500566 -0.12092064 
0.56626374 0.6146245 0.54916495 
0.73263127 0.3691662 0.57181096 
0.60419905 0.26420447 0.75175756 
0.46955663 0.2756707 0.8387624 
0.74318975 0.4619254 0.48403934 
0.45237976 0.86095774 0.23260339 
0.07275222 0.9613328 -0.26560587 
-0.09461606 0.6050688 -0.79053116 
0.2735724 0.26310968 -0.9251657 
0.34897307 0.1553002 -0.92417514 
0.5523393 -0.30089727 -0.7774203 
0.1643518 0.26936343 -0.94891095 
0.78610253 0.55192256 -0.27825212 
0.42142326 0.6349552 -0.64748305 
0.7024521 0.6773557 -0.21851854 
-0.1932891 -0.07202357 0.9784948 
-0.33079827 0.5649358 0.75592345 
-0.032817625 0.9486481 -0.3146263 
0.3069367 -0.18685858 0.93320626 
-0.08408543 0.24172637 0.96669436 
-0.1577005 0.9023606 0.4010936 
-0.4451244 0.5915787 0.67223436 
-0.12888698 0.45631355 0.8804353 
-0.26638287 0.7787978 0.56790346 
-0.53445125 0.5061321 0.6768989 
0.7469649 0.5347701 0.39505002 
0.106299445 0.98503673 0.1356587 
0.09895874 0.9866921 0.12901966 
-0.033352427 0.70038974 0.71298105 
-0.39241296 0.5649832 0.72581404 
-0.28131863 0.6673097 0.6896069 
-0.50850314 -0.25816768 0.8214463 
-0.3364612 0.29479173 0.8943667 
-0.5734537 -0.66954297 -0.47208372 
-0.65667367 -0.0756038 -0.75037575 
-0.17877996 0.2872774 -0.94101506 
-0.22809474 0.3908909 -0.89172703 
0.8365567 0.23658013 -0.4941689 
0.6181393 -0.11693879 -0.7773218 
0.89407295 0.039067075 0.44621462 
0.93505204 -0.020750144 -0.35390288 
0.53597194 0.6015239 -0.59237087 
0.6820047 0.15658148 0.71438915 
0.4635842 0.74918437 0.4730882 
0.07479356 0.43222734 0.8986577 
-0.08586501 0.20145951 0.97572607 
-0.7671966 0.6327466 0.10507776 
-0.89766115 0.37458175 -0.23214865 
-0.6348229 0.47747076 0.6074716 
-0.54038143 0.46760437 0.6995242 
-0.71083826 -0.08388883 0.698335 
-0.9915558 0.06750446 0.11072582 
-0.99670213 0.05374383 0.060798205 
-0.23188491 0.90198123 0.3642241 
0.083312824 0.90839803 0.40972188 
0.05894461 0.531952 0.84472036 
-0.04280787 0.9510504 0.3060568 
-0.4116006 0.8643955 0.2887998 
-0.2407967 0.93360627 -0.26532295 
-0.18537165 0.97666556 -0.10845145 
-0.9108312 0.39924657 0.10482695 
-0.636515 0.56611145 0.5238001 
-0.40382126 0.56565183 0.71900374 
-0.4241683 0.67240405 0.60659224 
0.16299826 0.95304316 0.25522605 
0.95920545 0.16819577 -0.22723354 
0.50814736 0.77683014 0.37191555 
0.20741647 0.9765087 0.058388162 
0.39361295 0.6902325 0.6071639 
-0.1356928 0.5813674 0.8022465 
-0.02705426 0.2976918 0.95427865 
-0.48014665 0.51781297 0.7080459 
-0.1347556 -0.17916092 0.9745472 
-0.088801526 0.19683667 0.97640646 
-0.28449973 0.2078616 0.9358704 
-0.2890965 0.45616093 0.8416296 
-0.26098865 0.5605464 0.7859215 
0.033323783 0.9077769 0.41812772 
-0.2662796 0.84822905 0.4578239 
-0.89309835 0.15696701 0.4215882 
-0.6348447 0.15909939 0.7560818 
0.34202406 0.87683713 0.3378999 
0.042619403 0.8123338 -0.5816334 
0.781744 0.61921656 -0.073805384 
0.7145348 0.6903421 0.113436386 
0.073295265 0.8625399 0.5006524 
-0.16852951 0.9856867 0.0044343057 
0.442656 0.8884997 0.1209298 
0.7000345 0.71402097 0.01121545 
0.36772573 0.7881957 0.4934829 
0.36828378 0.83279884 0.4132956 
-0.37920946 0.6716837 0.63642853 
-0.29469156 0.40660408 0.86477166 
0.5951921 0.45873553 0.65977883 
-0.25951827 0.37600443 0.8895342 
-0.55913776 0.80664355 0.1915493 
-0.8110858 0.56138253 0.16428433 
0.27410185 0.5752233 0.7707052 
-0.3572269 0.59271115 0.7218604 
-0.34947175 0.8414531 0.41209972 
0.27006173 0.47692147 0.8364285 
-0.3239336 0.5807074 0.74689096 
0.47033045 0.816504 0.3348293 
0.8264916 0.30822462 0.47107264 
0.05616082 0.59090674 0.8047827 
0.0842119 0.9319304 0.35272393 
-0.056489334 0.641249 0.76525074 
-0.4351533 0.61610895 0.65654516 
-0.51894766 0.17900512 0.8358532 
-0.35790256 -0.45255882 0.81675965 
-0.15688919 0.32128936 0.9338945 
-0.43108425 0.49104634 0.7569941 
-0.5012291 -0.057924666 0.8633737 
-0.5672207 0.48588738 0.6649618 
-0.7131653 0.534048 0.45407942 
-0.8862885 0.46097004 0.04471392 
-0.4710574 0.8392132 -0.27170956 
-0.32527456 0.90257883 0.28204277 
-0.34448493 0.34194273 0.8743028 
-0.29896796 0.83272654 0.46603087 
-0.019527394 0.6378003 0.7699543 
-0.9517959 -0.29692015 0.07696171 
-0.6841785 0.14737718 -0.7142688 
-0.8475806 0.46037945 -0.26392797 
-0.47615814 0.83844763 -0.26510224 
-0.5109048 0.8549316 -0.08982386 
-0.05515045 0.86634105 0.49639866 
0.044594377 0.47680297 0.87787837 
-0.034427073 0.40193516 0.9150207 
-0.29525727 0.4560367 0.8395557 
0.6165433 0.68331903 0.3910876 
0.59241086 0.48369667 0.64427245 
0.08859828 0.80891794 0.5812075 
-0.23633236 0.676353 0.69763434 
-0.76159173 0.43603465 0.4794288 
-0.28935367 0.24432415 0.9255161 
-0.7812631 0.13060866 0.61038464 
0.03604387 0.23702143 0.97083557 
-0.92079014 0.38939768 0.022696495 
-0.09614658 0.97574437 0.19666928 
-0.53250337 0.7987851 0.27996874 
-0.35995945 0.900647 0.24344225 
-0.3674439 0.8893597 -0.27207428 
0.9097928 0.39643374 -0.12295332 
0.37750116 0.56713814 0.7320159 
0.38271192 0.47797525 0.7906146 
0.02541995 -0.036391083 0.99901426 
-0.24386619 -0.07896084 0.96658915 
0.20748782 -0.20960921 0.955517 
0.33769798 0.25002435 0.90744036 
-0.16163051 0.6873139 0.70814914 
-0.64796025 0.52352417 0.553236 
-0.08181762 0.89390427 0.44072774 
-0.3364478 0.7174497 0.6099745 
0.29300165 0.90479636 -0.3090206 
-0.31882706 0.9123245 -0.25693077 
0.03338571 0.9463259 0.32148513 
0.12166546 0.97934556 0.16149305 
0.64006686 0.7205445 0.26670235 
0.8741602 0.48559338 -0.006563361 
0.47734892 0.7410773 0.47216794 
0.9198162 0.377512 0.10687814 
0.9753943 0.024612516 0.21908952 
0.30796096 0.2747878 0.91085225 
0.11904998 0.5020075 0.8566304 
0.13372144 0.49526232 0.8583902 
0.51161957 0.23484306 0.8264952 
0.5577805 0.32411888 0.7640863 
0.47589538 0.49051327 0.730014 
0.43743926 0.49405095 0.7513725 
0.2078979 0.8436566 0.49499723 
0.8547098 0.08391665 0.5122784 
0.8806355 -0.23994635 0.40854228 
0.54493195 0.5525467 0.6306674 
0.07209931 0.54900426 0.8327041 
-0.41820773 0.24465807 0.8747828 
-0.37279707 0.80517745 0.4612069 
-0.3239202 0.61063904 0.72263116 
-0.4958265 0.7597297 0.42067444 
-0.66969776 0.7136696 0.20537929 
-0.24772702 0.9651366 0.084514916 
-0.52072066 0.81463915 0.2553687 
-0.24691492 0.87545806 0.41545904 
-0.15553741 0.70991725 -0.68689567 
-0.5651936 0.4918102 0.66232854 
-0.32956442 0.9285484 0.17083672 
-0.46568277 0.81169534 -0.35254812 
0.060263902 0.84341925 -0.5338656 
0.26823732 0.76227355 -0.5890567 
-0.13517077 0.61194324 -0.7792653 
-0.040002827 0.79665834 -0.6031049 
0.09898752 0.8182037 -0.566343 
-0.2900959 0.9208815 -0.2604262 
0.111225285 0.96042114 0.25538272 
0.42611176 0.821676 0.37851986 
-0.24300116 0.96965605 0.02678681 
0.01445109 0.9294355 0.36870164 
0.20562088 0.9708805 0.12292765 
-0.07451732 0.66284776 0.745037 
-0.38653976 0.47916263 0.7880293 
0.6782975 0.558927 0.47698334 
0.3140966 0.9213758 0.22893244 
0.51417005 0.7402064 -0.4332708 
0.4389896 0.2344064 0.8673763 
0.6359996 -0.05716945 0.76956886 
0.28347254 -0.19369933 0.9392145 
0.30268762 0.57174814 0.7625512 
0.046415154 0.7789402 0.62537825 
-0.5522203 0.69315547 0.4632367 
-0.8724826 0.26674128 -0.4094181 
-0.08906632 0.2808911 -0.95559794 
0.54900134 0.3873293 -0.7406575 
0.6036295 0.62502766 -0.4949463 
0.98446983 -0.029670605 0.17302887 
0.31755024 0.8369042 -0.44581753 
0.51689744 0.8371458 0.17889713 
0.24673437 0.9611733 -0.1235646 
-0.36806214 0.71781784 -0.59098893 
0.55231595 0.8305089 -0.07212542 
0.999233 0.030817516 -0.02415824 
0.91855484 0.034085516 0.39382136 
0.5814128 0.12804402 0.80346996 
0.468952 -0.65262425 0.5951182 
-0.081510596 -0.43316022 0.8976238 
0.07225198 0.5671966 0.8204071 
-0.33427626 0.66500235 0.66785574 
-0.2651285 0.4262068 0.86490166 
0.118845746 0.5536207 0.8242451 
0.35917264 0.5259447 0.7709587 
0.33344486 0.3829968 0.86146855 
-0.36951044 0.44657856 0.8148801 
-0.075172745 0.35612917 0.9314081 
-0.28810453 0.10155326 0.9521989 
-0.69328415 0.4682701 0.54779583 
-0.6068453 0.40185753 0.68574727 
-0.2694808 0.93154454 0.24414156 
-0.3117885 0.95014 -0.0046917386 
0.81351507 0.57503283 -0.086778745 
0.57790816 -0.43076408 0.69315547 
0.18220764 0.23869401 0.95384777 
0.30801252 0.47755596 0.8228418 
0.345958 0.63477236 0.6909249 
0.33724326 0.06282061 0.9393192 
0.37509534 -0.8456657 0.37967524 
-0.08520678 0.47745502 0.87451506 
-0.15903986 -0.24758628 0.9557236 
-0.33262345 0.36344576 0.870212 
-0.30628502 0.6036892 0.73603594 
-0.92300206 0.37429786 0.089266114 
-0.6095143 0.79208857 -0.03298454 
-0.3792802 0.88696265 0.26352182 
-0.99902153 0.019671561 0.03961134 
-0.89215654 -0.08572996 -0.44351682 
-0.63638633 -0.09527649 -0.76546377 
0.5432504 0.8218974 -0.17135862 
0.5918058 0.7351973 0.3305313 
0.0019489351 0.5240618 0.8516781 
0.2873436 0.84915626 0.44313362 
0.41085637 0.8823667 0.22940381 
0.99533874 0.08350111 0.048252862 
0.8842811 0.22464156 0.4093692 
0.77367216 0.500578 0.38839808 
0.2273644 0.7217238 0.6537739 
-0.39141884 0.6829716 -0.6167181 
0.5621244 0.18549961 -0.8059814 
0.21361339 0.34753686 -0.91301006 
0.46522737 0.25709566 -0.84703326 
0.06844821 0.69680256 -0.7139896 
0.63089794 0.73574173 -0.24627611 
0.7939143 0.60535276 0.056992747 
0.5490689 0.6005153 0.5812958 
0.39414448 -0.34754205 0.8508025 
0.17613779 -0.30256197 0.93671334 
0.10885756 0.7245864 0.6805326 
0.02264862 -0.4093802 0.91208273 
-0.48023373 0.08619768 0.872895 
-0.11518342 0.4101123 0.9047324 
0.055398837 0.6102297 0.7902853 
-0.15545921 0.8880598 0.43264592 
-0.4081683 0.8412584 0.3545182 
-0.09886487 0.946899 0.30595455 
0.4128173 0.26708558 0.870774 
0.13401201 0.7931711 0.59407103 
0.456273 0.6261227 0.6322859 
0.2561072 0.4710419 0.8441142 
0.311834 0.5271251 0.7905053 
0.0011437212 0.70135343 0.7128128 
-0.26367125 0.47647384 0.8387194 
-0.28227162 0.03267276 0.9587781 
-0.7053794 0.32440335 -0.6302399 
0.1466972 0.51741487 -0.843067 
0.40821907 0.8318425 -0.37602577 
0.52028227 0.5941772 -0.6134002 
0.891996 0.36560276 -0.26585317 
0.96937156 0.17369148 -0.17363782 
0.9314534 0.16785023 0.32283288 
0.91708463 0.3221391 0.23490928 
0.55936486 0.62963766 0.5391359 
0.10182046 0.37567967 0.92113924 
-0.22417216 -0.06538955 0.97235334 
-0.27640617 0.12942277 0.95228636 
-0.47090432 0.764206 0.4407251 
0.32395557 0.66253465 0.67535233 
0.3481452 0.8255366 0.444167 
-0.21968035 0.43446386 0.87348825 
-0.5389274 0.5983008 0.5929532 
-0.27186567 -0.45586842 0.8475099 
-0.33397147 -0.39401305 0.8562808 
-0.46743113 -0.24556829 0.8492376 
0.055537418 0.7246205 0.68690664 
-0.14661478 0.7921975 0.59239125 
0.3333083 0.30813986 0.8910418 
0.14955088 0.9410928 0.30328014 
0.30041373 0.74115485 0.6003675 
0.016704379 0.7165025 0.69738454 
-0.46732545 0.27069914 0.8416229 
-0.87939143 0.41084018 0.24058504 
-0.8546419 0.2853108 0.4338029 
-0.55779386 0.52341884 0.6441265 
0.19396305 -0.33463615 0.92216974 
-0.20992033 0.017667338 0.97755885 
-0.4854255 0.28666282 0.8259459 
-0.21211678 0.7861753 0.580461 
0.3564872 0.47135082 0.80668783 
0.0951704 0.28958902 0.9524079 
0.47936228 0.6993634 0.5301911 
0.6360735 0.28667653 0.7163987 
-0.61934483 0.12609096 0.77492785 
0.13301829 -0.25195694 0.958553 
-0.47762424 0.15567784 0.86466146 
-0.4956517 0.37896994 0.7814802 
-0.74250025 0.6243046 0.24276982 
0.0024368449 0.49441558 0.8692222 
-0.48611566 0.038178053 0.87306017 
-0.5277107 0.20013005 0.82551163 
-0.5419016 0.8286253 -0.14043793 
0.061718658 0.9854774 0.15819368 
0.36105797 0.84460443 0.39532337 
0.4832517 0.43939054 -0.75723433 
0.6112432 0.7498575 0.2531711 
0.7757032 0.39088523 0.49547288 
0.52494425 0.6633873 0.5332457 
-0.51398325 0.69874483 0.49757117 
-0.2761992 0.37699753 0.88407415 
-0.10901324 0.58348405 0.8047749 
-0.3678419 0.2385279 0.89877516 
-0.19993849 0.23429628 0.9513832 
0.13653418 0.33728173 0.9314502 
-0.10563291 -0.041755352 0.9935281 
0.41717228 -0.21616195 0.8827464 
0.15563011 0.40614307 0.90045947 
-0.27387542 0.7279668 0.6285353 
0.07913371 0.8006208 0.59392285 
-0.36555997 0.37929252 0.8500018 
-0.3855112 0.47936586 0.78840953 
0.039595082 0.7459629 0.66480947 
0.09032925 0.28583983 0.9540106 
-0.21005705 0.37554052 0.9026879 
0.34238416 0.23700531 0.90917635 
0.47627977 -0.63963467 0.6033449 
-0.33693036 0.59089524 0.7330217 
-0.06612924 0.43030486 0.90025806 
-0.33704796 0.5834796 0.73888457 
-0.38788038 0.2832679 0.87710214 
-0.7938145 -0.1730076 0.5830327 
0.076116554 -0.2188422 0.9727869 
0.03729058 -0.26077983 0.9646779 
-0.333502 -0.2935052 0.8958968 
0.42279902 -0.34935224 0.83617824 
0.013834257 0.059247762 0.9981475 
-0.5573039 -0.3800685 0.7382143 
-0.78628844 0.5545081 0.27252805 
-0.5629243 0.8204056 -0.10025416 
-0.7025924 0.68994665 0.17417714 
-0.6449916 0.7623005 -0.05370212 
-0.29221863 0.94078857 0.17182921 
-0.7154561 0.26965034 0.64452404 
-0.5109517 0.7076479 0.48801926 
-0.49206936 0.78128797 -0.38400114 
-0.7729064 0.38534108 0.5041112 
-0.1409185 0.66930765 0.7294994 
-0.168459 0.8985769 0.40519258 
-0.6622493 0.6827351 0.3087048 
-0.266678 0.7768211 0.57046646 
0.10315254 0.8852077 0.45361537 
0.253247 0.6575109 0.7096094 
0.48830622 0.14298652 0.8608786 
0.5805479 0.71496344 0.3896042 
0.64024764 0.47321156 0.6051065 
0.3346266 0.804798 0.4902299 
0.17322075 0.5378656 0.82504255 
-0.31772754 0.0993393 0.94296396 
-0.3587679 -0.16153544 0.91934323 
-0.41218507 0.78185946 0.46775973 
-0.20640305 0.47763854 0.8539668 
-0.3040845 0.5041874 0.80828696 
-0.94328123 0.27951995 0.17913431 
-0.20846464 0.7668534 0.6070243 
-0.4088011 0.8065748 0.4269881 
-0.18953176 0.68134 0.70700324 
0.1350366 0.22224778 0.96559364 
0.021805089 0.59663 0.80222017 
0.053043846 -0.07162888 0.9960199 
-0.05766287 0.062666535 0.9963674 
0.33272088 0.22375438 0.9160955 
0.28246185 0.16151108 0.94558424 
-0.39948577 0.9091216 0.117937304 
-0.24149646 0.70907825 0.66248584 
-0.08355459 0.49291956 0.86605376 
-0.060860906 0.96068394 0.27089173 
0.6384739 0.76920766 -0.025898771 
0.11086927 0.94971585 0.29282758 
-0.20704481 0.81746954 0.537472 
0.033537846 0.96849555 0.24676228 
0.27560923 0.36254773 0.8902802 
0.4668147 0.56562155 0.67982084 
0.010055123 0.34889558 0.93710774 
0.7054439 0.09230134 0.70273006 
0.8010665 -0.34006006 0.49259695 
0.60356385 0.46962288 0.6443331 
0.402053 0.3448252 0.8482034 
0.54069996 0.022118304 0.8409247 
0.7465505 0.032726735 0.6645234 
0.51356465 0.35302988 0.7820622 
0.64342713 0.37452653 0.66763127 
0.821863 0.09454145 0.5617858 
0.6267512 0.112412594 0.7710684 
0.55278 0.34247568 0.7597004 
0.52884907 0.53914225 0.65547264 
-0.26338965 0.06003987 0.9628194 
-0.26906234 -0.04553423 0.96204585 
0.14390273 0.47531483 0.86796767 
0.057979982 0.68579674 0.72548 
-0.58812726 0.7284081 0.35146564 
-0.70301384 0.264799 0.6600402 
-0.58835375 0.09410565 0.803109 
-0.7133669 -0.041217227 0.6995777 
-0.72788715 0.5556122 0.40184012 
-0.6482121 0.61989874 0.44220662 
-0.4718167 0.84531224 0.2506718 
-0.9156303 0.39702842 -0.06316357 
-0.39115164 0.917018 0.077964455 
-0.631782 0.710959 -0.3088511 
-0.429528 0.66037256 -0.6159658 
-0.41343632 0.55039406 -0.7253529 
-0.45852262 0.27695873 -0.84442353 
-0.10860868 0.51970637 -0.84741336 
0.035236813 0.9398907 -0.33965263 
0.3084694 0.95121044 -0.006736599 
0.3952982 0.87525505 0.2786898 
0.027833102 0.95654744 0.2902456 
-0.4963137 0.7173341 0.48898327 
-0.46785045 0.87869436 0.09493258 
-0.3596448 0.91224176 0.19613978 
-0.09839566 0.97880536 0.17960654 
0.024070961 0.8165175 0.5768187 
-0.22743951 0.10925321 0.9676441 
-0.045594845 0.56551737 0.82347506 
-0.016069472 0.6425199 0.7661005 
0.049599484 0.7657692 0.64120007 
0.2746447 0.51596457 0.81138825 
0.30334386 0.14404556 0.9419307 
0.11218953 0.35131678 0.9295107 
-0.20177968 0.2891714 0.93576974 
-0.59729004 0.5530667 0.5808287 
-0.7722786 0.60867614 0.18193188 
-0.54564923 0.8033883 -0.2383993 
0.0051400964 0.5601705 -0.8283615 
0.8461276 0.50039554 0.1835004 
0.58503985 0.7981137 0.14402436 
0.12029087 0.9828815 0.13955012 
0.22344144 0.9359493 0.27216318 
0.13847414 0.972364 -0.18797131 
0.1138176 0.92980266 -0.35001802 
0.4325707 0.8885421 0.15289056 
0.36013815 0.42696506 0.8294584 
0.621364 0.60496855 0.49791566 
0.020468613 0.15679435 0.9874192 
0.59442645 -0.019154606 0.8039218 
-0.27520898 -0.30708298 0.91102153 
-0.56006193 0.31683907 0.7654697 
-0.53034604 -0.13194826 0.8374502 
-0.33994606 -0.15681425 0.9272788 
0.33230647 0.18975806 0.9238854 
-0.001370219 0.84824246 0.5296064 
0.97110087 -0.13866043 0.19425857 
0.82375467 -0.3682967 0.431029 
0.0657244 0.4270068 0.9018568 
0.26966697 0.06389706 0.96083134 
-0.5028065 0.1335394 0.85402167 
-0.85676754 0.4750697 0.20064461 
-0.84627306 0.52976245 0.056335762 
-0.56611013 0.6469335 0.5108782 
-0.52056164 0.35911727 0.7746292 
-0.45853087 -0.54807556 0.69954467 
0.39391738 0.14405297 0.9077874 
0.1094626 -0.2254507 0.9680857 
0.39694673 -0.064388946 0.91558033 
0.16866332 -0.55981505 0.81127053 
0.078408174 -0.18211825 0.98014545 
-0.27655464 -0.3328056 0.901531 
0.41511065 0.13857286 0.8991557 
0.30977508 0.324178 0.8938389 
-0.2328898 0.27612665 0.9324787 
-0.3338375 0.18724385 0.92384654 
-0.036414187 0.6028606 0.7970151 
-0.86613 -0.05496651 0.4967873 
-0.9083155 0.08113277 0.41034186 
-0.9515866 -0.1369646 0.27517956 
-0.7019308 0.67251307 0.23456217 
0.46527547 0.60772157 0.6435785 
0.89520323 0.24129064 0.37468654 
0.45265403 0.77490014 0.44117367 
0.4014587 0.7978481 0.44974363 
0.2763997 0.63051236 0.72529817 
0.31428924 0.80151504 0.50872 
0.8715185 0.37340847 0.31783897 
0.015273536 0.72550035 0.6880523 
-0.30591348 0.91171134 -0.27422532 
-0.03220976 0.8061717 -0.59080434 
0.07466826 0.923735 -0.3756837 
0.28535327 0.9426337 0.1732494 
-0.178472 0.9538789 0.2413769 
0.2651237 0.91341674 -0.3088356 
0.8459654 0.41130012 0.339374 
0.823671 0.45731473 0.3353052 
0.3274896 0.35386142 0.8760894 
0.35702804 -0.61297655 0.7048339 
0.3080049 0.3027349 0.9019338 
-0.19961977 0.48038372 0.85403943 
-0.29162526 0.14221016 0.9459023 
-0.56902194 0.027983492 0.82184607 
-0.53450185 0.07445008 0.8418818 
-0.44448087 0.66005313 0.6056127 
-0.39743146 0.6363016 0.66118735 
-0.70470876 0.1910508 0.68328995 
-0.38573003 0.6698453 0.63444436 
0.6526446 0.620899 0.4342113 
0.8800442 0.32682934 0.34453556 
0.87036824 -0.19277115 0.45309877 
0.5886758 0.5525259 0.5900645 
-0.1358376 0.2497974 0.9587229 
-0.49734658 -0.13565956 0.8568797 
-0.542378 0.40253973 0.7374198 
0.12284782 0.7188734 -0.6841999 
-0.59283084 0.79162884 -0.14790319 
0.00048374073 0.5811791 -0.81377566 
0.27668482 0.7502509 -0.60047406 
0.5742284 0.815468 0.07261973 
-0.4705266 0.7470595 0.4695815 
0.61181325 0.44659728 0.6528672 
0.6631928 0.09649826 0.7422018 
0.05731474 0.6214794 0.78133124 
-0.26114893 0.69449955 0.6704265 
-0.2607487 0.72994965 0.63180983 
-0.029994298 0.075584345 0.99668825 
0.13293995 0.8361831 0.5320948 
0.060823563 0.88199687 0.46731386 
0.25449115 0.81371653 0.5225895 
-0.022146385 0.56854177 0.82235634 
0.18493553 0.68603855 0.70366895 
-0.19956656 0.8103137 0.55096734 
-0.4335179 0.4894413 0.7566435 
-0.8882997 0.19145899 0.41745317 
-0.69167286 0.50471365 0.516578 
-0.27850235 0.51567125 0.8102589 
-0.26037812 0.40899786 0.8745994 
-0.008391022 0.33029398 0.9438408 
-0.4626755 0.7532384 0.4675075 
-0.5379281 0.6953323 0.47659892 
-0.7966745 0.5288783 0.29257086 
-0.9181166 0.36711282 0.14929894 
-0.9644751 0.09098463 -0.24801171 
-0.62664783 -0.08116003 0.77506495 
-0.76683754 0.16148137 0.6211956 
0.23442891 0.4919713 0.8384553 
0.39829388 0.16595823 0.90211964 
-0.058435306 0.06784456 0.99598324 
-0.0061320607 0.9113349 0.41162014 
0.79975516 0.58159184 0.14880426 
0.474492 0.8097452 0.34521028 
0.8231628 -0.2581148 0.50574684 
0.763588 -0.16299969 0.62479156 
0.54943395 0.1363681 0.82433367 
-0.33622018 -0.24124733 0.9103603 
-0.86877733 0.18966769 0.45744076 
-0.5568828 0.52224094 0.6458684 
0.2438477 0.11481866 0.9629928 
-0.34839568 0.728084 0.59035087 
-0.68176246 0.60967654 0.4043445 
-0.12941669 0.1456587 0.98083377 
0.2603529 0.61277026 0.74614275 
0.48781067 0.6114499 0.62303275 
0.65988743 0.4578958 0.59571815 
0.2126188 0.96490014 -0.15414652 
0.3473658 0.7158844 0.6056787 
0.8160764 0.35906586 0.45286983 
0.35321248 0.70981467 0.6094294 
-0.60033244 0.7607776 0.24661392 
0.6996989 -0.13375072 0.70180637 
0.2657736 0.24917024 0.93127793 
-0.09123173 0.70996827 0.6982993 
-0.18887514 0.084754765 0.97833675 
0.08413888 0.14128762 0.98638666 
-0.25373176 -0.16819146 0.95253974 
-0.20298399 -0.79590106 0.570385 
-0.07924773 0.1917066 0.9782477 
0.048228823 0.5920206 0.8044785 
0.7439375 0.19792143 0.63826656 
0.24868678 0.15212071 0.9565638 
0.3436319 0.64644295 0.6811966 
0.36281595 0.49515733 0.78942 
0.054368615 -0.49653035 0.86631507 
-0.36039388 -0.25515231 0.89722544 
0.59751886 -0.5215456 0.60906607 
0.29864767 -0.37890163 0.8759242 
0.08847934 -0.20625903 0.974489 