# OOMMF: rectangular mesh v1.0
# Segment count: 1
# Begin: Segment
# Begin: Header
# Desc: Time (s) :  1.7799999999999977e-07
# Title: m
# meshtype: rectangular
# meshunit: m
# xbase: 2e-09
# ybase: 2e-09
# zbase: 5e-10
# xstepsize: 4e-09
# ystepsize: 4e-09
# zstepsize: 1e-09
# xmin: 0
# ymin: 0
# zmin: 0
# xmax: 1.024e-06
# ymax: 1.024e-06
# zmax: 1e-09
# xnodes: 256
# ynodes: 256
# znodes: 1
# ValueRangeMinMag: 1e-08
# ValueRangeMaxMag: 1
# valueunit: 
# valuemultiplier: 1
# End: Header
# Begin: Data Text
0.6565681 -0.71383965 -0.24362125 
0.78004384 -0.09457031 0.61853707 
0.7147055 -0.20048648 0.67007554 
0.4026844 0.3976275 0.8244622 
0.34493822 -0.13390356 0.9290251 
-0.12880675 0.51362765 0.8482897 
-0.27479845 0.8636467 0.42261127 
0.79997224 0.42787609 -0.420674 
0.58281994 0.8027714 0.12601192 
0.18607987 0.9693831 0.16022122 
0.6527082 0.7523114 0.089440696 
0.0528864 0.9149898 -0.39999583 
0.73326284 0.6764841 -0.06851964 
0.4904817 0.54238427 0.6820903 
-0.063391335 0.7442709 0.6648627 
0.045962602 0.72020465 0.69223756 
0.2183526 0.7573356 0.61543894 
0.5936451 0.7150049 0.3692607 
0.85099 0.40425348 0.3352541 
-0.014386803 0.7213839 0.69238585 
-0.15960224 0.8771379 -0.45294195 
-0.5494989 0.79584044 -0.25434068 
-0.32244962 0.9196611 -0.22416478 
-0.026350569 0.4002836 -0.9160124 
0.25340858 0.057473533 -0.9656505 
0.5171177 0.8121411 0.27021495 
0.5256378 0.7768531 -0.34670502 
0.6597679 0.26969555 -0.70140624 
0.93088615 -0.059102863 0.36049685 
0.5159372 0.8565855 0.008372491 
0.2678972 0.7544438 0.5992042 
0.4749419 0.41527063 0.7758741 
-0.18067949 0.93165386 0.31523985 
0.2439024 -0.26559407 0.9327226 
0.94780403 0.3171435 0.03298082 
0.29388353 0.7616533 0.5775091 
0.9337198 0.08842604 0.34691244 
0.013651357 0.3781829 0.9256303 
0.12235996 0.29176173 0.94863224 
-0.9360241 -0.18481924 0.29950103 
-0.57131654 0.6794691 0.46034673 
-0.20764236 0.79707634 0.56705725 
0.08203251 0.5593061 0.82489234 
0.088573016 0.27765524 0.9565889 
-0.5025249 0.5037193 0.70266324 
0.3820196 0.37700823 0.843757 
0.4440572 0.41967753 0.79163367 
0.090059966 0.4541334 0.8863702 
-0.67719907 -0.16253698 0.7176233 
-0.9486003 -0.13241503 0.2874434 
-0.8319355 0.5486907 -0.08259426 
-0.52066934 0.85170937 -0.05911558 
-0.5963724 0.2964895 -0.74594504 
-0.784756 0.5698105 -0.24387302 
-0.8170693 0.33440438 -0.4696505 
-0.37215936 0.5737128 -0.729624 
-0.39574125 0.64417535 -0.65454346 
-0.80955195 0.014490351 -0.5868694 
-0.61837304 0.75423247 -0.22079012 
-0.21122311 0.7524413 -0.62387246 
-0.68094134 0.7322539 -0.01110198 
-0.20556861 0.9400684 0.2720532 
-0.37954888 0.6003712 0.7039156 
0.021107933 0.91180646 0.41007742 
0.108353466 0.88302165 0.45665348 
0.52411145 0.45010224 0.7229905 
0.639794 0.10332157 0.76156974 
0.56999654 0.24124177 0.7854339 
-0.31926352 0.5891302 0.74229133 
-0.45110086 0.85722303 0.24834803 
-0.67353976 0.6619776 0.32883114 
-0.7095624 0.60446 0.3621456 
-0.45234308 0.8165609 0.35862818 
-0.026771232 -0.08646012 0.99589556 
0.23646702 0.34219515 0.90938765 
0.4073945 0.76009154 0.50625163 
0.8124361 0.24579445 0.5287084 
-0.58968943 0.7600301 0.2731682 
-0.6476834 0.7419372 0.17330751 
-0.8606502 0.026530009 0.5085051 
-0.6589921 0.5868769 0.47043064 
-0.118799075 0.83760184 0.53320736 
0.17727041 0.5455421 0.819121 
0.1117168 0.9655759 0.23490968 
0.7603172 0.64139605 -0.10261115 
0.8498866 0.48438427 -0.20752059 
0.016214024 0.80973965 0.58656526 
0.5744342 0.4656577 0.6731926 
0.60339993 0.42065093 0.67746687 
0.62453413 0.21203458 0.7516639 
0.73417985 0.62602276 0.26282212 
0.082162164 0.9350682 0.3448142 
0.008296499 0.9002675 0.43525818 
0.30909386 0.91077334 0.27377552 
0.5055729 0.31497163 0.80323654 
0.72393733 0.41688338 0.54965717 
0.52435625 0.22803567 0.8203964 
0.55266297 0.6003584 0.57804275 
-0.57522726 -0.35949272 0.73476434 
-0.4834605 0.056055196 0.87356955 
-0.53190184 0.8330695 0.15190719 
-0.76826775 0.29607835 -0.56754065 
-0.42722932 0.83360577 -0.3501095 
-0.6430868 0.7459247 -0.17330816 
-0.24569711 0.9594552 -0.13812593 
0.57821965 0.7536109 0.3126224 
-0.55075306 0.29516792 0.7807349 
-0.5632434 0.8262616 -0.00698872 
0.3160066 0.80773944 0.4976915 
0.09331637 0.9955448 -0.013517222 
-0.007187022 0.8533765 0.5212454 
0.34460065 0.8680993 -0.35728723 
0.062544264 0.9960842 0.062487 
0.28999132 0.59665334 0.7482712 
0.5588972 0.097484805 0.8234869 
-0.48166242 0.3427668 0.8065434 
0.02754756 0.21453299 0.9763282 
-0.15674712 0.61089903 0.77603656 
-0.30822125 0.94363534 -0.12063176 
-0.077767454 0.35041943 0.9333588 
0.61365837 0.3743375 0.6951941 
0.26394984 0.7469987 0.61018306 
-0.0026681256 -0.48679945 0.8735097 
-0.34510028 -0.4006754 0.8487433 
-0.013781892 0.29198742 0.9563229 
-0.28483444 0.6624559 0.6928358 
-0.43497407 -0.20125069 0.877665 
-0.26072177 -0.15707995 0.9525493 
-0.71192014 0.5517145 0.43448922 
0.21044548 0.34088376 0.9162484 
0.6532772 0.598486 0.46372774 
-0.013811963 0.6230094 0.7820925 
0.2551116 0.6406483 0.7242154 
-0.42248243 0.38303128 0.8214595 
-0.9206301 0.3875089 0.047718555 
-0.42087075 0.8791707 -0.223443 
-0.6583575 0.7434161 -0.11788979 
0.088616945 0.9545882 0.28444415 
-0.6532634 0.7520089 -0.087917134 
0.25631115 0.8751077 0.41047683 
-0.16278863 0.9866479 -0.0050773816 
-0.17186233 0.9561806 -0.23702753 
0.21473105 0.24120931 0.9464189 
0.5962515 0.120457165 0.79370916 
0.48022118 0.81922084 0.3134724 
0.10441131 0.0733721 0.991824 
0.77299017 0.50690705 0.38148612 
0.76480323 0.5707559 0.29885432 
0.39929032 0.23753454 0.8855195 
0.4102363 0.2704957 0.8709411 
-0.07160651 0.35028595 0.9339016 
-0.17661762 0.732364 0.65760875 
-0.60625786 0.7364115 0.30024922 
-0.19823834 0.43770146 0.8769943 
-0.17445946 0.919575 0.35205948 
0.32318065 0.9269859 0.19039795 
0.46367362 0.8467585 0.26078165 
0.47247687 0.8206002 0.32152894 
0.79117304 0.60576504 0.08422615 
0.60045475 0.7699524 0.2159342 
-0.25555587 0.945495 0.20181765 
-0.55170894 0.31086835 -0.77393675 
-0.5867417 0.559553 -0.58535004 
-0.25580567 0.73103917 -0.6325703 
-0.45313552 0.8905471 0.03992495 
-0.47831354 0.6259461 0.61596084 
-0.22510792 0.8045873 -0.54951406 
-0.5733265 0.5333092 -0.6219953 
-0.09642554 0.69168395 -0.7157342 
0.19509976 0.7572931 -0.6232521 
0.18013442 0.21520166 -0.9598124 
0.50736326 0.68544066 -0.5222582 
0.5513964 0.82631767 0.11472217 
0.82959515 0.5193176 0.20513706 
0.37808856 0.80700433 0.45364437 
0.96428204 0.13676459 0.22683866 
0.79246646 0.4325534 0.4299936 
-0.029434565 0.6962129 0.7172317 
-0.49158582 0.8707258 -0.013423381 
-0.021406414 0.9622277 -0.27140328 
-0.45914063 0.85040426 0.25690973 
-0.35993472 -0.19524801 0.91231865 
-0.2102462 0.10164989 0.9723497 
-0.8091769 0.10831112 0.5774958 
-0.52410704 0.004455971 -0.8516409 
-0.18021807 0.44748628 -0.87594384 
-0.055880167 0.45906562 -0.8866433 
0.5113946 0.28749654 -0.8098279 
0.83173627 0.19924358 -0.5181862 
0.48426586 0.86594135 -0.1250293 
-0.09637134 0.81362456 0.5733478 
-0.17291738 0.9831393 -0.059471704 
-0.06939359 0.9065323 0.41639376 
0.266505 0.34950927 0.8982307 
-0.6891244 0.69891876 -0.19136405 
-0.40673536 0.9129351 -0.03340689 
-0.7200759 0.66358304 0.20285031 
-0.05162527 0.45067474 0.8911943 
-0.375336 0.7979309 0.47162405 
-0.08344495 0.49256393 0.8662666 
-0.095693536 0.94867843 0.30141678 
-0.58475643 0.28246635 0.7604425 
-0.6009932 0.52320004 0.6042094 
-0.73970807 0.6697426 0.06539829 
-0.34523115 0.8917753 -0.2924933 
-0.897518 0.42892778 0.1023843 
-0.32649255 0.90211445 -0.28212082 
0.83676374 0.4954296 -0.23318675 
0.55636007 0.3541859 0.7516755 
0.84317106 0.22562039 0.48801458 
0.18846425 0.80653995 0.5603343 
-0.35829204 0.33091846 0.8729948 
-0.2313223 0.65803653 0.71657383 
0.7763597 0.18828605 0.60150987 
0.13915269 -0.5490749 0.8241076 
0.14010507 -0.0196274 0.9899421 
0.13084607 0.6377221 0.75907177 
0.1063611 0.83203447 0.54443187 
-0.213135 0.5685597 0.7945523 
-0.17436184 0.44657078 0.8775947 
-0.23682047 0.27647758 0.9313841 
-0.86193436 0.4499444 0.23370783 
-0.7821845 0.6175674 -0.08244986 
-0.9811512 0.04694509 0.1874528 
-0.5871225 -0.12038242 0.8004969 
-0.4657019 0.794477 0.38977954 
-0.22517388 0.8891958 0.39828074 
-0.34626317 0.58368355 0.7344491 
0.6194466 -0.035844773 0.7842201 
-0.010827484 -0.036088344 0.99929 
0.335808 0.6669068 0.665183 
-0.20873265 0.96060157 -0.18350856 
0.44436157 0.54939914 0.70760405 
0.42502388 0.36842492 0.82681185 
-0.7304027 0.677628 0.085628904 
0.067706145 0.82629573 0.55915236 
-0.40053913 0.7512834 -0.5245395 
-0.891216 0.29125202 -0.34771594 
-0.58530754 -0.41421562 -0.6970226 
-0.3164381 -0.4646807 -0.82700604 
0.1668614 -0.018785715 -0.9858014 
0.3534324 0.14441842 -0.924245 
-0.28619328 0.05367585 -0.95666736 
-0.3005014 0.12559763 -0.94547564 
0.5173188 0.38653785 -0.7635246 
0.10815869 0.31852582 -0.9417235 
0.810346 -0.11273273 -0.57500494 
0.88062847 0.4674351 0.077447094 
0.8905742 0.43125993 0.14454252 
0.054737207 0.78770864 0.6136115 
-0.61705303 0.36901265 0.6950362 
-0.6222912 0.17106089 0.7638665 
0.14035092 0.06589494 0.9879067 
-0.90863824 -0.052553922 0.414264 
-0.611086 0.2976493 0.73347044 
-0.4841291 -0.36395976 0.79570866 
0.78509504 -0.60520214 -0.13174312 
0.62823707 -0.021617698 0.7777216 
0.4672655 0.32052505 0.82397 
-0.049374912 0.60586244 0.7940359 
0.18497834 0.08659815 0.9789197 
0.1272251 0.46707416 0.8750174 
0.37686872 0.5347902 0.75628656 
0.82925904 0.42504966 0.36285293 
0.48239246 0.7796363 0.3993304 
-0.16105033 0.9475484 0.2760706 
0.45859158 0.78600144 0.41460297 
0.4287317 0.8600985 0.27644145 
-0.28083414 0.75690085 0.590113 
0.73178893 0.40086243 0.5511755 
0.54887706 0.7187487 0.42677197 
0.33158973 0.7904235 0.5150524 
0.02075509 0.4168307 0.9087472 
0.86274964 0.49134734 -0.11933539 
0.9729993 0.14409351 0.18030432 
-0.25054073 0.39178503 0.8852874 
-0.28247273 0.9583134 -0.04295044 
-0.20469053 0.9570596 -0.20527713 
-0.026088146 0.9737493 -0.22612345 
0.54780173 0.835534 -0.042383343 
0.6486109 0.7531636 -0.10976659 
0.5936568 0.78589123 0.17305109 
0.59689623 0.7866095 -0.15798913 
-0.26800993 0.95956373 0.086071156 
-0.042034715 0.31585434 0.94787616 
0.090761274 0.8732231 0.4787942 
0.51651835 0.6292377 0.5807485 
0.7854584 0.24656075 0.56768215 
0.16771807 0.72277665 0.6704212 
-0.11436911 0.20651181 0.97173697 
0.26729703 -0.31855586 0.9094364 
-0.1694369 0.63312393 0.75527835 
-0.17451505 0.59906745 0.7814492 
0.43957397 0.3430158 0.83012944 
0.4059198 0.512413 0.7567444 
-0.14237392 0.65485555 0.74222225 
-0.64359665 0.41895604 0.6405148 
0.40226427 0.8422483 0.35888878 
0.6379715 0.20814542 0.74139583 
0.74918526 0.23195685 0.62041724 
0.28497356 0.7686774 0.5726474 
0.24776219 0.18316159 0.95134944 
-0.3313742 0.18368573 0.9254463 
-0.63845104 0.13273399 0.7581306 
-0.50625354 -0.80599594 0.30672163 
-0.8238617 -0.51887393 0.2280828 
-0.467539 0.7818762 0.41240388 
-0.16961181 0.9618804 0.21451837 
-0.34351194 0.91231173 0.22290565 
-0.44118762 0.8953313 0.06111735 
-0.39642745 0.8507235 -0.3451301 
-0.21417049 0.49734828 -0.8406995 
0.12425894 0.64755636 -0.7518181 
0.30810392 0.9317163 0.19229333 
0.43119556 0.81032294 -0.39679635 
0.9002157 0.42360002 0.10086953 
0.3714176 0.8895128 0.2661129 
-0.48706686 0.70140034 0.5203878 
-0.07520762 0.4376035 0.8960174 
0.39325428 0.7714486 0.5002181 
-0.12375028 0.8212658 0.55696356 
0.38092226 -0.17780074 0.9073507 
0.75942236 -0.0037019693 0.65058744 
-0.113219835 0.23713252 0.9648572 
-0.3016996 -0.28714263 0.9091351 
-0.6072952 0.16658773 0.77681476 
-0.3162652 0.93117964 -0.18133064 
-0.2104584 0.87924516 0.42735842 
-0.22283518 0.77048665 0.5972393 
0.13841537 0.3022908 0.9431127 
0.023891326 -0.21620844 0.9760549 
0.659151 -0.27883682 0.6984054 
0.3303205 -0.036821876 0.9431503 
-0.41559285 0.43464795 0.7989768 
-0.17269573 0.90666056 0.38489336 
-0.34017897 -0.19527666 0.91986156 
-0.5200121 0.46391606 0.7171956 
-0.21743096 0.5177995 0.82741004 
-0.60338664 0.62796664 0.4915104 
-0.5461428 0.77713233 0.31271952 
0.6031494 0.49541518 -0.62511975 
0.4468529 0.86919475 0.21171458 
0.49237204 0.7425955 0.45400634 
0.55692005 0.1725635 0.81244195 
-0.12347885 -0.0335013 0.9917816 
0.3989114 -0.0847058 0.9130688 
0.2537633 0.55810374 0.7900156 
-0.4391711 0.8131749 0.38193637 
-0.6492684 0.7585667 -0.055020694 
0.36027244 0.36594558 0.8580721 
0.17234968 0.5932699 0.7863374 
0.3493037 -0.037735965 0.93624943 
-0.04786602 -0.1912954 0.98036474 
0.18342233 -0.11141877 0.9766996 
0.64894146 -0.12175516 0.75103307 
0.35475072 -0.06399874 0.932768 
-0.17146778 0.6325546 0.75529695 
-0.19762914 0.9622123 -0.18732393 
-0.36984053 0.9238552 0.09853766 
-0.6162232 0.7874224 0.015324798 
0.4573797 0.838299 0.29674703 
-0.39967144 0.5991016 0.6937868 
-0.4421557 0.86904424 0.22194728 
-0.65405315 0.75633496 -0.0131155625 
0.70210236 0.6389124 0.31439364 
-0.18196845 0.97939426 0.08760342 
-0.34371114 0.1445309 0.9278866 
-0.06538199 0.763856 0.6420664 
-0.4268552 0.79774046 0.42591637 
-0.19684225 -0.16991684 0.96559906 
-0.38239744 -0.014390176 0.92388594 
-0.5960181 0.4373741 0.6733991 
-0.18006204 0.83133125 0.52580047 
0.21944581 0.4193362 0.8809091 
-0.012544548 0.32990488 0.94393086 
0.72895163 -0.14453512 0.6691332 
0.51616526 -0.4037597 0.7553488 
0.5999346 0.6304255 0.49258727 
0.48399147 0.13765799 0.8641774 
-0.5350475 -0.40817937 0.7396714 
-0.41704217 0.067663446 0.90636504 
-0.20695601 0.39428645 0.8953813 
-0.49769875 -0.16201785 0.85208344 
-0.75353116 0.38803083 0.53068167 
-0.25804102 0.18545017 0.9481683 
-0.33716545 0.39374614 0.8551512 
-0.573726 0.7231433 0.38458076 
-0.23283394 0.63339055 0.7379735 
-0.41385028 -0.059016533 0.9084299 
-0.32035255 0.30743447 0.8960237 
0.44886333 0.55108106 0.70344263 
0.60949254 0.33201775 0.71991885 
-0.35155404 0.9300479 0.106867366 
0.65921193 0.75135124 0.030179966 
0.12038551 0.8336899 0.5389514 
-0.51232934 0.4662585 0.7211947 
-0.2297853 0.9418338 0.24525073 
0.67950785 0.7155913 -0.16185871 
0.5556096 0.4994343 0.6647281 
0.44216844 0.5920162 0.67379814 
-0.03969574 0.8236832 0.5656591 
-0.5788828 0.51418537 0.6328571 
-0.35803428 0.5889939 0.7244982 
-0.08584662 0.84890395 0.5215291 
0.6425235 0.5374997 0.54612976 
0.16027188 0.68452066 0.71115714 
-0.24232087 -0.161535 0.95665413 
-0.10171413 0.3536013 0.9298497 
-0.14587185 0.07286672 0.9866164 
0.5415316 0.011681062 0.84059924 
0.6763327 -0.5554255 0.48381466 
0.6522889 0.043863937 0.7567002 
0.16393036 0.41362166 0.89556915 
0.4747502 0.43823737 0.7632564 
0.48373303 0.83129615 0.27376828 
0.51582086 0.66103554 0.54494125 
0.25304815 0.84568465 0.4698768 
-0.8550737 0.41008464 -0.31730077 
-0.7569037 0.6399171 0.13267577 
-0.5719065 0.7958915 -0.19869463 
-0.6751084 0.5425642 -0.49985287 
-0.17191114 0.827831 -0.5339873 
0.4519437 0.89190227 0.016039249 
-0.3898612 0.89020914 0.23566078 
0.18137938 0.96597934 0.18435133 
0.028418975 0.7169914 -0.6965025 
0.13113742 0.83670324 -0.53172445 
0.48136812 0.55519253 -0.67826694 
0.8985973 0.43304554 0.07067268 
0.59118766 0.71205527 0.37878034 
0.5251702 0.7611521 0.38058347 
0.0809019 0.58138674 0.8095952 
-0.4745946 0.5130612 0.715212 
-0.19693603 0.9755977 0.097084925 
-0.3657504 0.9268934 -0.084233835 
-0.8104571 0.5453144 0.21398968 
-0.9211186 0.28243226 -0.2679041 
-0.7328853 0.66108525 0.16076541 
-0.93007004 0.3326258 -0.15598017 
-0.7799923 0.05020532 -0.6237721 
0.43235254 0.4375443 -0.7884328 
0.22196722 0.93548125 -0.27496472 
0.22685023 0.84581333 -0.48284456 
0.24237582 0.41543493 -0.87673706 
0.9521306 0.17746517 -0.24890488 
0.247195 0.86615527 0.43436143 
0.47017306 0.6581722 0.58800226 
0.26423547 0.9260045 0.26962066 
0.30958825 0.91073895 0.2733308 
-0.123129584 -0.14046037 0.9824001 
0.35122308 0.037949324 0.93552244 
0.5120741 0.77236545 0.3758081 
-0.33179218 0.6075142 0.7216928 
0.17992842 0.62011164 0.76360154 
0.08633564 0.81653243 0.57080734 
0.3976893 0.77483237 0.49140418 
-0.29610506 0.8392196 0.45610556 
-0.60060644 0.5263108 0.60188776 
-0.42993665 0.7022724 0.5674223 
-0.33624366 0.94132537 -0.029101534 
-0.48855034 0.8423602 0.22748187 
0.3886047 0.92060935 0.038274318 
0.4059834 0.9129324 0.04161644 
-0.15906182 0.8400955 0.51859325 
0.5359984 0.6843763 0.49430248 
0.59846705 -0.17976584 0.78071856 
0.17950457 0.06516931 0.98159623 
-0.6111578 -0.10482397 0.78453696 
0.04048417 0.6705628 0.74074733 
-0.08309044 0.2978197 0.9509992 
0.5303903 -0.323025 0.7837991 
0.5302645 0.035251502 0.8470991 
0.17212611 0.04513759 0.98404026 
-0.3249422 0.093273595 0.94112307 
-0.0697179 0.19242024 0.97883296 
-0.7557383 -0.070104286 0.6511106 
-0.13938181 -0.031730704 0.9897302 
-0.40872633 0.5271284 0.7450359 
-0.2943463 0.5815934 0.7583597 
-0.7562761 0.6389803 0.14053702 
-0.5056517 0.3827864 0.77316946 
-0.270178 0.9617485 -0.045207594 
0.3686698 0.9287102 0.03974841 
0.19810273 0.835853 0.51196223 
0.67963165 0.2780113 0.6788303 
0.44282722 0.10855218 0.8900116 
-0.52920294 0.48390758 0.69697756 
-0.07640821 0.90555173 0.41729835 
-0.14859414 0.9848308 -0.08959928 
-0.33582473 0.7092241 0.6198572 
-0.77814215 0.6278007 -0.019001786 
-0.5133667 0.29108325 0.8072951 
-0.8556209 0.18269877 -0.48428726 
-0.6645366 0.47617596 -0.57588845 
0.21057792 -0.25630024 -0.9433807 
0.18545449 0.6041241 -0.7750102 
-0.057279665 0.34239826 -0.9378073 
0.06296092 0.67925 -0.7312014 
-0.6024881 0.7168816 -0.35084042 
-0.048356105 0.8249315 -0.56316066 
0.4276112 0.39255434 -0.8142786 
0.49961028 0.45245877 -0.7386953 
0.98517156 -0.07121232 -0.15609564 
0.83267766 -0.17373943 0.525797 
0.91109544 0.00051847723 0.4121954 
0.8623382 0.43922827 0.25189587 
0.31619772 0.5570647 0.76791793 
-0.1503816 0.52322286 0.8388225 
-0.34316486 0.06607685 0.9369481 
-0.8850835 -0.100618266 0.45442623 
-0.2351744 -0.02485362 0.97163546 
-0.38491577 0.5075276 0.7708799 
0.2096525 -0.43617702 0.8750975 
0.83076894 -0.45683175 0.31800595 
-0.07795956 -0.01992573 0.99675745 
-0.7763074 0.081189714 0.6251042 
0.0980758 0.2500978 0.9632405 
0.040133864 0.6149985 0.78750634 
-0.3221448 -0.089508586 0.94244945 
0.31550062 0.6321686 0.707688 
0.6985549 0.5474255 0.46081063 
-0.039448604 0.5005469 0.8648102 
0.48010278 0.44441614 0.75630397 
0.34496486 0.59303373 0.7275371 
0.029886676 0.615002 0.787959 
-0.1127598 0.7634974 0.63589066 
0.4256411 0.879753 0.211812 
0.0037812747 0.21809742 0.97591966 
-0.41470876 -0.48758724 0.7682938 
0.369599 0.26485747 0.8906442 
0.82360876 0.21206471 0.5260202 
0.23796523 0.55272937 0.7986632 
-0.05487076 0.74769807 0.661768 
-0.60263073 0.5883669 0.53912956 
0.2554431 0.9041854 0.34234127 
0.07729459 0.5536809 0.8291339 
0.6833411 0.444717 0.57902664 
-0.047715973 0.611687 0.7896596 
0.04449437 0.43414217 0.899745 
0.3711535 0.8664882 0.33383134 
0.6280741 0.23660599 0.7413101 
0.71649295 0.41619876 0.5598362 
0.8514814 0.45006526 0.2691109 
0.74514115 0.5471497 0.38130292 
0.6859489 0.14051534 0.7139535 
0.33759573 0.24841309 0.9079208 
0.20611322 0.07032741 0.9759976 
-0.027961189 0.7127301 0.7008809 
-0.44015738 0.13724896 0.88736933 
-0.49402642 0.18848553 0.8487704 
0.0922427 0.78573763 0.61164355 
0.2141482 0.83389544 0.50868356 
0.041074593 0.75581634 0.6534942 
-0.22212619 0.9745385 0.03057359 
0.44296592 0.5906785 0.67444813 
0.4685496 0.5651552 0.6790147 
0.3740268 0.43787864 0.8175367 
-0.22418025 0.17325406 0.95902365 
-0.8018394 -0.1785591 0.57023704 
-0.7409098 -0.124568805 0.659951 
-0.70483303 -0.20113383 0.6802614 
-0.7553347 0.24551083 0.60761344 
-0.78733826 0.3160632 0.52934164 
-0.4639671 0.8613383 -0.2069562 
-0.8549375 0.43236518 0.28660455 
-0.71062 0.6788908 0.18473378 
-0.60717976 0.79175115 0.06680611 
-0.55391026 0.7569599 -0.34669155 
-0.22548787 0.95769584 -0.17881249 
-0.007124203 0.9922375 -0.12415312 
0.17056686 0.9121511 0.3726758 
0.8365081 0.37339324 -0.40103823 
0.4502527 0.7932806 0.40985182 
-0.13665922 0.66400844 0.7351307 
-0.51932395 0.61746234 0.5907985 
0.42927408 0.90310675 0.011047384 
0.25021097 0.119819134 0.9607487 
-0.03909439 0.12883519 0.9908952 
0.417395 0.19990471 0.88646466 
0.3210748 -0.017134093 0.94689894 
0.41041687 0.29634622 0.8624018 
-0.18936822 -0.34963146 0.9175498 
-0.23614594 0.33942872 0.91050714 
-0.26130843 0.4272812 0.8655338 
0.32688454 0.74465513 0.5819237 
0.06796746 -0.055755585 0.99612844 
0.1231842 0.1282645 0.98405993 
-0.030309532 0.13313052 0.9906349 
0.39525476 -0.05969068 0.91663015 
0.21582752 0.5792191 0.7860813 
-0.11863234 0.662978 0.73917973 
-0.4714222 0.3233106 0.8205069 
-0.46650895 0.71290296 0.52358264 
-0.15929419 -0.2273778 0.9606898 
-0.69170225 0.01172974 0.72208756 
0.08755914 -0.02734645 0.995784 
0.7493894 0.5918695 0.29682663 
0.10271864 0.7515795 0.6515958 
-0.6926276 0.5835564 0.42394453 
-0.089636475 -0.29964104 0.9498319 
0.4035092 -0.41808712 0.8138695 
-0.13894962 -0.042381175 0.9893922 
-0.12113878 0.9359009 0.33077928 
0.07803732 0.9364202 0.34209257 
-0.37309778 0.9107718 0.17689806 
0.20969698 0.16730566 0.96334624 
0.051025398 -0.49354127 0.86822426 
0.7174948 0.02429285 0.69614017 
0.34314275 -0.11175513 0.9326113 
0.0060242536 -0.2364402 0.97162735 
0.7299127 0.2045425 0.65221924 
0.5905323 0.43144897 0.6819996 
0.36183003 0.21663451 0.90672415 
0.25607163 0.44845343 0.85633934 
-0.02974853 -0.01878573 0.9993809 
0.24499768 0.79807407 0.5505034 
0.10044145 0.49658892 0.86215496 
-0.3143483 0.15474619 0.93661034 
-0.6342398 0.24658856 0.73275787 
-0.99724126 -0.055464823 0.049330663 
0.07408031 0.54382473 0.8359228 
-0.31997833 -0.05524249 0.945813 
-0.035949986 0.7905667 0.61131996 
-0.5396957 0.25503674 0.80229986 
-0.28239128 0.664804 0.69158584 
-0.63405234 0.68645847 0.35602316 
-0.46038377 0.87833 0.12877625 
-0.51942784 0.36165684 0.7742087 
0.6893594 0.5534221 0.4674479 
0.76095337 0.4039335 0.507728 
0.6725766 0.7076144 0.21661644 
0.9847357 -0.008491253 -0.1738488 
0.4400725 -0.36978814 0.81828666 
0.48228735 0.34422764 0.80554724 
0.031967577 -0.030613968 0.99902 
0.48866576 -0.19790125 0.84973 
0.31355894 -0.2008784 0.92807794 
0.51666087 0.6585777 0.547117 
0.19708888 0.006818671 0.98036194 
-0.7859572 0.13517283 0.6033238 
-0.07578564 0.70763737 0.7024998 
-0.016509512 -0.052048665 0.99850816 
0.33916482 0.8570901 0.38776758 
0.0018010709 0.42070532 0.90719557 
-0.5977762 0.049870085 0.8001104 
-0.120009355 0.18483418 0.9754148 
-0.053211737 0.029641502 0.99814326 
-0.17585137 0.45464614 0.87313986 
0.6122626 0.22637299 0.7575551 
0.048607204 0.37089676 0.9274012 
-0.26590487 0.65286607 0.7092677 
-0.48171413 0.27857146 0.8308727 
-0.14536594 0.011187126 0.9893148 
-0.663739 0.49155393 0.56376 
0.08977472 0.5211585 0.8487252 
0.27027613 0.7998805 0.5358564 
0.1690595 0.11107699 0.9793267 
-0.054243896 0.42521325 0.9034662 
-0.14390168 0.33391482 0.9315542 
-0.5291712 0.5727408 0.6260557 
0.40940621 0.6384295 0.65176255 
-0.025196778 0.5058327 0.86226356 
-0.052332252 -0.19221507 0.9799565 
-0.31781098 0.23179471 0.9193843 
-0.17995782 -0.5187462 0.83577365 
0.50706524 0.021842072 0.86163086 
0.58200467 -0.42302424 0.6944935 
0.61298937 -0.62357867 0.48517403 
0.70178837 -0.065605804 0.7093582 
0.7423067 0.59955764 0.29918477 
0.8283523 0.49525973 0.26182148 
0.19020666 0.5781377 0.7934598 
-0.50108665 0.80019766 0.32953894 
-0.50579536 0.7891148 0.3485242 
-0.26544508 0.94416296 -0.19517985 
0.054595068 0.9975343 -0.044101104 
-0.17804919 0.9789253 0.10001928 
-0.5902865 0.78456074 0.18980601 
-0.21444727 0.96429837 0.15537442 
0.46656534 0.6736007 0.5732181 
0.024035962 0.89647305 0.44244587 
0.033678487 0.9832641 -0.17904668 
-0.34649682 0.921369 -0.17612255 
0.12732674 0.9091442 -0.39654094 
0.3841839 0.784945 0.48606998 
-0.32118908 0.8366826 0.4436214 
-0.2583786 0.760748 0.5954017 
-0.39391908 0.43794712 0.8081028 
-0.43992576 0.09620802 0.89286584 
-0.8797838 0.4734339 -0.042904027 
-0.50180465 0.8537289 0.13906479 
-0.047612872 0.6523661 0.756407 
-0.36387116 0.63432306 0.6820793 
-0.6436146 0.7383089 0.20164378 
-0.6745154 0.6616219 -0.32754457 
-0.36022586 0.78818375 -0.4990028 
0.30483693 0.95198894 -0.028134568 
-0.11991636 0.8355494 -0.5361691 
0.64030075 0.4915064 -0.5902851 
0.719614 0.47491634 -0.50656694 
0.9762765 0.104468636 -0.18965897 
0.7254312 0.057347134 0.6859016 
0.55105555 0.8101595 0.19994818 
0.17972659 0.15349355 0.97166777 
0.4722942 0.10682834 0.8749434 
0.70080775 0.03366214 0.7125556 
0.33847305 0.89357716 0.2948828 
0.4978812 0.6668629 0.55444413 
-0.41012436 0.30342865 0.860075 
0.050905377 0.8188826 0.5716994 
-0.37973836 0.83983886 0.3879039 
-0.30801642 0.5049178 0.80633986 
-0.25585246 0.3541033 0.8995279 
-0.33228216 0.9268703 0.17464285 
-0.5234809 0.7771299 0.34933776 
0.13319536 0.9801052 0.14714871 
0.49413404 0.7317596 0.46942464 
0.6057066 0.74506694 0.2792756 
-0.30348337 0.75505614 0.58119535 
-0.023727793 0.574698 0.8180216 
0.06628908 0.17425996 0.9824659 
-0.2712842 -0.3123722 0.9104003 
-0.35894844 -0.33516267 0.871104 
0.13278408 -0.10393578 0.9856804 
0.44675416 -0.30373695 0.8415193 
0.27434877 0.680254 0.67969644 
0.8195424 0.1503057 0.55295444 
0.23884483 -0.509309 0.8267754 
0.049339294 0.45690626 0.8881454 
0.0051987283 0.15606593 0.98773307 
-0.3487724 -0.17638618 0.92045957 
-0.6770725 -0.030939568 0.7352657 
0.060644377 -0.87829524 0.47425708 
-0.7988722 0.29962534 0.52156293 
-0.75504553 0.36482206 0.5448038 
-0.5175849 0.79498655 0.31638968 
-0.46418372 0.40209585 0.78921 
0.08071929 0.92062753 0.3820072 
0.47886422 0.2657362 0.83670384 
0.12667064 0.5807237 0.8041857 
0.016162043 0.66198146 0.749346 
-0.15867066 0.6103733 0.7760594 
-0.8889678 0.44012815 0.12658426 
-0.14471252 0.9410418 0.30577534 
-0.5335589 0.5733804 0.6217314 
-0.5411626 0.6922841 0.4773738 
-0.6806267 0.501728 0.5338692 
-0.23398215 0.69013715 0.6848088 
-0.40876818 0.9111678 0.05178709 
-0.07650872 0.9896211 0.121641204 
-0.025370857 0.99953806 -0.016735584 
-0.09133289 0.46909446 0.8784126 
-0.34513476 0.5400802 0.7675906 
-0.042867936 0.83151203 0.55385035 
-0.20214564 0.93058276 -0.30520976 
-0.56726843 0.56256056 -0.60144174 
-0.9511244 0.22896329 -0.20721512 
-0.26987 0.4372856 -0.8578762 
0.72160244 0.67854494 -0.13735649 
0.88600355 0.37148836 -0.27747834 
0.86319 0.43518567 0.2559621 
0.9702682 0.1392805 0.19794111 
0.5241208 0.5634955 0.6385689 
0.25207373 0.23507121 0.9387228 
-0.5230558 0.13541527 0.84147215 
-0.33732283 -0.23030762 0.91278243 
0.4703091 0.06140471 0.8803629 
-0.1666442 0.4619746 0.8710965 
0.75600535 -0.14759734 0.63770765 
0.14695634 -0.7590461 0.63423413 
-0.67108756 -0.48054045 0.56455505 
-0.72624856 -0.35510346 0.5886125 
0.25527954 -0.46573928 0.8473011 
0.513191 -0.7175305 0.4709407 
0.6944305 0.22420532 0.6837386 
0.63781315 0.44677967 0.6273615 
0.1344581 0.33154732 0.933808 
0.26132464 0.24769364 0.93292946 
0.3075931 -0.42479274 0.8514326 
0.33781824 0.24000292 0.9100976 
0.21801564 0.03183046 0.9754261 
0.27748442 -0.15328817 0.94842255 
0.37622583 0.26080748 0.8890633 
-0.11000783 0.19735959 0.9741394 
-0.9432876 0.32711655 0.05659805 
-0.5197169 0.3787044 0.765818 
0.3049658 0.84908026 0.43134502 
0.14672376 0.45107684 0.88034195 
0.009539735 0.049282406 0.99873936 
-0.10111829 -0.04881042 0.99367636 
0.6621772 0.048309922 0.7477885 
0.7090358 0.3786867 0.5948652 
0.10344092 -0.46681488 0.8782846 
0.028684119 -0.18496235 0.982327 
0.29873174 0.041847985 0.95341915 
0.5675521 0.21554759 0.79462194 
0.14115466 -0.32893273 0.9337445 
0.1956761 -0.20036054 0.9599826 
-0.16457704 0.48904887 0.85658956 
-0.20509532 0.8143417 0.5429397 
0.6448702 -0.34392452 0.6825382 
0.04095915 0.04724579 0.9980432 
0.120527305 0.25641036 0.959024 
0.3010796 0.57548773 0.7603717 
0.68909806 0.46434328 0.5563535 
-0.24019939 -0.14634918 0.9596282 
0.12166132 0.9056443 0.40621033 
0.078256726 0.65277123 0.75350237 
-0.3614312 0.932053 0.025393216 
0.41389772 0.35192165 0.8395474 
-0.116649404 0.55121964 0.82616574 
0.48489693 0.4728978 0.735692 
-0.049768433 0.36611855 0.9292365 
-0.46608374 -0.17914532 0.86641395 
-0.3635118 -0.0022672028 0.93158686 
-0.7555106 0.06731771 0.6516687 
-0.5985875 0.14918542 0.7870431 
-0.31689945 -0.080206625 0.94506174 
0.38987875 0.14551388 0.9092966 
-0.3125251 0.8555036 0.41284597 
-0.65006655 0.57828134 0.49295464 
-0.70371336 0.7043906 0.09285166 
-0.285899 0.8756603 0.38920546 
0.08989754 0.565928 0.819539 
-0.020355357 0.73862207 0.6738124 
-0.4520398 0.6209176 0.64040726 
-0.7662128 0.33919993 0.5457669 
-0.09187619 0.07862647 0.9926615 
-0.14336222 0.4985801 0.8549065 
-0.11560527 0.47715324 0.8711833 
-0.58767503 0.31365806 0.7458262 
0.20948765 0.8628611 0.45998466 
0.92981064 0.10438182 0.35292608 
0.039254557 -0.19478217 0.9800607 
-0.20682167 0.41615486 0.88546026 
0.38142613 0.09404495 0.9196031 
-0.07415739 -0.20121858 0.9767353 
-0.34668392 -0.062888235 0.9358714 
-0.5092141 0.7086269 0.48841485 
-0.79490614 0.60152084 0.07935351 
-0.5686318 0.7136466 0.4091044 
0.5868086 -0.082636595 0.805498 
-0.13784528 0.4454061 0.8846536 
0.31749058 0.41468683 0.8527806 
-0.13898425 -0.30401015 0.9424762 
-0.66128355 0.2206724 0.7169434 
0.16907597 0.33771768 0.9259374 
0.15829991 0.27742055 0.9476176 
0.08428654 0.28553578 0.95465446 
0.41104025 -0.20568568 0.88811004 
0.5223765 0.33861452 0.78260016 
0.0127537 -0.08113078 0.9966219 
0.48675925 0.25902066 0.8342504 
0.31208992 0.65683216 0.68641925 
-0.7956605 -0.203782 0.57043606 
-0.695764 -0.4353228 0.57132006 
-0.08356778 -0.7655874 0.6378812 
-0.27473325 -0.27989823 0.9198797 
-0.011755379 0.48469815 0.8746026 
0.12194193 0.9236658 0.36327922 
0.3838945 0.78580946 0.4849005 
0.38258746 0.21117027 0.8994632 
0.40246102 0.0036824676 0.91542983 
0.6517318 0.5052366 0.5656693 
0.4450602 -0.4140728 0.7940184 
0.15990722 -0.16838816 0.972664 
0.69794464 -0.45756713 0.55091345 
0.34012395 -0.5051349 0.7931926 
0.32954848 -0.21229057 0.9199622 
-0.027336784 -0.16732177 0.98552334 
-0.33106196 -0.06668235 0.9412499 
-0.28280908 0.8413544 0.46058843 
-0.76065224 0.059145525 0.6464597 
-0.62649536 -0.38430408 0.6780959 