# OOMMF: rectangular mesh v1.0
# Segment count: 1
# Begin: Segment
# Begin: Header
# Desc: Time (s) :  1.8399999999999974e-07
# Title: m
# meshtype: rectangular
# meshunit: m
# xbase: 2e-09
# ybase: 2e-09
# zbase: 5e-10
# xstepsize: 4e-09
# ystepsize: 4e-09
# zstepsize: 1e-09
# xmin: 0
# ymin: 0
# zmin: 0
# xmax: 1.024e-06
# ymax: 1.024e-06
# zmax: 1e-09
# xnodes: 256
# ynodes: 256
# znodes: 1
# ValueRangeMinMag: 1e-08
# ValueRangeMaxMag: 1
# valueunit: 
# valuemultiplier: 1
# End: Header
# Begin: Data Text
-0.038649667 -0.99098057 0.1283116 
0.29669186 0.064779505 0.9527737 
-0.27098584 0.80675447 0.5250848 
-0.57982546 0.812638 0.058497794 
-0.3664754 0.9197761 0.14038455 
-0.17095144 -0.16030878 0.9721506 
0.0475579 0.6499201 0.75851315 
-0.049960263 0.5991286 0.79909265 
-0.5157408 0.37480095 0.7704127 
-0.1436695 0.7016002 0.69793713 
0.094040684 0.9065739 0.41143653 
0.62091184 0.77118653 -0.14049877 
-0.8574972 0.5029315 -0.108436994 
-0.21806014 0.9469063 0.23625895 
0.602047 0.7386578 0.3031898 
0.52192026 0.4715508 0.71080184 
0.32354075 0.5505545 0.7695526 
-0.5581579 0.3183335 0.7662399 
0.24331748 -0.004914478 0.9699343 
-0.4953906 0.30954078 0.81164813 
0.19083314 -0.40811092 0.89276445 
-0.21927223 0.45546347 0.8628283 
0.311015 -0.48262596 0.8187442 
0.3126942 0.22558498 0.9226776 
0.79649705 0.52064794 0.30743828 
0.38586935 0.7590959 0.52428836 
0.5942612 0.70599586 0.38525766 
-0.75414604 0.6339039 -0.17155123 
-0.65129274 0.7121639 -0.26199317 
-0.041965183 0.5033756 -0.863048 
0.45337927 0.8661286 -0.21040103 
0.73433 0.66916066 -0.11394485 
0.6448634 -0.0956728 0.75828624 
0.64271945 0.53032064 0.552876 
-0.041974872 0.8553493 0.51634836 
-0.15306781 0.9246978 0.34857443 
0.24975325 0.88352156 -0.39624885 
0.35782573 0.63560736 0.68407905 
-0.3121075 0.04850794 0.94880766 
0.41819438 0.19236001 0.8877562 
-0.1110782 0.07306645 0.99112207 
-0.489259 0.24455293 0.8371496 
0.23756133 0.9581136 -0.15994734 
0.55877423 0.7875819 -0.25978085 
0.50788784 0.32762906 -0.7966864 
0.17251691 0.98494613 0.01091049 
0.8035101 0.35554639 0.4774498 
0.14946197 0.9022143 0.40456232 
0.34751266 0.5285603 0.7745056 
-0.13096008 0.2806174 0.9508436 
-0.39879265 0.6474035 0.64948684 
-0.7840528 -0.17907386 0.5943012 
-0.71822155 0.6704799 0.18604997 
-0.84089476 0.440577 -0.31430563 
0.3172066 0.033830885 -0.94775283 
0.08418955 0.22786243 -0.9700469 
-0.46336013 0.7721398 0.43485335 
-0.18144573 0.8131375 -0.55306864 
-0.37348613 0.75212157 0.54297453 
-0.7328547 0.20727915 0.64804274 
-0.42744544 -0.2094522 0.8794431 
-0.22203952 0.2628737 0.9389334 
-0.11107577 0.7480018 0.65433604 
-0.20333785 0.1895684 0.96058196 
-0.75755733 0.18065472 0.6272725 
-0.9692177 0.23535736 0.07227671 
-0.54772216 0.7520476 -0.36664024 
-0.058392853 0.71387875 0.6978305 
0.3115278 0.118265666 0.9428488 
0.21543904 0.49412844 0.8422726 
0.033934724 0.83426225 0.55032253 
0.3791848 0.80391735 0.45818767 
-0.33570054 0.7637563 0.5513453 
-0.0032043636 0.9932881 0.11562309 
0.48268753 0.5747926 0.660777 
0.2445379 0.9689412 -0.036798116 
0.15646376 0.98705435 -0.035256106 
0.32065704 0.4262918 -0.84584546 
0.2895567 0.5916858 -0.75237286 
0.27120095 0.95273644 -0.13690627 
0.29968816 0.9540055 -0.007781814 
0.21409178 0.8634884 0.45667544 
-0.14547035 0.780234 -0.60833657 
-0.9955625 -0.07615019 0.05528706 
-0.91433454 0.17194317 -0.36664435 
0.46849245 -0.105746396 -0.8771161 
0.57260084 -0.64779097 0.50248903 
0.47521174 -0.8554414 -0.20589818 
0.84714276 -0.34619907 -0.40310702 
-0.08925465 0.64923644 0.7553316 
0.15162972 0.9880735 0.02681905 
-0.5864523 0.69350696 -0.41847563 
0.2867713 0.40205956 -0.86954606 
0.0047225496 0.37141967 -0.9284531 
0.87103635 0.46852785 0.14757173 
-0.03289429 0.6896945 0.7233529 
0.18967812 0.77941936 0.5970995 
0.31472605 0.7622703 0.5655895 
0.16682628 0.64015275 0.7499157 
-0.0073903687 0.4755986 0.87963146 
-0.1535868 -0.20485198 0.96666795 
0.06804957 0.8515218 0.5198845 
0.4112277 0.6373944 0.651629 
0.543727 0.8250649 0.15371747 
0.5098665 0.7754232 -0.37249854 
0.4693803 -0.11960885 -0.8748577 
0.45262095 0.009018937 -0.8916574 
0.2773069 -0.8982906 -0.3408446 
0.5559721 -0.19644028 -0.80765474 
0.7845528 0.56192154 0.26214713 
0.38079286 0.32921594 0.8640681 
-0.13588282 0.8315077 0.53863806 
0.8865492 0.42874247 0.1738119 
0.535973 -0.15153727 0.8305236 
0.24658231 0.48061737 0.8415486 
-0.73554534 -0.354239 0.57748413 
-0.9505408 0.2745823 -0.14517854 
-0.8331931 0.52581936 -0.17118168 
0.20664406 0.9638835 -0.16800833 
-0.59442735 0.7375174 0.32050633 
-0.37096924 0.8701861 0.32428098 
0.3396949 0.66716725 0.6629444 
-0.15769124 0.28715068 0.94481635 
-0.058135554 0.27434665 0.95987195 
-0.3613825 0.92813927 0.08921935 
-0.63577646 0.7521611 -0.17332648 
-0.17767566 0.62287575 -0.7618774 
-0.14546008 0.9875781 -0.059422236 
0.02172059 0.99566627 -0.09042663 
0.14901014 0.9377449 0.31373656 
-0.38565832 0.49924955 0.7758979 
-0.66680443 0.7101781 0.2258739 
-0.39306885 0.88348997 -0.2548384 
-0.13699962 0.5605817 -0.81668806 
-0.7644916 0.5661488 -0.30826628 
-0.5129258 0.85102934 -0.11250033 
-0.16784367 0.98494166 0.041455083 
-0.60403585 0.77229285 0.19673446 
-0.45236087 0.79115266 0.41163957 
-0.19743043 0.6139943 0.76422 
0.04868617 0.8453124 0.53204954 
0.8715482 0.4008786 0.28231207 
0.8906938 0.11721256 0.43923336 
0.6013816 0.647891 0.46752274 
0.7612733 0.18411206 0.6217441 
0.98778176 -0.11183318 -0.10853787 
0.80469906 0.5878083 0.08331185 
0.23865634 0.32238394 0.91603047 
0.15400274 0.6365521 0.75570136 
-0.17608719 0.4616819 0.86939245 
-0.95225585 0.10798674 0.2855657 
-0.93708295 0.15247442 0.3140496 
-0.3182719 0.4409078 0.8392278 
-0.6635125 0.07285347 0.74460965 
-0.62246907 0.5550831 0.5517382 
-0.22048081 0.7191025 0.6589991 
-0.27942663 0.27463868 0.9200513 
0.29789338 0.025923725 0.9542472 
-0.2534135 0.7923048 0.55500877 
0.07363202 -0.2034593 0.9763108 
0.19537137 0.77328664 0.6032062 
-0.42320603 -0.51437837 0.74586296 
0.1159954 -0.24200991 0.9633153 
-0.19905965 0.14951204 0.96851516 
-0.56282914 0.23925775 0.7911885 
-0.7706423 0.5632999 0.29799977 
-0.6305795 0.22238731 0.7435815 
-0.10403928 0.3412752 0.93418795 
-0.8263178 -0.45836687 0.32725963 
-0.94346535 0.16768825 0.28592628 
-0.64879 0.72943443 0.21678789 
-0.3860348 0.7365209 -0.55544055 
-0.4569259 0.8613727 -0.22193642 
-0.28531355 0.73636615 0.61348283 
0.70635754 0.5762139 0.4111407 
0.4389083 0.84901255 -0.29417223 
0.6468732 0.76205474 0.028770244 
0.5520732 0.66649526 -0.5009984 
0.34561878 0.83594656 -0.4263109 
0.29894924 0.8944116 -0.33265206 
0.55662376 0.83007526 -0.033839695 
0.48066178 0.72864884 0.4878884 
0.7838461 0.4039387 -0.4716132 
-0.39245233 0.870465 0.29710627 
-0.30804318 0.37141284 0.87587786 
-0.34138325 0.74884146 0.56806165 
0.027794547 0.88191676 0.4705851 
-0.29249477 0.7595236 0.5810085 
0.58040655 0.59543556 0.55550414 
0.2821736 0.6590873 0.6971241 
0.5512774 0.29970828 0.7786322 
0.46693644 0.42645305 0.7746666 
0.18627879 0.7869834 -0.5881814 
-0.15873559 0.3593792 -0.91959214 
0.6660283 -0.0915104 -0.74029195 
0.73326963 0.6266148 0.26394993 
0.15989113 0.96441406 0.21057184 
0.40291184 0.4960578 0.7691481 
0.20412382 0.33398318 0.9202113 
0.23092094 0.28236374 0.93109953 
-0.7525918 0.6383729 0.16151084 
-0.46374264 0.85030544 0.24884413 
-0.4179868 0.9084441 0.004055382 
-0.64872473 -0.20606044 -0.73259497 
-0.17298944 -0.28607354 -0.94246304 
0.5864563 0.19268176 -0.78672916 
0.882735 -0.2956617 -0.3651891 
0.33612323 -0.9283127 0.15892398 
0.5432162 -0.7945384 -0.27133912 
0.79928005 0.48253408 -0.35820702 
0.60064334 0.05361082 0.79771775 
0.38180393 0.720114 0.5793631 
0.096230105 0.97353625 0.20728491 
-0.28355232 0.9542695 0.09469781 
0.16591811 0.9130185 -0.37265056 
-0.040992945 0.9959317 0.0802476 
0.2806521 0.92478174 0.25693038 
-0.10130267 0.9948518 0.0027767206 
0.15061791 0.5083425 0.8478811 
0.28643355 0.08035814 0.95472425 
0.310253 -0.07628219 0.9475887 
0.7460842 0.26023537 0.6128915 
0.6503423 0.11392232 0.75105035 
0.21990468 -0.16589876 0.9613114 
0.7189884 0.0037433433 0.695012 
0.78678083 0.16095662 0.5958765 
0.13850045 0.8628472 0.48611978 
-0.39184043 0.84780794 0.35732725 
-0.21624222 -0.21897867 0.9514661 
-0.42208874 -0.06658488 0.90410596 
0.06453111 0.72187734 0.68900573 
0.4410504 0.77151734 0.4585145 
-0.39169076 0.8073333 0.4413518 
-0.5555972 0.68726146 0.46795678 
0.3160604 0.048306573 0.9475085 
0.0021317187 -0.12194856 0.99253416 
0.07817866 0.03203224 0.9964246 
0.19158098 -0.07841646 0.97833925 
-0.2167905 0.1655522 0.9620782 
-0.6263401 0.71139205 -0.3187781 
-0.20493862 0.95735425 -0.2036493 
0.027257787 0.73986 0.6722085 
-0.131665 0.8667553 -0.4810401 
0.7409774 0.15009971 -0.65454 
0.30777073 0.9411541 -0.1396645 
0.052536007 0.9967264 0.061454065 
0.95207864 0.30214968 0.04745407 
0.7895507 0.34580228 -0.50698173 
0.79848903 0.48531795 0.3562045 
0.84070396 0.08194422 0.5352589 
0.33413365 0.5170175 0.7880658 
-0.8068786 -0.18525761 0.5609159 
-0.31683534 -0.17716339 0.9317879 
0.44428703 0.40700424 0.7980956 
-0.08077884 0.855392 0.5116438 
-0.46484718 0.54633814 0.6967294 
0.20210673 -0.9517588 0.23088567 
-0.11067516 -0.29377982 0.9494443 
-0.1587014 0.15392253 0.9752547 
0.24473621 0.5022683 0.8293556 
-0.37220848 -0.07211552 0.92534333 
0.29314318 -0.060562234 0.95414853 
-0.37592492 0.0019486707 0.9266481 
0.23508246 -0.009531402 0.9719288 
0.31356373 0.4260206 0.84863675 
-0.2523255 0.7571381 0.6025562 
0.3370437 0.9120065 -0.23376422 
0.68987703 0.72360647 -0.021528972 
0.71835446 0.378227 0.5838761 
0.39905107 0.7444106 0.5353608 
0.42896035 0.7405294 0.5173097 
0.042870525 0.4372448 0.89832026 
-0.16882095 0.2678078 0.9485666 
-0.4953421 -0.36821535 0.7867997 
-0.29351813 -0.0868262 0.9520023 
0.02145559 0.020607423 0.99955744 
-0.58895516 -0.049476713 0.80664986 
0.2144376 -0.10165336 0.9714335 
-0.041063543 0.059421435 0.997388 
0.14356755 0.48119083 0.86477965 
0.0121520385 0.45748782 0.88913286 
-0.3559989 0.92987883 -0.09268364 
-0.037928708 0.7737049 0.63240975 
-0.8101382 0.5779534 0.09821406 
-0.054789532 0.9546353 -0.2926936 
0.27602372 0.9604718 0.036122926 
-0.1425518 0.98317957 0.11417959 
0.7513479 0.6010632 -0.27239567 
-0.0502716 0.9866028 -0.15520217 
0.28053123 0.95076627 -0.13170366 
0.6250153 0.57568806 0.52719945 
0.7554064 0.37927818 0.5343307 
0.33272058 0.70924664 0.62150323 
-0.19621965 0.7753189 0.6003154 
-0.6965819 0.28918836 0.6566154 
-0.4186399 0.39153862 0.81941336 
-0.26966974 0.67772144 0.6840847 
-0.2786269 0.77514523 0.5670245 
0.58005995 0.8054139 -0.121815264 
0.43084836 0.9019636 -0.028832003 
0.7249471 0.6714713 0.15355144 
0.18957828 0.53808933 0.8212916 
0.34000203 0.76345515 0.54912186 
-0.34936416 0.5291733 0.77325314 
0.2553943 0.51446146 0.81859833 
0.5064488 0.3536983 0.7863887 
0.5332739 0.3603667 0.7653463 
-0.19180979 0.74468184 0.63926363 
0.35515225 0.7944646 0.49263865 
0.3069312 0.91398543 0.26537514 
0.21408017 0.85868883 0.46564284 
0.7712595 0.5681095 -0.2870724 
0.50520414 0.5708558 0.6472191 
-0.64774394 0.6492858 0.3985671 
-0.18059547 0.41675454 0.890899 
0.048107177 0.13425718 0.98977816 
0.7468885 0.40469277 0.5276186 
-0.08991144 0.372968 0.9234776 
-0.6199835 0.3865495 0.6827884 
-0.39947698 0.105856426 0.9106112 
-0.3989726 0.12551881 0.9083314 
-0.28065717 0.0953798 0.95505726 
-0.46533796 -0.0994389 0.87952983 
-0.312472 -0.13469668 0.9403287 
-0.25986093 -0.29823884 0.91843665 
-0.58130574 0.40907663 0.70337754 
-0.17840631 0.7181726 0.6726064 
0.100043476 0.8646289 0.49234974 
0.5324451 0.081909195 0.8424922 
0.24025826 0.88179094 0.4058581 
0.6608488 0.7478245 -0.063541055 
0.49987805 0.6951439 0.5166207 
-0.09607276 0.9660946 0.23964824 
0.059160728 0.8684638 0.49220994 
0.6457114 0.7627395 0.035850752 
0.33179358 0.9291528 -0.16305919 
0.3281884 0.83371806 0.44407958 
0.32327282 0.89358234 0.311457 
0.001441456 0.9564174 0.29199976 
-0.7320967 0.39297888 -0.556419 
-0.7978419 0.10846593 -0.593029 
-0.08981864 0.09548113 -0.99137074 
0.6865386 -0.501818 -0.52615917 
0.7646917 -0.2823082 -0.5792656 
0.7779485 0.4772 -0.40874982 
0.77560925 0.5794074 0.25043437 
0.7448846 0.5418679 -0.38926366 
0.5258819 0.63424957 -0.56672376 
0.41367874 0.65612715 -0.6311633 
0.4160007 0.6196077 -0.6656048 
0.78000146 0.6003279 0.17664726 
0.112428434 0.5560254 0.82352644 
0.472714 0.88021994 -0.04188554 
0.7757303 0.41456732 0.47579032 
0.92948365 0.29252157 0.224703 
0.59991723 0.119611375 0.79107046 
0.55533767 0.757934 0.34225175 
0.43919992 0.3030738 0.84572446 
0.56592244 0.54926014 0.61485374 
0.9440445 -0.27758142 -0.1781256 
0.74526757 0.5474659 -0.38060147 
0.63480234 0.7726545 -0.005574398 
0.7884384 0.46348006 0.40441456 
0.33580524 0.22375089 -0.9149702 
0.6810933 0.09150186 -0.72645676 
0.902668 0.08716764 -0.42141706 
0.61071765 -0.6098751 0.5050509 
0.7898917 0.5667505 0.23423286 
0.6946761 -0.077608794 0.71512383 
0.92151916 -0.015488002 0.38802385 
0.5306954 0.30635008 0.7902608 
-0.5744863 0.70875156 0.40943474 
-0.72322714 0.683849 -0.096400805 
0.01296129 0.6867054 0.7268203 
0.019639127 0.9960065 -0.08709463 
0.79107803 0.6067484 0.07779419 
-0.0061338595 0.12602761 0.99200785 
0.38409612 0.3171596 0.86711013 
0.100220755 -0.32753798 0.9395077 
0.052963786 0.2176591 0.9745868 
0.24480803 0.5830196 0.7746981 
0.10328749 0.99344885 -0.048900712 
0.06432927 0.8649392 0.49773672 
-0.37378186 0.9257926 -0.056526564 
-0.4280737 0.7889663 0.44077796 
-0.42350522 0.9036325 0.06396515 
-0.44534162 0.6869801 0.5742205 
-0.5157371 0.85466254 -0.059725937 
-0.3909044 0.9204146 -0.0055460013 
-0.3748543 0.9019097 -0.21457672 
-0.57749826 0.7735012 0.26113534 
-0.14614384 0.60685456 0.7812615 
0.013651953 0.819931 0.5722997 
0.28787187 0.722893 0.62813663 
-0.05219065 0.081802264 0.99528116 
-0.84392905 0.25904068 0.46976778 
-0.5190407 0.6225561 0.58567965 
0.83003473 0.44235498 0.33965364 
0.47753668 0.15427627 0.86496115 
0.58246917 0.045076452 0.8116021 
0.57033277 0.33377475 0.7505432 
0.6064635 0.11532641 0.7867031 
0.49498466 0.3421004 0.79872245 
-0.14590874 0.15994196 0.97628343 
-0.81275904 0.0014770938 0.58259815 
-0.5559869 0.029084546 0.83068216 
-0.5209342 0.7930653 0.31571317 
-0.6849954 0.62260544 0.3783435 
-0.7600469 0.407997 0.50583327 
-0.72955847 0.54211783 0.41695648 
0.13241985 0.5532579 0.8224176 
0.19810806 0.37314197 0.90637654 
-0.33294222 -0.44880286 0.8292922 
0.13767175 0.9267377 0.34957656 
0.14854784 0.5217337 0.84007597 
0.24048923 -0.17366603 0.9549896 
-0.15504818 0.2578429 0.9536651 
-0.39679715 0.25411484 0.8820304 
-0.5243242 -0.19502057 0.8288855 
-0.67119473 -0.23594809 0.7027277 
-0.5144798 0.4615664 0.72268045 
-0.54643136 0.7389958 0.3940786 
-0.34159225 -0.54536855 0.7654332 
-0.5622784 -0.6466672 0.5154267 
-0.96338487 0.08384018 0.25467727 
-0.9784709 0.19278166 0.07368834 
-0.76692265 0.28360203 0.5756732 
-0.55687344 0.54641193 0.6255606 
-0.55978787 0.3869175 0.7327568 
-0.4465402 0.25738856 0.856944 
-0.22558743 0.3616332 0.9046169 
-0.39329484 0.9191996 -0.019780394 
0.71361315 0.42035377 0.5604098 
0.18944633 0.97728103 -0.0950369 
-0.15396456 0.97296405 -0.17215079 
0.51788783 0.82594705 -0.22271903 
0.7821247 0.04346496 0.6216042 
0.40282246 0.093798734 0.91045916 
0.6454745 0.47817567 0.5955759 
-0.42742252 0.78225696 0.4531933 
-0.677521 0.70483273 0.21018146 
-0.43890262 0.7708515 -0.46168444 
0.36227417 0.65473413 0.6633858 
-0.029482158 0.6056314 0.79519904 
0.3580865 0.8284298 0.4306717 
0.22477545 0.62152654 0.7504537 
-0.14483391 0.1732487 0.9741705 
0.26293483 0.21194349 0.9412467 
-0.50976425 0.592002 0.6242388 
-0.43477494 0.824606 0.3619335 
0.3337294 0.9294198 -0.15749106 
0.18049057 0.97320557 -0.14245747 
0.15398437 0.98078483 -0.11979129 
0.122329414 -0.22479393 0.96669704 
-0.0061543994 0.5097094 0.8603247 
-0.513167 0.4910215 0.7039585 
-0.06362577 0.705535 0.70581317 
-0.645528 0.74896944 0.14946027 
-0.5991181 0.7887349 0.13767676 
-0.21213788 0.57796425 -0.78800696 
-0.4425447 0.61366737 -0.6538858 
-0.2788542 0.71302 -0.64330626 
0.41447595 -0.08356171 -0.9062158 
0.9608247 -0.15698124 -0.22841372 
0.5764875 -0.81385833 0.072779536 
0.9576991 0.27173024 0.09473772 
0.7740339 0.5621969 0.291215 
0.43857747 0.74656653 0.5002882 
0.24112998 0.47519723 0.8461939 
-0.16528505 0.9685307 0.1860892 
0.7425636 0.62652355 0.23678613 
0.60831183 0.78905994 0.08568071 
-0.027001599 0.87844694 0.47707644 
0.18887258 0.9107233 0.36730117 
0.3011316 -0.07573829 0.9505701 
0.82369137 0.3006091 0.4807982 
0.53948945 0.5564385 0.63192356 
0.7919716 -0.06755353 0.6068094 
-0.13842778 0.2599194 0.9556567 
0.14134338 -0.07695976 0.9869647 
0.87587345 -0.049921613 0.47995186 
0.6492257 0.35659495 0.67182297 
-0.123438254 -0.34606856 0.9300536 
0.1483445 0.15225047 0.9771457 
-0.16279218 -0.033069212 0.9861061 
0.3286123 -0.5983771 0.7307249 
-0.4719114 0.27826825 0.8365802 
-0.109798655 0.7659591 0.6334438 
-0.73301035 0.6777021 0.058444686 
-0.05301698 0.30432442 0.95109195 
-0.14910027 0.9435243 0.2958566 
-0.343849 0.19974272 0.91753525 
0.70606047 0.08076867 0.70353055 
0.41272506 0.17737076 0.893419 
-0.10779491 0.45003593 0.8864806 
-0.4883255 0.7958047 0.35809663 
-0.28123832 0.94833857 -0.1468302 
0.16878004 0.9751166 -0.14373931 
-0.07336529 0.8714173 -0.48502523 
0.7563944 0.19675569 -0.6238227 
0.61537457 0.7737511 0.15041147 
-0.26320547 0.9551525 -0.13567133 
0.8246026 0.5648998 -0.030312221 
0.7537147 0.45724982 0.47205597 
0.4199568 0.4555827 0.78490806 
-0.26303887 0.06863216 0.96234107 
0.21432133 0.29626396 0.93074924 
-0.33163264 0.6989273 0.63365644 
0.1783024 0.52217734 0.83399 
0.42571086 -0.043201104 0.9038274 
0.48098272 0.5416856 0.689371 
-0.1848827 0.41433573 0.89114773 
0.62076867 -0.7673616 0.16063203 
0.32074797 0.23197821 0.9183174 
-0.2265725 0.009027335 0.9739525 
0.060026877 0.63171726 0.77287143 
-0.41187364 -0.021557923 0.910986 
0.14912193 -0.034312606 0.9882233 
-0.43542117 -0.08922318 0.8957945 
0.21344993 -0.20230131 0.9557789 
0.011941878 -0.19484298 0.9807618 
0.46090832 0.5789483 0.6725938 
0.50522417 0.8584067 0.08880591 
-0.56896114 0.8220243 0.023651276 
0.3072207 0.9283216 -0.20936711 
0.8755092 0.39457193 0.27892077 
0.6511942 0.58511037 0.48331368 
0.66336423 -0.033771418 0.7475343 
0.16219807 -0.0015347016 0.98675704 
-0.33791184 -0.12868688 0.9323386 
-0.64340293 -0.035785105 0.7646909 
-0.3291566 0.20187046 0.92244476 
-0.4519557 0.097777925 0.88666534 
-0.2834116 0.16864483 0.9440535 
-0.19172287 0.27728134 0.9414657 
0.171437 0.22632225 0.9588471 
-0.114702724 -0.108094245 0.9875014 
-0.8867136 0.33225447 0.3214746 
0.052008417 0.9970271 0.05685209 
-0.17358653 0.8600245 0.47981825 
-0.09176727 0.9939345 0.060605913 
0.16334692 0.9854596 -0.04676845 
0.27263054 0.8636796 0.42394605 
0.6738549 0.57307297 0.46637657 
0.18759567 0.70621586 0.6826911 
0.062839225 0.9760631 0.20821221 
0.7310431 0.6818166 0.026499111 
0.6678481 0.5852278 0.4598776 
-0.02675588 0.61374104 0.7890539 
0.55815285 0.2919408 0.7766827 
-0.42435348 0.8365993 0.34644756 
-0.54031503 0.75971055 0.3618007 
-0.359191 0.4656305 0.80880785 
0.18034564 0.474265 0.8617124 
0.20493698 0.20144567 0.9578207 
0.102366865 0.33346254 0.9371893 
-0.51155293 0.6501989 0.56174284 
0.11906845 0.43745005 0.891325 
0.33362997 0.49965492 0.7993973 
0.05870372 -0.19185576 0.9796659 
0.11813268 -0.04360638 0.9920399 
0.8059894 -0.14572603 0.57371163 
0.75745314 0.03045423 0.65217894 
-0.19562836 0.71772075 0.6682863 
0.16867991 0.85423464 0.49176234 
0.5434211 0.5816487 0.60529196 
0.82960916 0.45389467 -0.32515886 
0.8867501 0.38025767 0.26282763 
-0.05231414 0.5414093 0.83913004 
-0.06232181 0.8217049 0.56649536 
0.7142939 0.04011191 0.6986955 
-0.19908135 0.64101195 0.74126273 
0.63827145 0.41031647 0.6513448 
0.36138874 0.52684385 0.7693074 
-0.26029715 0.25380254 0.9315738 
0.07946572 -0.0074846903 0.9968095 
0.2268534 -0.38560584 0.89434093 
-0.014780775 -0.43510756 0.9002572 
-0.53582555 -0.11063039 0.83704954 
-0.09383674 -0.15428832 0.9835598 
-0.49091047 -0.21947193 0.84311277 
-0.45400622 0.6258383 0.6341962 
-0.14787294 0.9630876 0.22493553 
0.11511962 0.63141215 0.7668547 
0.45168138 0.86201876 0.23001662 
0.25944716 0.933153 -0.24882263 
0.61535704 0.690554 0.38009325 
0.033640325 0.5376692 0.8424846 
0.5842796 0.7226012 0.3694116 
0.657414 0.60968864 0.44281676 
0.751197 0.64146394 0.15565081 
0.33516356 0.8845031 0.32453004 
0.22952652 0.34554827 0.9098978 
0.0044148667 -0.34167063 0.9398094 
-0.7088682 0.34314653 0.61624384 
-0.25651506 0.9471683 0.19254188 
-0.20477498 0.9636182 -0.17177697 
-0.90538603 0.24596685 -0.34608737 
-0.06491662 0.9193129 0.3881361 
0.7297393 0.6646927 -0.16020034 
0.5364585 0.7414114 0.40313956 
0.04370178 0.93688774 0.34688842 
0.60004467 0.7773696 -0.18879333 
0.9369463 0.34051764 0.078609504 
0.5721466 0.7377127 0.3583691 
-0.14802365 0.9889643 -0.006225332 
0.5329041 0.84253955 -0.07836096 
0.75356084 0.39278513 0.52713 
0.74401253 0.5467578 0.3840591 
0.7456979 0.14349517 0.6506488 
0.61622906 0.43906057 0.65382534 
0.91884404 0.33153024 0.21404086 
0.8485086 -0.25920162 0.46135423 
0.63843375 0.06989199 0.7664969 
0.459821 0.7799635 -0.42452538 
0.9629375 0.204741 0.17559189 
0.8110043 0.44469586 -0.3801548 
0.30980197 0.753794 0.5794976 
0.044719145 0.85412514 0.51814145 
-0.20936325 0.96054244 0.18309937 
0.61421454 0.75670207 -0.22392526 
0.6829789 0.71757585 0.13647272 
0.8090082 -0.1478649 0.5688952 
0.46308696 0.53802705 0.7043276 
0.6781385 0.43691987 0.5909562 
0.5360277 0.038212877 0.84333515 
0.412928 0.7210603 0.5563835 
0.24391492 0.5770497 0.7794353 
-0.040238317 -0.081839755 0.9958329 
0.11149646 0.26755503 0.95707 
0.17773731 0.8153463 0.55101734 
-0.51907134 0.66629815 0.53536147 
-0.1808655 0.8640181 0.46985146 
-0.7348314 0.64851356 0.19862778 
-0.29670334 0.16043532 0.94139665 
-0.31938887 0.40523195 0.8566083 
0.24805027 0.5080937 0.82481027 
0.03662495 0.45646453 0.88898754 
-0.07661788 0.96631926 -0.24567662 
0.057226207 0.99794465 -0.028837554 
0.1762495 0.9667225 -0.18542878 
0.19275267 0.97180027 -0.13583314 
-0.39189067 0.86560416 0.31169093 
-0.37367684 0.6135954 0.695605 
-0.020958869 0.72414327 0.68933105 
0.35611388 0.9331892 -0.048382837 
0.2926317 0.08832135 0.9521376 
-0.15291482 0.09304647 0.9838493 
0.02059669 0.45119408 0.8921882 
-0.007491123 0.71140265 0.7027448 
-0.24459721 -0.09181209 0.9652683 
0.08985119 0.6840233 0.7239053 
0.031273603 0.90590864 0.42231688 
0.3110398 0.8816824 -0.35481057 
0.90585583 -0.046400767 0.4210371 
0.31562236 -0.09417567 0.9441999 
0.82140386 0.02159553 0.56993806 
0.44735834 0.30030107 0.8424309 
0.5640236 0.6266049 0.5378138 
0.3705611 0.24023113 0.8972032 
-0.3471301 0.5932107 0.7263621 
-0.75190127 0.16752134 0.63763726 
-0.28737575 0.9356977 0.2046588 
-0.5972332 0.24373153 0.76413846 
0.19037998 -0.42525667 0.8848233 
-0.25678602 0.3237498 0.91063 
-0.31251732 0.34414315 0.88538045 
-0.504029 0.23077653 0.83228433 
-0.267764 0.51320916 0.8154256 
0.6184426 0.20902148 0.75752157 
-0.010252769 0.04561302 0.9989066 
0.2852544 0.31231675 0.90613914 
-0.14668933 0.2773128 0.9495156 
-0.079998136 0.21324651 0.97371775 
0.18097378 -0.04191926 0.98259425 
-0.42386547 0.17415644 0.8888238 
-0.9478323 0.2088993 0.24078041 
-0.4711519 0.72898144 0.49659047 
-0.15696356 0.15295956 0.97568744 
-0.7992578 0.018414058 0.60070616 
-0.5681838 -0.3307975 0.75348544 
-0.84473383 -0.02714421 0.53449786 
-0.6878103 -0.22149172 0.6912731 
-0.50551784 0.055345695 0.8610392 
-0.6613246 0.33927965 0.6689837 
-0.739734 0.23893075 0.6290515 
-0.59412575 0.5633174 0.5741848 
-0.2766258 0.7211384 0.6351675 
0.38538077 0.783453 0.48752773 
-0.2795105 0.5242826 0.80436426 
0.18466534 0.7204842 0.66843194 
0.40930724 0.7103472 0.5726033 
0.4421187 0.23543404 0.8655067 
0.5980087 0.34901625 0.72150767 
0.15496129 0.6382921 0.754036 
-0.07744809 0.8198857 0.5672648 
-0.74385977 0.27052918 0.61113554 
-0.09925917 0.9463873 0.30740666 
-0.28791994 0.95756346 -0.0132046025 
-0.31974864 0.52717 0.78730726 
0.115712695 0.97284615 0.20045242 
-0.4142152 0.856129 0.30898073 
0.68817985 0.16476162 0.70658493 
0.21727557 0.043486096 0.97514117 
-0.014603419 -0.1571738 0.987463 
-0.0004136975 0.5704871 0.8213065 
0.24780203 0.8344035 0.49230576 
0.186863 0.84919447 0.4939141 
0.541229 0.41128725 0.7334262 
-0.23183416 0.22084744 0.94735384 
0.4744759 0.84896046 0.23267767 
-0.7875157 0.6157487 0.025931973 
-0.63003004 0.5653625 0.53237915 
-0.6161673 0.30428886 0.72646147 
-0.6803105 0.687003 0.25535205 
-0.32982332 0.8886979 -0.31848502 
-0.22514552 0.9350897 -0.2737092 
0.19855542 0.92501247 -0.3239257 
0.4842142 0.87112564 -0.08171229 
0.98119533 0.0134974355 0.19254492 
0.9177472 0.16832727 0.35973066 
0.84086585 -0.025226746 0.54065555 
0.7673415 -0.0036583124 0.64122826 
0.5182042 0.815642 0.25727907 
-0.24096492 0.74867964 0.6175879 
-0.4714148 0.86089915 0.19136555 
0.53403336 0.77403945 0.34010482 
0.66213584 -0.14987572 0.73424345 
0.3455502 0.4113755 0.8434248 
-0.098428026 0.74775976 0.65663326 
0.5593773 0.21628329 0.80019903 
0.048717782 0.83717906 0.54475486 
0.559965 0.7057972 0.4339235 
0.40658993 0.6087823 0.68122596 
-0.40126732 0.35734394 0.84338003 
-0.52179873 0.48994634 0.69834006 
0.65187895 0.100253284 0.75166684 
0.3128869 -0.038878225 0.94899446 
0.53888994 -0.023208085 0.84205645 
0.1745298 -0.47278133 0.86372286 
0.33079457 -0.08926012 0.93947196 
0.4283713 0.28983188 0.85585964 
0.2895138 0.44920626 0.84521925 
-0.77125597 0.2553989 0.5830401 
-0.54918694 0.72088295 0.42275468 
0.083418526 0.7512538 0.6547206 
0.3298839 0.15235473 0.9316462 
0.044341538 0.06538569 0.9968744 
-0.23743413 0.3187975 0.9176019 
0.29020435 0.28413785 0.9138091 
0.07577007 0.8867136 0.45606783 
-0.4361435 0.73178536 0.52370703 
-0.32029018 0.92777926 0.19141576 
0.08470504 0.9913543 -0.100208595 
-0.12565401 0.7385557 -0.6623795 
0.854993 0.46102127 0.23758492 
0.9523812 0.30458605 0.014055071 
0.7780859 0.58825326 0.22031933 
0.6106376 0.45086837 0.6510296 
0.8468036 0.21818998 0.48509458 
0.51224506 0.22742984 0.8281791 
0.33823624 -0.42331025 0.84047884 
-0.16933058 0.73634905 0.6550704 
-0.1981808 0.56401557 0.80163014 
0.1294988 0.38742343 0.91276133 
-0.113153175 0.49387363 0.86213994 
0.37044036 -0.085531585 0.92490995 
-0.07154203 0.2970624 0.9521742 
0.89597696 -0.34075025 -0.2848064 
0.8961594 -0.4086319 -0.17296924 
0.7547513 -0.24062186 0.6102881 
0.31266442 0.85223335 0.41945145 
0.09566127 0.73867714 0.6672368 
0.5267167 0.4933714 0.6922097 
-0.23996906 -0.25578415 0.93647707 
0.19562916 -0.8214103 0.5357372 
0.08435117 -0.40223125 0.9116441 
-0.032624684 -0.003465642 0.99946165 
0.2708829 -0.05969034 0.9607599 
-0.28884616 0.8443507 0.45126477 
-0.15463996 0.42853808 0.8901919 
-0.5590514 0.11006671 0.8217949 
-0.45781913 0.28142104 0.84332913 
0.2838687 0.43655062 0.8537225 
0.01777934 -0.3083801 0.95109713 
0.3525147 -0.43534097 0.82837903 
-0.2772913 -0.012809646 0.9607005 
-0.31334707 -0.10719046 0.9435698 
-0.33589298 -0.434667 0.8356079 
-0.5103087 -0.17518349 0.84195954 
-0.1363268 0.08227321 0.9872417 
-0.2004951 0.24857332 0.94763553 
-0.41952282 0.10741157 0.9013675 
-0.70407045 0.7101288 -0.0014146427 
-0.29017395 0.872097 0.39401254 
-0.40028352 0.5590913 0.7260785 
0.7496848 0.45991245 0.47587118 
0.38186616 0.57880425 0.72053033 
0.4667124 0.8197556 0.33193433 
0.4565428 0.21041445 0.864462 
0.30469695 0.6795227 0.6673895 
0.43022808 0.7182141 0.5468751 
0.923207 0.3256518 -0.20405827 
0.77794194 0.6265873 0.046847664 
0.085318096 0.18073565 0.97982424 
0.27512 0.11075034 0.95500964 
-0.26220778 0.7082199 0.65549344 
-0.5397631 0.27037758 0.7972151 
-0.5975922 0.02207811 0.8014963 
-0.17844976 -0.10553402 0.97827315 
-0.38838485 0.3378133 0.8573443 
-0.19364569 0.5402356 0.8189304 
-0.026002003 0.8278045 0.5604139 
0.12714534 0.18833515 0.9738399 
-0.3281531 0.94419944 0.028338844 
-0.3040049 0.31571698 0.89883476 
0.25305152 0.13380608 0.95815504 
0.6122683 0.4446792 0.6537491 
0.5629207 0.5881513 0.580688 
0.14744559 0.9359082 0.3198996 
-0.24836078 0.59553504 0.7639732 
0.29273504 0.63804364 0.7121844 
0.35256708 0.7288658 0.5868997 
-0.0148180965 0.8091906 0.5873595 
-0.03424244 0.9934114 0.109367445 
0.64500266 0.68399614 0.34076536 
0.18304303 0.8345308 0.5196669 
0.66203517 0.47320327 0.5811955 
-0.12205215 0.77840036 0.615789 
-0.62936944 0.28794304 0.7217915 
-0.8334162 -0.04686861 0.550655 
-0.41050935 -0.6802846 0.60720265 
0.16388962 0.024587648 0.98617226 
0.34444886 -0.38086393 0.858078 
-0.30843025 -0.48140004 0.8204419 
-0.26864204 0.04331026 0.96226597 
-0.7227836 0.29024822 0.6271682 
-0.9557417 0.23038398 0.18297821 
-0.024852693 0.77027255 0.63723034 
-0.03136868 -0.08105703 0.99621576 
0.10703182 0.3978612 0.91118103 
0.40628386 0.8349078 0.3712982 
0.6509794 0.28325352 0.7042679 
0.30251905 0.42437688 0.8534557 
0.6639779 -0.10316772 0.740601 
0.5697948 0.8217665 0.005805302 
0.8161717 0.54480827 0.1924781 
0.49999616 0.35966742 0.78780913 
-0.3528374 0.11566742 0.9285078 
-0.863918 -0.060987677 0.49992633 
-0.4916148 0.7108091 0.503056 
-0.2756946 0.93656003 0.21644355 
-0.333744 0.8825644 0.33120245 
-0.23013239 0.9729989 -0.017672276 
0.6946815 0.5967166 0.40168026 
0.39506778 0.43397015 0.80968606 
0.29420686 0.041429814 0.9548434 
0.77736294 0.4612652 0.42771637 
0.7904029 0.6007565 0.119812466 
0.7854091 0.5679341 0.24613743 
0.052716292 -0.018979533 0.99842924 
-0.29032913 0.40234205 0.86823374 
-0.12867649 0.90544677 0.40448543 
0.7838801 0.18877445 0.59152025 
0.99351233 -0.11227601 -0.018092278 
0.94192034 0.12974553 -0.30976164 
0.7931417 0.09012714 0.6023316 
0.81746435 0.06005729 0.5728395 
0.28753772 -0.07160255 0.95508915 
0.9016237 0.06796145 0.42714867 
0.8994779 0.2855479 0.33075944 
0.8214597 0.570265 -0.0013330659 
0.499664 0.85287976 -0.15143305 
0.5465529 0.65812296 0.5178361 
-0.29946452 0.7909919 0.5335288 