# OOMMF: rectangular mesh v1.0
# Segment count: 1
# Begin: Segment
# Begin: Header
# Desc: Time (s) :  1.959999999999997e-07
# Title: m
# meshtype: rectangular
# meshunit: m
# xbase: 2e-09
# ybase: 2e-09
# zbase: 5e-10
# xstepsize: 4e-09
# ystepsize: 4e-09
# zstepsize: 1e-09
# xmin: 0
# ymin: 0
# zmin: 0
# xmax: 1.024e-06
# ymax: 1.024e-06
# zmax: 1e-09
# xnodes: 256
# ynodes: 256
# znodes: 1
# ValueRangeMinMag: 1e-08
# ValueRangeMaxMag: 1
# valueunit: 
# valuemultiplier: 1
# End: Header
# Begin: Data Text
-0.79445696 0.5900236 -0.1439116 
-0.41175842 0.776769 0.47653443 
-0.115331925 0.9781399 0.17303516 
-0.022681372 0.88418376 0.4665882 
-0.1536501 0.59615105 0.7880328 
-0.6121778 0.5919317 0.5242665 
-0.76143867 0.6423395 0.08724164 
-0.25683546 0.79647624 -0.5474133 
-0.09701561 0.61698955 -0.78096855 
0.018771142 0.6857383 -0.7276061 
0.4627002 0.68920517 -0.55758846 
0.51939625 0.5761724 0.63107294 
0.27927288 0.9115417 0.30182517 
0.6868671 0.50773346 0.5200195 
0.7350845 0.017046964 0.67776126 
0.3890228 0.45399797 0.8015905 
-0.0034645272 -0.06121778 0.99811846 
0.06575161 0.65953636 0.74879146 
0.092683755 0.51489854 0.85222614 
-0.3184566 0.48708037 0.813227 
-0.62602127 0.54140663 0.5612275 
-0.87831223 0.2947672 0.3764042 
-0.27151603 0.961509 -0.042185046 
-0.25096762 0.7891736 -0.5605536 
0.049509645 0.96456826 -0.25914657 
-0.42801276 0.64438784 0.633695 
-0.945967 0.17745282 0.2713982 
-0.788676 -0.06831766 -0.6110015 
-0.4299631 -0.61898243 -0.65726143 
0.07660456 -0.13468713 -0.9879226 
0.5425436 0.57620496 -0.6112563 
0.8782351 0.46200448 -0.12351134 
0.6323743 0.4637183 0.62053865 
0.40912196 0.8693744 -0.27714142 
0.34813985 0.88498926 -0.30918056 
-0.09586756 0.99234647 -0.07783385 
-0.35523 0.85197014 -0.384654 
-0.4381163 0.66182935 -0.60830593 
0.41979676 0.8432763 -0.33564246 
-0.5257589 0.47885728 -0.7030458 
0.058925103 0.651258 -0.75656515 
-0.17190482 0.9477162 0.2688549 
0.30337578 0.9516744 0.047740202 
-0.04819677 0.8861257 -0.46093208 
-0.36409107 0.9173811 -0.16077852 
-0.6579965 0.38397196 -0.6477702 
-0.88778955 -0.38266227 -0.2557329 
-0.811706 -0.582616 0.041135173 
0.5638281 -0.49582982 -0.66049284 
0.9989975 -0.026480922 -0.036095884 
0.511274 -0.816051 0.2695547 
0.7011364 0.10836908 0.7047439 
0.0928906 -0.3763001 0.9218296 
0.5978241 0.5723257 0.5612928 
-0.08975568 0.84315085 0.53013253 
0.09698146 0.9071003 0.40958974 
0.1335957 0.77304083 0.62012905 
-0.59215033 0.76533264 0.25223795 
0.20042412 0.75352514 -0.6261232 
-0.0003457443 0.29476833 -0.9555687 
-0.6742701 -0.034464557 -0.7376802 
-0.18610786 -0.26523212 -0.94605273 
-0.44270772 0.38984856 -0.80748266 
0.2130756 0.58906215 -0.77949 
0.76936734 0.6127864 -0.18046299 
0.95120263 0.16739576 -0.25921452 
0.97593874 -0.07338371 -0.20532559 
0.8648121 0.45286882 0.21681766 
0.23588334 -0.16605422 0.9574889 
0.35529658 0.18657625 0.91594416 
-0.25719848 0.22152168 0.9406259 
0.4059584 -0.59201974 0.69621146 
-0.61467403 -0.6766657 -0.40533862 
0.11803621 0.006287553 -0.9929895 
0.081502706 0.76933235 -0.63362855 
0.6147564 -0.3116023 -0.72455406 
0.93686163 0.2698435 -0.2224294 
0.9481776 0.3048198 -0.08969019 
0.9226309 -0.012660685 0.3854763 
0.9811008 0.19301596 0.013645107 
0.768509 -0.058936737 0.63711894 
0.04455189 0.45151806 0.8911491 
-0.002398865 -0.097089276 0.9952729 
-0.25553676 0.7708551 0.58350956 
0.46369457 0.6811584 0.5665779 
-0.32760242 0.93875223 0.10686915 
-0.5071532 0.7997566 -0.32122448 
-0.2589288 0.7461487 -0.6133662 
0.17989923 0.8994478 -0.39828396 
0.4963008 0.85672724 -0.14037135 
-0.7539069 -0.31277075 0.57775337 
-0.9999634 -0.0024651228 0.008190558 
-0.95953107 -0.100371286 0.2631077 
-0.52701885 -0.84963864 -0.019117258 
0.4833359 -0.83607954 0.25953317 
0.05942318 -0.6852328 0.725896 
-0.13897707 -0.707455 0.6929595 
-0.22595483 -0.79038906 0.56941175 
-0.43167973 -0.8917608 0.13570276 
0.028608343 -0.99750113 -0.06459953 
0.8362622 -0.496676 -0.23233256 
0.73549485 -0.6362302 -0.23293474 
0.40902862 -0.390706 -0.8246481 
0.76238936 -0.29825196 -0.5742895 
0.9994968 -0.015446456 0.027705252 
0.9657066 -0.25470978 -0.050335936 
0.9348856 -0.0660501 -0.3487497 
0.9115994 -0.20892608 0.35402888 
0.6372544 0.7471131 -0.189021 
0.7161491 0.6690383 0.19879217 
0.022923846 0.98584735 -0.16607104 
0.3922375 0.8234198 0.41003636 
-0.11230769 0.98279494 -0.14663267 
0.77292794 0.5737675 0.27087525 
0.88713706 0.22364235 0.4036979 
0.40955055 0.43889913 0.79977256 
-0.24073838 0.5563491 0.79531175 
-0.65450054 0.5624606 0.50523967 
-0.4596506 0.86631733 0.19548805 
-0.12224562 0.90263337 0.41268533 
-0.43205163 0.845962 -0.3125375 
-0.67977947 0.35459402 -0.6419992 
-0.6806302 0.65562236 -0.32695845 
-0.6809856 0.7319888 -0.021236448 
0.0019431837 0.9573315 -0.2889858 
-0.07510867 0.9348264 0.347071 
-0.53927207 0.52633417 0.65738726 
0.37120706 0.9267384 -0.057976816 
0.45261887 0.82690525 0.33371252 
0.24986708 0.84733486 0.46860453 
-0.27224648 0.52288157 0.8077604 
-0.89987165 0.28160003 -0.33306545 
-0.18813878 0.96037704 -0.20562042 
-0.040755 0.8920718 -0.45005244 
0.2710899 0.8967473 -0.34979206 
0.35614818 0.5751212 -0.73647416 
-0.4196679 0.5292491 -0.73741055 
0.3442584 0.71374166 -0.60996646 
0.351154 0.8114447 -0.46717072 
0.5083116 0.6091003 0.60878265 
0.12383897 0.8569512 -0.5002985 
-0.2555882 0.84811944 -0.46407795 
0.16101731 0.6494788 -0.74313575 
-0.30309683 0.65803975 -0.68928665 
-0.72111446 0.68648684 0.0934339 
-0.40204322 0.91007864 0.10058956 
-0.43854198 0.7794036 0.44744927 
-0.35461822 0.7358648 0.576844 
-0.84916115 0.50691754 0.1481892 
-0.49263337 0.56925654 -0.65822446 
-0.5579057 0.82158005 -0.1172505 
-0.7335095 0.6417417 -0.22390057 
-0.16867983 0.87326175 0.4571225 
-0.24104321 0.9066147 0.34633517 
-0.6843488 0.72827035 -0.035903372 
-0.6857351 0.28869694 -0.66814786 
0.5235743 0.84403616 0.11607333 
0.19479331 0.67037743 -0.7159956 
0.005632187 0.8286894 -0.55968046 
0.5580684 0.48657414 -0.67216474 
0.123333395 0.34009984 -0.93226665 
-0.16082978 0.33546087 -0.9282241 
0.5564306 0.22505282 -0.7998352 
0.608736 -0.074482195 -0.78986895 
0.106872916 -0.5177877 -0.84880745 
0.7321873 -0.22459984 -0.6430061 
0.93548805 0.3175409 -0.15501617 
0.5640807 0.6420743 -0.51918566 
0.89251727 0.14871901 -0.42578837 
0.78077817 0.0474236 0.62300605 
0.58960867 0.31436518 0.74400014 
0.31984705 -0.17024821 0.93204796 
-0.37057903 -0.5248184 0.7663138 
-0.027348595 -0.13812055 0.9900378 
0.15275905 0.062764935 0.9862684 
0.88177896 0.32367828 0.3430719 
0.7114572 0.6611826 0.23804703 
0.79965657 0.17395912 0.5747066 
0.44408974 0.47651568 0.7587602 
-0.4813017 0.7157816 0.50596976 
0.5550608 0.8205699 -0.13628101 
-0.32133943 0.5666452 0.7587187 
-0.73642236 0.55879617 -0.38135156 
-0.5659811 0.56055367 -0.6045206 
0.6050125 0.31243142 -0.7323569 
0.24227703 0.9246483 -0.2938153 
0.488602 0.3247084 -0.80983484 
0.79661703 0.06645135 -0.6008207 
0.9037752 0.10890391 0.41392085 
0.21911573 0.7707588 0.59826344 
0.27913883 0.95617706 -0.08835737 
0.2646625 0.7942501 0.54691917 
0.08043287 0.3556706 0.93114394 
0.5431919 0.82350814 0.16363673 
0.6798615 0.7293338 -0.076554514 
0.010867679 0.8041016 0.5943927 
-0.6893587 0.6531386 0.3133603 
-0.51435286 0.8428743 -0.15812701 
-0.7174336 0.50481296 0.48005518 
-0.6968618 0.7130548 0.07704889 
-0.38270208 0.72645056 -0.57079667 
-0.5076559 0.67599374 -0.53415173 
0.06856938 0.9784753 0.19463958 
-0.14022173 0.9770414 -0.16039932 
-0.60623467 0.49909753 -0.61917794 
0.02347741 0.52240807 -0.85237235 
0.49573848 0.44940934 -0.7431519 
0.51313174 0.44687074 -0.73280454 
0.8407937 0.092915446 -0.5333222 
0.8372906 0.5242975 -0.15510225 
0.71007705 -0.060729224 -0.70150024 
0.5494205 0.53674567 -0.6403447 
0.6677184 0.21319245 0.71323293 
0.52222127 0.20535602 0.8277161 
-0.30977237 0.07389644 0.9479348 
-0.20274417 -0.34732047 0.9155673 
-0.18948512 -0.6108743 0.7687185 
0.911212 -0.22838415 0.3428314 
0.9268976 0.0028169467 0.37530366 
0.2887575 -0.008248805 0.95736676 
-0.30829492 0.417463 0.85479766 
-0.43212318 0.38508615 0.81546205 
-0.32412782 -0.26195705 0.90902126 
-0.7613839 0.023721602 0.64786714 
-0.71999055 0.5694753 0.39662525 
-0.24509907 0.7843722 0.569813 
-0.25884074 0.9020889 0.3453073 
-0.074252844 0.97944695 -0.18753755 
-0.4218093 0.76404244 0.4881764 
-0.7396132 0.490648 0.46069172 
-0.57694864 0.46256885 0.67317194 
0.049026232 0.97541827 0.2148387 
0.566875 0.75059825 0.33949256 
0.3488715 0.87135977 0.34499404 
0.3294075 0.92238456 0.20173605 
0.30850545 0.916263 -0.2555128 
0.69465345 0.6817792 0.22942045 
0.91390055 -0.098110065 0.3939038 
0.9163772 -0.13780665 0.37584853 
-0.23039363 -0.31815326 0.91961807 
-0.14144701 -0.27643284 0.950567 
0.00022823011 0.41316032 0.91065836 
-0.83321446 -0.094194815 0.5448678 
-0.9943329 0.09906991 -0.03856449 
-0.69836396 -0.13409412 0.70306945 
-0.9909441 -0.09984948 -0.08977773 
-0.4164094 -0.13929705 -0.89844286 
0.06575421 0.01822718 -0.99766934 
0.44112676 -0.7206915 -0.53479993 
0.23312567 -0.17065838 -0.9573548 
0.20417202 0.64747745 -0.73422533 
0.34272024 0.78296787 -0.5191381 
0.55228776 0.0644541 0.8311582 
0.47180462 -0.18342668 0.86241233 
0.8718467 0.4108889 0.2665593 
0.8737703 0.07772481 0.48008782 
-0.52834064 0.8475043 0.05091728 
0.23419571 0.77211654 0.5907525 
0.4772111 0.8292131 0.2909902 
0.10006296 0.7081455 0.6989403 
0.24678986 0.9113389 0.32947883 
0.26744467 0.88108176 0.3900875 
-0.42314002 0.902761 -0.077299885 
-0.21522719 0.89780945 -0.38420764 
-0.68837434 0.70738065 -0.16047865 
-0.34585136 0.8461022 -0.4055836 
0.46403185 0.62725943 -0.625476 
0.92946374 0.036108837 0.3671421 
0.33297738 0.5183773 0.7876618 
0.83244854 0.25042075 0.49428627 
0.8090076 0.491431 0.32249388 
-0.33085677 -0.10557684 0.93775654 
0.14068782 -0.263096 0.9544566 
-0.017133446 0.061705455 0.99794734 
-0.17130059 -0.19133332 0.9664615 
-0.21354662 0.2728786 0.9380486 
-0.23428267 0.6115913 0.75569034 
-0.67793846 0.51742053 0.5221835 
-0.8507182 0.4971461 0.17065874 
-0.15887915 0.96478266 0.20964739 
-0.028555509 0.92773795 0.37213835 
-0.7366117 0.55851656 0.38139546 
-0.7845522 0.55804366 -0.2703057 
-0.40415248 0.5317281 -0.7442621 
0.26428807 0.31522086 -0.9114755 
0.7662861 0.4645737 -0.44382107 
0.7621301 0.6123608 -0.21017122 
0.45723155 0.8209334 0.34206387 
0.8338661 0.49654007 0.24107137 
0.4237801 0.75708246 -0.49722898 
0.036100816 0.9790048 -0.20061527 
0.070095554 0.95292306 -0.29499906 
-0.1733369 0.96077144 -0.21650101 
0.31736195 0.79561687 -0.5160186 
0.27470282 0.9341006 0.2280227 
-0.2023307 0.9537061 -0.22250223 
0.14916022 0.9748411 0.16563885 
0.30389905 0.9164724 -0.2602379 
-0.022171792 0.63652676 -0.77093583 
0.4648514 0.8504511 -0.2462644 
-0.42303872 0.8942619 0.14606163 
-0.5052254 0.76364183 -0.40199324 
-0.7399285 -0.27807644 -0.61251885 
-0.763892 0.048602965 -0.64351135 
0.058065966 -0.42705926 -0.90235734 
0.64133775 -0.29721022 -0.70735574 
0.8140324 -0.571823 0.10183175 
0.4453127 -0.46747154 0.7636537 
0.4247326 0.4383582 0.7921139 
0.24053633 0.37856847 0.8937719 
0.23394588 -0.06334836 0.9701837 
-0.15950668 0.20850258 0.96492714 
0.08516775 0.39122227 0.91634685 
-0.23837435 0.57652617 0.78153396 
-0.74766695 0.48997065 -0.4482443 
0.16999328 0.91808915 -0.35807073 
0.29333255 0.9073715 0.30105338 
-0.18223667 0.41624624 -0.8908024 
0.07612601 0.79851174 -0.5971465 
0.27233428 0.4196762 -0.8658557 
0.10046741 0.26199532 -0.95982546 
0.90380746 0.36220244 -0.22790714 
0.8478722 0.27803785 0.4514507 
0.2077854 0.89671564 0.3908021 
0.34894782 0.6039928 0.71653897 
-0.22951576 0.24181597 0.94278723 
-0.5837871 0.19076878 0.7891769 
0.005497908 -0.30843827 0.95122856 
-0.9271588 0.31351268 0.20514973 
-0.8462064 0.51091665 -0.15132406 
0.1879748 0.5819256 -0.7912195 
0.060892925 -0.049007323 -0.99694055 
0.90849715 0.41781774 0.007833907 
0.9793125 0.12947424 -0.1555109 
0.9481607 -0.13700308 -0.28674293 
0.61141586 0.38144985 0.69330126 
0.30233586 0.25506064 0.91844285 
-0.2330015 -0.07958084 0.9692148 
-0.27584004 -0.2872913 0.91726553 
-0.223172 0.37482512 0.8998335 
0.12671036 0.4134248 0.9016787 
0.0662962 0.8947163 0.44168723 
0.08102942 0.59838766 0.7970989 
0.09193938 0.9865991 -0.13479467 
0.4840447 0.78548455 0.38563573 
-0.15371631 0.88524693 0.43898666 
-0.99054307 -0.019304875 0.1358376 
-0.92035425 0.0148493815 0.39080387 
-0.87332195 0.020659959 0.4867053 
-0.52093124 -0.58201945 0.62440693 
0.13003257 -0.6572852 0.7423393 
-0.1634185 -0.72035146 0.6740832 
-0.6686733 -0.4800801 0.567802 
-0.7822644 -0.6205503 -0.054587677 
-0.63403016 -0.695906 -0.33722502 
-0.6103099 -0.656422 -0.44343212 
0.081086375 -0.9960013 -0.03750282 
-0.06352907 -0.8402712 -0.5384316 
0.9246812 -0.37441275 -0.069137245 
0.970329 -0.23284084 0.06516686 
0.88222677 -0.28658757 0.37355533 
0.9187569 0.19620676 -0.34262052 
0.94479465 0.19600801 -0.2625719 
0.9179428 0.39477107 -0.039203823 
0.94792664 0.26452062 -0.17738122 
0.84617686 0.23069714 0.48037854 
0.68840426 0.6684158 0.28163812 
0.8390609 0.46028322 0.29002813 
0.19849303 0.9725932 -0.121091634 
0.6275089 0.67303056 0.39148754 
0.3489828 0.13131087 0.9278839 
-0.39673638 0.3031004 0.86644703 
0.09535094 0.025575515 0.9951151 
-0.4715602 0.7518617 0.46079835 
-0.46048412 0.82422 0.32956943 
-0.55565083 0.41117808 0.7226236 
-0.5291916 0.7924188 0.30336237 
-0.49522623 0.80422163 0.32860112 
-0.92920667 0.35611296 -0.09878613 
-0.63399225 0.7201286 -0.281902 
-0.3040724 0.83720803 -0.45455784 
-0.033296328 0.60088617 -0.79864097 
-0.06380225 0.9751841 -0.21200308 
0.23300405 0.9718077 -0.036041904 
0.2182592 0.85765904 0.4656008 
-0.03904505 0.6870049 0.725603 
0.5167333 0.69718695 0.49690762 
-0.23085774 0.90926534 0.3463254 
-0.11804141 0.8634306 0.49046296 
0.8554508 -0.07173368 0.512892 
0.5426514 0.7553532 -0.36738408 
0.40805006 0.8020825 -0.4360723 
0.04106359 0.9870879 -0.15482663 
0.29387584 0.9475153 -0.12590389 
0.3117766 0.9362634 0.16188315 
0.50507754 0.8604349 0.06744389 
-0.0012884072 0.961167 -0.27596462 
-0.1425385 0.9786211 0.14826857 
-0.32748142 0.9148404 -0.23626909 
0.21155068 0.9516077 -0.22291028 
-0.3142606 0.7718163 0.55275655 
-0.393219 0.9139505 0.10036569 
-0.045277007 0.98705417 0.15386404 
-0.3354831 0.24572232 0.90943485 
-0.65029675 0.32765713 0.6853867 
-0.68049073 0.18923604 0.7078998 
-0.8143952 0.47644576 0.3313005 
-0.9061184 0.35981753 0.22244301 
-0.9506297 0.3079027 0.03871785 
-0.042457063 0.9949313 -0.09115451 
-0.3886789 0.85312694 -0.3479987 
-0.12910189 0.8892958 -0.4387319 
-0.34724614 0.7011681 0.6227225 
0.28802797 0.9490641 0.12773953 
-0.18609585 0.94688773 -0.26224414 
0.6375382 0.49839756 -0.5874904 
-0.071509466 0.20252551 -0.9766626 
-0.051290475 0.46436638 -0.88415676 
0.6280958 0.47629786 -0.6153341 
0.8562097 0.41013196 -0.31416056 
0.25084648 0.9348582 -0.25122964 
0.4661314 0.69703615 -0.5448507 
0.7673781 0.63565284 -0.084121026 
0.6784636 0.71990585 0.14636534 
0.827258 0.14871982 -0.541781 
0.9069622 -0.18390776 0.3789427 
0.6632414 0.095047824 0.74234545 
0.22560056 0.3921769 0.891797 
-0.1724959 0.44058645 0.8809817 
-0.3784239 -0.55528307 0.7405782 
-0.058942296 0.02208578 0.99801713 
0.23342834 0.810996 0.536467 
0.2681573 0.61565775 0.74098396 
0.3767135 0.5268656 0.7619053 
-0.07314023 0.2745195 0.9587959 
-0.42284366 0.83810854 0.34464112 
0.5689365 0.7292981 0.38004696 
0.18267785 0.5601565 0.8079935 
-0.06996955 0.9883246 -0.13534725 
0.5459709 0.83741367 0.02557353 
0.62126434 0.75484484 -0.21033312 
-0.07552969 0.97768694 -0.19601922 
-0.11606956 0.9916364 -0.056438472 
0.039861 0.9663047 -0.25429597 
0.64132494 0.76208293 0.08906183 
0.11222076 0.98368233 -0.14062545 
0.684048 0.5760315 0.44751105 
0.6435985 0.30878636 0.7003085 
0.3768162 0.72009724 0.5826401 
0.9246628 0.377471 -0.05014243 
0.8890164 0.38028866 0.25501066 
0.61579555 0.64334667 0.4548637 
-0.25083947 0.22097535 0.94246984 
0.032083314 0.30486903 0.9518538 
0.14775278 0.3577152 0.9220678 
-0.6993873 0.44652495 0.55809766 
-0.28245592 0.8151489 -0.5057184 
-0.391548 0.7254328 -0.5660719 
0.22960262 0.9429802 -0.24097955 
0.45249507 0.8677424 0.20560007 
-0.4541712 0.63757336 -0.6222771 
-0.46763042 0.31343308 -0.82648754 
0.89751005 0.078690216 -0.4339167 
0.7500451 0.53795636 0.38475364 
0.78542036 -0.37676647 -0.49108252 
0.65006804 0.7539871 -0.094420165 
0.4434847 0.8957876 0.02976682 
0.6197407 0.76075673 0.1927971 
0.62673485 0.23142765 0.7440731 
0.41006097 0.7375625 0.5365181 
-0.16617522 0.63224334 0.75673914 
-0.7705831 0.53979295 -0.33885887 
0.11640533 0.8241987 0.5542078 
0.73932195 0.56370205 0.3682977 
0.21912606 0.21684149 0.9512958 
-0.07909851 0.3644483 0.9278583 
-0.4607475 0.1811097 0.8688562 
-0.68614787 -0.17690223 0.70562506 
-0.31924775 -0.16581164 0.9330527 
0.20980997 0.21350475 0.95414656 
-0.24383223 0.4091159 0.87930095 
0.32552388 0.84890205 0.41641274 
-0.2336023 0.9488393 -0.21244769 
-0.18055488 0.7008419 -0.69008744 
-0.20931111 0.9767528 -0.04629068 
-0.7580909 0.6100133 -0.23061252 
-0.6379513 0.76663977 0.07267542 
-0.17085497 0.8670933 0.46792915 
0.52612287 0.59999067 0.60266566 
0.4445683 0.8371289 0.31870708 
0.6619052 0.62359905 0.41593966 
0.11131741 0.8320973 -0.54334384 
-0.16402324 0.7961442 -0.58245254 
0.87799096 0.08265158 0.4714877 
0.053862263 -0.04896142 0.99734735 
-0.27354166 0.024582785 0.961546 
-0.4504742 -0.17836376 0.874791 
-0.33939332 -0.32757416 0.88176376 
-0.8283408 0.115715 0.54814374 
-0.8163167 -0.5615308 0.13531509 
-0.7862252 -0.6090757 0.10429092 
-0.5419403 -0.508069 -0.66945255 
-0.43528172 -0.80815005 -0.39676616 
0.36595255 0.26083973 -0.89333165 
0.5632676 -0.1386576 -0.81455743 
0.8514363 0.251941 -0.4599805 
0.8101705 0.46192318 -0.36090285 
0.9977534 -0.056085482 0.03664203 
0.67444223 -0.33919093 0.6558028 
0.3070186 -0.23040898 0.92339116 
0.40313548 0.7908372 0.46049812 
0.22852203 0.3052925 0.9244318 
0.57668334 0.46839708 0.6693583 
-0.33444425 0.8230005 0.45914853 
-0.5799906 0.76140136 0.2896185 
-0.45060056 0.8804673 -0.14743264 
-0.32332635 0.9402299 0.10690149 
-0.6088063 0.5893451 0.5310625 
-0.5963354 0.75039 -0.2851298 
-0.53079295 0.60364854 -0.5948676 
0.08766154 0.561428 -0.8228694 
0.17051342 0.32235616 -0.9311346 
0.7692907 0.38317472 -0.5112426 
0.82619125 0.44032088 0.35146213 
0.22163358 0.85412556 0.47047657 
0.6104442 0.78584045 0.09905952 
0.5361843 0.83027536 0.15214936 
0.20160723 0.3862801 0.900079 
-0.06824322 -0.10041149 0.9926029 
-0.489276 -0.24513504 0.83696944 
-0.6271668 0.14469385 0.76532716 
-0.6402325 0.32087696 0.6979545 
-0.8282123 0.08099464 0.5545308 
-0.695046 0.6530298 0.30077106 
-0.7315474 0.3136682 0.6053518 
-0.08413948 0.8666145 0.49183327 
0.28119296 0.77912796 0.5602591 
0.06300669 0.2033722 0.9770722 
-0.4751794 0.8344053 0.2792355 
-0.54158 0.62475383 -0.56247115 
0.8123254 0.16777639 -0.55855036 
0.87090856 0.45255274 -0.19160959 
0.6490936 0.7410343 -0.17188829 
0.8480604 0.49736163 0.1828247 
0.56255174 0.8227786 0.081062905 
0.12078132 0.96298116 0.2409964 
-0.2654245 0.9443811 0.19414994 
0.3131274 0.91062313 -0.26966056 
0.4256943 0.9002608 0.09118555 
-0.35648462 0.9158448 0.18478948 
0.19692229 0.85668564 0.47677174 
-0.23927596 0.67011535 0.70263255 
0.27274355 0.6082543 0.7454111 
0.5703278 0.74014604 0.3562444 
0.036838718 0.9820588 -0.18494192 
0.5727795 0.75521725 0.31870177 
-0.2360633 0.83842736 -0.4912369 
-0.4597858 0.66082036 -0.593223 
-0.91857785 0.22386366 -0.3257299 
-0.08015524 -0.020828377 -0.9965648 
0.16796127 0.18434723 -0.96840346 
0.9164796 0.18333529 -0.35560274 
0.91261476 -0.39216846 0.11549151 
0.7680464 0.30778596 0.56158054 
0.093323395 0.7396789 0.6664578 
-0.33206034 0.66182065 0.6721082 
0.67160475 0.14734966 0.7261096 
0.35060054 0.020451955 0.9363018 
0.32248262 0.3476983 0.8804038 
-0.75106317 0.35521305 0.55653214 
-0.59841496 0.7988408 -0.061260886 
-0.70164675 0.68569106 0.19370028 
-0.12765916 0.6790291 0.72292644 
-0.44477364 0.8554341 -0.26534712 
-0.47172812 0.5669183 -0.6753343 
0.25321728 0.373607 -0.8923558 
0.6694408 0.5148853 -0.5354831 
0.81175923 0.21711701 -0.54213214 
0.81213576 0.5156851 0.27295527 
-0.06510606 0.8381511 0.54153854 
0.32091713 0.7750985 0.54427433 
-0.2810032 0.49950272 0.819472 
-0.5150712 0.7497946 0.41534302 
-0.549378 0.04339255 0.83444655 
-0.83375734 0.55208373 -0.0072292974 
-0.65112334 0.7578541 0.04117722 
0.38000557 0.90784025 -0.17726265 
0.33231366 0.34186524 -0.8790312 
0.99244636 -0.056378137 -0.108957455 
0.8659432 0.10201042 0.48962858 
0.8505072 0.33738697 0.40349424 
0.3152843 0.70567244 0.6345253 
0.099763796 0.56569064 0.81856054 
-0.2688562 0.45893127 0.8468166 
-0.63167834 0.33356208 0.6997992 
0.004690596 0.60047036 0.7996334 
0.46153015 0.5970842 0.65611005 
-0.013720655 0.3740249 0.9273172 
0.058262397 0.07226466 0.9956824 
-0.39431208 0.4141035 0.8203879 
-0.7274743 0.5827646 0.36216936 
-0.55302644 0.7315599 0.39872548 
-0.3315007 0.7263701 0.6020746 
-0.83086383 0.31537598 0.45847946 
-0.60188293 -0.72131383 0.34270018 
-0.6755884 -0.7254293 -0.13165382 
0.062245883 -0.9613712 0.2681249 
-0.57921743 -0.79373187 -0.1857337 
-0.1307588 -0.80258596 -0.5820292 
-0.5045814 -0.826811 -0.24855857 
-0.77746344 -0.536321 -0.3284973 
-0.8272552 -0.39653432 -0.398007 
-0.9839909 -0.103706755 0.14493741 
-0.5371688 0.6094901 -0.5830708 
0.86846864 0.29782173 -0.3963138 
0.9956585 0.08389036 -0.04033038 
0.8196593 0.2389579 0.52063215 
0.8823013 0.29291785 -0.36843407 
0.85878944 0.37405384 0.35009193 
0.7713039 0.58658016 0.24701026 
0.53201175 0.6483266 0.54464316 
0.7261706 0.39162433 0.5650723 
0.9951976 0.06477266 -0.073391944 
0.8939035 0.0956475 0.43793625 
0.4214399 -0.0028116207 0.90685195 
-0.0028458615 -0.0043316525 0.9999866 
0.19725393 0.3652184 0.9097837 
0.13415788 0.35775694 0.9241275 
-0.23711023 0.084672906 0.9677857 
-0.56801546 0.2667108 0.7786038 
0.29637286 0.74316084 0.599896 
-0.59783316 0.35884345 0.7168172 
-0.43409744 0.8539671 0.28687933 
-0.3289487 0.9067791 0.2637129 
-0.73720247 0.60327286 0.30429322 
0.39590105 0.9181868 -0.013976426 
0.075373136 0.93136 0.35621285 
0.21929488 0.83423984 -0.50591874 
0.73082584 0.67746127 0.08330647 
0.62254053 0.714347 0.31961176 
0.34482223 0.46322203 0.8164087 
0.5385349 0.26187342 0.8008761 
0.04634507 0.08697482 0.9951319 
0.25420174 0.57023 0.7811653 
-0.119659916 0.86108106 0.4941871 
0.0051325676 0.6780818 0.73496854 
0.3795578 0.65008587 0.6582738 
-0.22307174 0.8888684 0.40018994 
0.8944486 0.3151967 0.31719515 
0.5252828 0.24963532 0.81348646 
0.08233373 0.9299103 0.35845223 
0.23846045 0.9311926 -0.27571175 
0.4001581 0.67879736 0.61571723 
-0.64210385 0.6533704 0.40101108 
-0.58961505 0.74776304 0.30529422 
-0.291007 0.67200375 -0.6809743 
0.12367375 0.4458989 0.8864982 
-0.36858743 0.720771 0.5870541 
0.16902208 0.9720833 -0.16274469 
0.2071673 0.9351095 0.28749266 
0.32576218 0.497331 0.8040777 
-0.85231984 0.35736674 0.38189003 
-0.5137362 0.85517734 0.06889768 
-0.97065514 0.16095114 0.17867137 
-0.44887757 0.46696222 0.76187605 
-0.65315676 0.6713594 -0.35023245 
0.21280451 0.9745626 -0.07030052 
0.0803744 0.7496466 0.65693986 
-0.1616897 0.43239948 0.88706666 
0.19874948 0.8691406 0.4528723 
0.31493208 0.90015686 -0.30089128 
-0.41799998 0.8665856 -0.2725902 
0.31314078 0.6856204 -0.65716624 
0.2221943 0.85368055 -0.47101945 
0.56880164 0.8189789 -0.07575164 
0.50640225 0.74842244 -0.4282764 
0.37570524 0.92095715 0.10336083 
0.62996715 0.6724573 -0.3885135 
0.81612253 0.050011177 -0.5757109 
0.8177739 -0.15634681 -0.5538968 
0.76804215 -0.26618418 -0.582458 
0.69495547 -0.6612561 0.2824488 
0.5597648 -0.6536531 0.5093144 
-0.20877126 -0.033349726 0.9773957 
-0.35715297 0.52328104 0.7737045 
0.4050035 -0.20678827 0.89062387 
0.21124412 -0.16790003 0.9629047 
0.5144451 0.16398631 0.8416976 
0.32056156 0.6026254 0.7308098 
0.9145044 0.0039443923 0.40455675 
0.64841294 0.2641891 0.71397823 
0.29471508 0.5962504 0.74674535 
-0.091468245 0.39723012 0.9131494 
0.3981343 0.60545397 0.6891405 
0.03878491 0.803772 0.593672 
0.10756148 0.9941963 0.0020473716 
0.48245963 0.8759064 0.004553259 
-0.15352298 0.9831909 0.09882574 
0.40443555 0.9095389 0.09576438 
0.40660775 0.9135979 -0.003006979 
0.62194157 0.78251636 0.029273966 
0.62201416 0.5200841 0.5853298 
0.12457832 0.1602249 0.97918755 
0.4619584 0.2359643 0.8549358 
0.58681774 -0.0929926 0.80436146 
0.49540362 -0.25205153 0.8312913 
0.81149894 0.10762212 0.57435787 
0.47341287 -0.25128406 0.8442373 
-0.18772624 -0.096800976 0.9774398 
-0.29086113 0.19088927 0.93752927 
-0.4944563 -0.13346192 0.8588951 
-0.63088626 0.51673865 0.57876056 
0.49808094 0.862577 -0.08874828 
0.36722717 0.842436 -0.39426628 
0.43741247 0.8748866 -0.20795138 
0.36602512 0.8494028 0.3801851 
-0.27963457 0.7252161 0.629179 
-0.7726216 0.5721216 -0.27519566 
0.5800328 0.6676579 -0.46668494 
0.2853105 0.95230377 -0.10823895 
0.5863281 0.7213374 -0.36863506 
0.80930126 0.5663245 0.15591095 
0.18222572 0.90030473 0.39527866 
0.044085745 -0.014734624 0.9989191 
0.4989756 0.007914596 0.8665799 
0.46748865 0.5732024 0.67297363 
0.009138206 0.7013032 0.7128046 
0.06393058 0.5600837 0.82596564 
0.7734332 0.4690999 0.42631721 
0.45050162 0.6541913 0.6075212 
0.54097974 0.12871419 0.831128 
0.18177135 -0.3546941 0.917143 
-0.49482167 -0.4175254 0.7621183 
-0.03919163 -0.17046018 0.98458487 
-0.2738121 -0.06779995 0.9593905 
-0.4841048 -0.4219421 0.76655555 
-0.78757435 0.059617817 0.6133289 
-0.090057656 0.348123 0.93311304 
-0.04537133 0.740712 0.67028886 
-0.49331826 0.85032827 0.18324612 
-0.33772838 0.3762297 0.8627808 
-0.53559834 0.69942176 0.47322682 
-0.009951294 0.9887469 -0.14926736 
0.55778867 0.72921497 0.39638028 
0.4334251 0.7476828 0.5031036 
0.6793084 0.099791266 0.7270363 
0.35570645 0.8239495 0.44111255 
0.56633866 0.80873394 -0.1587769 
0.9927798 0.11987494 0.004288214 
0.9283218 -0.34179094 0.14627947 
-0.3265161 0.21060124 0.92143065 
-0.006605034 -0.448743 0.8936365 
-0.7589168 -0.28510436 0.5854579 
-0.45761183 -0.3210072 0.8291839 
-0.9839112 0.057619452 0.16911174 
-0.57713705 -0.45301002 -0.6794813 
-0.41545662 -0.47503752 -0.7757159 
-0.6271958 0.043626618 -0.777639 
-0.5003561 -0.22179496 -0.83692944 
0.28867605 0.44849575 -0.84588283 
0.94696 -0.28118142 -0.15557581 
0.40183443 0.7625546 -0.5069908 
0.86927533 -0.072494574 -0.48898378 
0.4901135 -0.871607 -0.00948669 
0.83419406 -0.541034 0.10678233 
0.45311034 -0.80765057 0.37734824 
0.51665294 -0.39296454 0.76068956 
0.435181 0.079440325 0.8968316 
-0.18302487 0.44839463 0.87489665 
-0.17156002 0.5497126 0.8175471 
-0.5617864 0.5194558 0.64386463 
0.620645 0.6164768 0.4845166 
0.35241482 0.9057362 0.23546918 
-0.22890851 0.7812396 0.5807457 
-0.65347624 0.74793625 0.11644822 
-0.79967767 0.56947714 -0.19029301 
-0.3167501 0.56591296 -0.7611911 
0.3552472 0.87630427 -0.32540768 
0.27578944 0.7566474 -0.5928111 
0.9279575 0.12940018 0.34950054 
0.77145964 0.6278543 -0.10319446 
0.73211116 0.6457039 0.21697868 
0.667578 0.07771562 0.7404728 
0.13155457 -0.27095383 0.9535604 
0.26546103 -0.26987064 0.92558104 
0.4273795 -0.7289965 0.5347063 
-0.76074976 -0.46976653 0.44786087 
-0.45553604 -0.8518371 0.25857404 
-0.70978355 -0.15641616 0.6868343 
-0.8253628 0.12566042 0.55044144 
-0.12661359 0.7762304 0.61760473 
-0.045081593 0.32983717 0.9429608 
0.40186232 0.007305231 0.915671 
0.010580774 0.3396157 0.94050485 
-0.6578149 0.742745 0.12493747 
-0.76465213 0.64389 -0.026699683 
-0.0062473337 0.9962931 -0.08579623 
0.30578393 0.38685283 0.8699662 
0.34529492 0.8716087 0.3479509 
-0.25584507 0.4191203 0.871138 
0.23374766 0.84864944 0.47450623 
-0.156737 0.8219033 0.5476392 
-0.55937994 0.7387268 0.3760011 
0.35297376 0.92207164 0.1587244 
0.18293919 0.72639245 0.6624857 
-0.13423866 0.5114014 0.84879243 
0.64821017 0.23193628 0.72527874 
0.54779726 0.4866578 0.6805016 
0.62125605 0.6451164 0.44482118 
0.8321536 0.38454396 0.3995577 
0.53042406 0.4225615 0.7349097 
0.053249083 0.942113 0.33104047 
-0.5931151 0.8044845 -0.03192492 
-0.018922934 0.95591104 -0.2930464 
-0.0937684 0.2285157 -0.9690139 
-0.12514164 0.9792459 -0.1594276 
0.70461166 0.5163847 -0.48669222 
0.89166194 0.040664066 -0.45087177 
0.7102904 -0.6968144 -0.0996861 
0.5336037 -0.32955167 0.77888566 
-0.067996755 0.5835139 0.80925155 
0.4597798 0.57674986 0.6752497 
0.3248019 0.46123868 0.8256892 
-0.31004938 0.34633932 0.8853917 
0.14282134 -0.17045367 0.9749603 
-0.088758774 0.21398956 0.9727951 
0.20485522 0.062460728 0.97679734 
-0.506453 -0.38409656 0.7719944 
-0.22097552 0.5302328 0.8185494 
-0.056520373 0.70689636 0.70505536 
0.4561797 0.8789237 0.13925993 
0.7484681 0.5519864 -0.36756855 
0.68572074 0.58428854 -0.43404397 
0.9736117 0.21912424 -0.06375561 
0.8511036 -0.3460739 0.39478564 
0.60775703 0.07154181 0.790894 
0.45628908 0.20370747 0.8662007 
-0.4757759 -0.010895357 0.879499 
-0.4536116 0.15132698 0.87825775 
-0.13277587 -0.33500487 0.93281424 
-0.20157671 0.34662485 0.91608846 
0.25351068 -0.16840585 0.9525607 
0.6930844 0.65139586 0.3087353 
0.7879241 0.4258252 -0.44480193 
0.08016443 0.67009103 -0.7379375 
0.40991646 0.5480758 -0.7290963 
0.42010424 0.8385545 -0.3468987 
0.5825467 0.58392954 -0.5653899 
0.6347504 0.6568464 0.40699485 
-0.168648 0.8151232 0.5541951 
-0.4516374 0.21228 0.86658007 
0.13532077 0.44760415 0.8839337 
0.004020152 0.18211927 0.9832683 
0.09881303 0.19050606 0.97670025 
-0.22293295 -0.6258093 0.7474381 
0.3946578 -0.18097752 0.9008288 
-0.52569765 -0.09853771 0.84494525 
-0.20586881 0.28899297 0.9349338 
-0.92990077 0.16741185 0.3275027 
-0.5999957 -0.76031077 0.24886277 
-0.29032645 -0.9264151 0.23972 
0.26697978 -0.42642736 -0.8642232 
-0.47639057 -0.70846385 -0.5207025 
-0.6551976 -0.6654918 -0.35754257 
-0.9664264 -0.17208679 -0.19080451 
-0.75600356 -0.083666 -0.6491984 
-0.9736062 -0.059830226 -0.22025305 
-0.507801 -0.3235271 -0.79841614 
-0.3475629 -0.3614947 -0.8651715 
-0.05949983 -0.15386257 -0.9862993 