# OOMMF: rectangular mesh v1.0
# Segment count: 1
# Begin: Segment
# Begin: Header
# Desc: Time (s) :  1.9899999999999968e-07
# Title: m
# meshtype: rectangular
# meshunit: m
# xbase: 2e-09
# ybase: 2e-09
# zbase: 5e-10
# xstepsize: 4e-09
# ystepsize: 4e-09
# zstepsize: 1e-09
# xmin: 0
# ymin: 0
# zmin: 0
# xmax: 1.024e-06
# ymax: 1.024e-06
# zmax: 1e-09
# xnodes: 256
# ynodes: 256
# znodes: 1
# ValueRangeMinMag: 1e-08
# ValueRangeMaxMag: 1
# valueunit: 
# valuemultiplier: 1
# End: Header
# Begin: Data Text
0.49037805 0.6256662 0.6066888 
0.0830341 0.8832312 -0.46152794 
0.4937015 0.54884183 -0.6745602 
0.25653848 0.643621 -0.7210687 
0.17434761 0.91959035 -0.35207465 
0.042474166 0.9121766 -0.40759036 
-0.6839927 0.562172 0.46488354 
-0.5676939 0.7715231 0.2871858 
-0.57250863 0.19055945 0.7974466 
-0.60716325 0.53661114 0.58600456 
-0.64412785 -0.3278484 0.6910968 
-0.52370876 -0.17218906 0.8343141 
-0.84703654 -0.38462633 -0.3668677 
-0.2943079 -0.8908843 -0.3459887 
0.16580632 -0.5071158 -0.84577894 
0.34453398 -0.70685095 -0.61778486 
0.63190514 -0.68949586 -0.35396525 
0.96337175 -0.09586755 0.2504483 
0.79329944 0.23339322 0.5623199 
0.77941275 0.62174225 0.077151865 
0.61171967 0.6137321 0.4991312 
0.24902166 0.03873661 0.967723 
0.1232533 0.16658156 0.97829413 
0.15079404 -0.18327579 0.97142744 
0.49474695 0.4881539 0.7189794 
0.21134344 0.7251418 0.65536505 
-0.015837263 0.906602 0.42168942 
-0.14817065 0.47129446 0.8694406 
-0.73458123 0.43127862 -0.52382165 
-0.13872124 0.85929066 -0.4923171 
-0.3479409 0.65309054 -0.67261434 
-0.3207788 0.88712966 -0.33181638 
-0.38805595 0.92162025 -0.0053689866 
-0.8827346 0.4244229 0.201606 
-0.5930858 0.25602043 -0.76334983 
-0.6287322 0.76457417 -0.14185245 
-0.31916034 0.060054336 0.94579613 
-0.71979463 -0.16140269 0.67516285 
-0.38929886 0.26899558 0.88095844 
-0.6070743 0.31322744 0.73030776 
-0.6699868 0.10886906 0.73434687 
-0.7809173 0.5144866 0.35422015 
0.3988007 -0.47792304 0.78265417 
0.70355463 0.33200744 0.6283169 
0.96725374 0.21941842 0.12757683 
0.31960213 0.5388576 0.7794145 
-0.3124127 0.56385434 0.7645042 
0.01398049 0.6436961 0.7651535 
-0.5964651 0.7577372 0.26469547 
0.19450459 0.9515458 -0.23817803 
-0.06311715 0.7731158 0.6311167 
-0.48999345 0.81600666 0.30665863 
-0.69557196 0.6246284 0.3549916 
-0.12536007 -0.10237537 0.98681515 
0.3730858 0.66063696 0.65143365 
0.5038208 0.8192924 0.27372348 
0.09763249 0.9003772 0.42401513 
0.30468002 0.5390445 0.78523964 
0.36011383 0.88546586 -0.29371485 
0.048785824 0.68884194 -0.7232681 
-0.17251167 0.94494635 -0.2780581 
-0.07402845 0.9780953 -0.1945495 
0.085991144 0.9053894 0.41578323 
0.42040375 0.8374813 0.34912136 
-0.16745189 0.94877523 0.26792824 
-0.011583287 0.8001409 0.5997002 
-0.43239182 0.7799763 0.4524095 
0.0067230146 0.81730187 -0.5761705 
-0.4250792 0.88878304 -0.17138378 
0.091174774 0.9848386 0.14758113 
0.4573807 0.42950332 -0.7786718 
-0.37958643 0.68415904 -0.6227685 
-0.19106735 0.96804726 0.16241306 
-0.49330306 0.85058963 0.18206961 
-0.3408362 0.5541009 0.75947547 
-0.36236405 0.91367036 0.18411617 
0.7318135 0.5552878 0.39510068 
0.14740181 0.78750104 0.59842694 
0.14188932 0.5922219 0.7931839 
-0.72824085 0.5077819 -0.46024227 
-0.63327223 0.4962136 -0.59391785 
-0.6023203 0.3428759 -0.720865 
-0.39457875 0.08354024 -0.9150567 
-0.031391457 0.12598424 -0.9915355 
-0.2893896 0.48366165 -0.8260297 
-0.90781415 0.27550194 -0.31618378 
-0.5478939 0.7650372 -0.3384233 
-0.111323 0.99063706 -0.07902752 
-0.13887917 0.98817885 -0.06492588 
0.29821882 0.95404166 0.02949853 
-0.5345775 0.8296509 -0.16095446 
-0.765343 0.40413675 -0.500923 
-0.8372275 -0.22369006 -0.4990119 
-0.83769757 -0.1747118 -0.5174348 
-0.12463987 -0.43398616 -0.8922562 
-0.6234971 -0.3870365 -0.67930424 
-0.17053552 0.026485942 -0.9849955 
-0.32315445 0.34608343 -0.8807937 
0.3601278 0.7637535 -0.5357132 
0.3321183 0.70165795 0.6303758 
0.26682153 0.94446725 0.19180223 
0.8258151 0.39833495 -0.39919776 
0.64551455 0.119452864 -0.75434875 
0.34312415 0.3066528 -0.8878231 
0.9413313 -0.2986181 -0.15723453 
0.9865395 -0.08905625 0.13714558 
0.07772994 0.64680564 0.75868344 
-0.52324677 0.6050847 0.60007113 
-0.2580986 0.80681604 -0.53144413 
0.16545504 0.9371304 0.3072644 
0.4860387 0.75185484 -0.4455118 
0.0008233322 0.50744957 0.86168116 
-0.06928276 0.540613 0.83841366 
-0.045392606 0.16660903 0.98497766 
-0.60889316 0.69323796 0.38557795 
-0.6911034 0.7170488 0.090648755 
-0.6982007 -0.1741642 -0.6943937 
-0.46761948 0.57025933 -0.67537874 
-0.32238486 0.3844165 -0.86503875 
-0.244162 0.7070504 -0.6636751 
0.54035115 0.47610602 -0.6937895 
0.44311374 0.2408054 -0.8635178 
0.6493251 -0.36472842 -0.66734564 
0.2540542 -0.05313274 -0.9657295 
-0.010959336 0.9413991 -0.33711666 
-0.44463328 0.54472876 -0.7110358 
0.35627463 0.7391008 -0.57166284 
0.34204707 0.8477026 -0.40546787 
0.09875401 0.31875467 0.9426787 
-0.4604378 0.5872635 0.6656715 
-0.52412707 0.66616964 0.53057414 
-0.005356715 0.27484053 0.96147496 
0.2903513 0.48483798 0.82500196 
-0.5089126 0.6184996 0.5987206 
-0.8408424 0.5412553 -0.005172934 
-0.11187086 0.3379355 0.93449694 
0.45899013 0.8411019 0.28613904 
0.41737342 0.5482072 0.724754 
0.0065805395 0.64416575 0.76485765 
0.25208342 0.7869042 0.56323695 
-0.47917128 0.7122054 0.5129896 
-0.37143853 0.91449565 0.16040957 
-0.38149813 0.90713966 0.17764272 
-0.57342887 0.81351453 -0.09681675 
-0.8342585 0.4990726 -0.23439121 
-0.013522168 0.65615165 -0.75450796 
0.20796958 0.40565497 -0.89005214 
-0.44579133 0.8833255 -0.14493476 
0.07565513 0.99100965 -0.11034567 
-0.769583 0.627899 0.11612525 
-0.6072664 0.6921847 -0.39001024 
0.63554955 0.6042893 -0.48053226 
0.25375235 0.84547156 -0.4698806 
-0.06312034 0.5179396 -0.8530852 
0.51857173 0.8460802 -0.12341717 
0.99225557 0.10949382 0.05865162 
0.49242887 0.61637723 0.614486 
-0.04325763 0.4420616 0.895941 
0.6025078 0.25781766 0.755324 
0.09765109 -0.45177704 0.88677055 
0.361013 0.5396578 0.76055187 
0.511379 0.7790751 0.3626758 
0.7536454 0.5304282 0.38815522 
0.67280567 0.58168244 0.4571413 
0.5701514 0.5496395 0.61059296 
-0.004306947 0.80121106 0.5983665 
-0.25850686 0.68850255 0.67759764 
-0.57175 0.7917371 0.21506849 
-0.84234816 0.49271637 0.21835846 
-0.8234094 0.5629933 -0.070962794 
0.6152175 0.7074699 -0.34784165 
0.8203454 0.57184297 0.005394891 
0.5210769 0.69936806 -0.48924753 
0.295939 0.8575304 -0.42078704 
-0.24558046 0.35930943 -0.9003261 
0.025493002 0.47215506 -0.88114685 
0.34696686 0.10089217 -0.93243486 
0.462823 0.23813403 -0.853866 
0.90523636 0.40717974 0.121457025 
0.6333649 0.635401 0.4417177 
0.90766084 -0.26792574 -0.32305983 
0.8737933 0.30227795 -0.38093743 
0.047634248 0.98591894 0.16029617 
0.017666342 0.6347189 0.77254117 
0.1271026 -0.23855871 0.9627745 
-0.17145778 0.08575399 0.9814522 
-0.3928283 0.8622586 0.31968117 
-0.28920528 0.85761946 0.42526382 
-0.44982147 0.81755036 0.35954425 
-0.27702186 0.95255864 -0.12605987 
-0.344785 0.8667494 0.3603732 
-0.3411397 0.579798 0.7399041 
-0.42497626 0.90520304 -0.0016998457 
0.099255 0.9950618 0.000691003 
0.37430936 0.52902323 0.7615951 
-0.022107875 0.789741 0.61304206 
-0.5012404 0.7719128 -0.39103556 
-0.8215894 0.5698899 0.014715638 
-0.628649 0.653599 0.42143652 
-0.66628027 0.62609565 0.40506163 
-0.7793441 0.2146472 0.58868456 
-0.55781174 0.38295597 0.7363361 
-0.38625655 0.882211 0.2692758 
-0.9304579 0.12993385 0.34258625 
-0.7409774 0.6086929 0.2836292 
-0.59766036 0.12249739 0.79233605 
-0.31622323 0.6557138 0.6855963 
-0.4250768 0.7723955 0.47192684 
0.232528 0.8012716 -0.55126643 
-0.96372974 0.23071682 -0.13414432 
-0.35560146 0.9101638 0.21248433 
-0.5943467 0.44883004 -0.66731083 
-0.11650382 0.9437487 -0.30945963 
0.94090956 0.18469529 -0.28386086 
0.99532354 -0.073602945 -0.06255877 
0.971581 -0.041797172 0.2329882 
0.9211274 0.35976228 0.1486459 
0.6106179 0.23642723 0.7558095 
0.11641789 0.40200096 0.9082082 
-0.54918736 0.7525998 0.36329988 
-0.10923962 0.74624443 0.65664756 
0.4226199 0.7868851 -0.4496713 
0.90626043 0.3895524 0.16413732 
0.16123267 0.69554794 -0.7001551 
0.8251238 0.4551346 0.33469877 
0.61727834 -0.15798777 0.7707188 
0.5406218 -0.44366297 -0.7147666 
0.2686166 0.19161542 0.94399613 
0.3864322 0.7136368 0.58428824 
0.71885103 0.44679573 0.53256637 
0.37216982 0.80307835 0.4653545 
0.16151099 0.95560104 0.24645686 
-0.16726418 0.9303245 0.32637283 
-0.30790687 0.37706587 0.87350714 
0.07701869 0.5530804 0.8295603 
-0.6726554 0.30183598 0.6755959 
-0.70382065 -0.4250408 0.56918967 
-0.6610296 -0.35783646 0.65954006 
-0.63086516 0.097551584 0.7697356 
-0.7799937 0.577001 0.24223872 
-0.2911205 0.8451268 0.44834107 
-0.55984503 0.8279258 0.03335338 
0.23683105 0.43101692 0.87070984 
0.23917407 0.72457886 0.6463601 
-0.014398281 0.97740906 0.2108658 
-0.61185986 0.5343289 0.5831983 
-0.35191536 0.5031406 0.78930676 
-0.07131221 0.89849627 0.43315023 
-0.514653 0.7669586 0.38328442 
-0.5802976 0.6138232 -0.5352344 
-0.12225751 0.98862994 -0.08754508 
0.4071963 0.73362094 0.54405105 
-0.055077128 0.9619957 0.26745242 
-0.3722639 0.868094 0.3283783 
-0.91433644 0.2664474 0.3049504 
-0.57966983 -0.43254218 0.6905723 
0.5620721 0.826134 -0.039717942 
-0.11779465 0.88253766 -0.45524907 
-0.08888494 0.9269498 -0.36450458 
0.56036973 0.6132098 -0.5567402 
0.50314724 0.6813246 0.5316386 
0.6292036 0.77723867 0.0017173326 
-0.010821975 0.436879 0.8994552 
-0.73111683 0.37278095 0.57140416 
-0.624426 0.4350998 0.6486759 
-0.42854992 0.2790615 0.8593427 
-0.7700743 0.0021459588 0.6379506 
-0.72266006 -0.3878965 0.57210034 
-0.64502716 -0.678282 -0.35195664 
0.061502088 -0.6611294 -0.7477469 
-0.6403947 -0.39528367 -0.65851766 
0.31122085 -0.94996804 0.026502704 
0.80163443 -0.35032463 0.4844119 
0.7257214 -0.3936164 -0.56426466 
0.849808 0.3763008 0.36908555 
0.75350416 0.6001991 -0.26831454 
0.46028736 0.864813 0.20058444 
0.3375209 0.020527137 0.9410943 
0.20526254 -0.119723104 0.9713567 
0.18287106 0.61466426 0.7672979 
-0.009256186 0.33210298 0.9431978 
0.010745308 0.40695435 0.9133854 
0.4154636 0.53705496 0.73414034 
0.020958994 0.32389298 0.9458616 
-0.9807189 0.19157448 0.038597386 
-0.3564109 0.859808 -0.36565217 
-0.07745286 0.9963069 -0.037063297 
-0.25043362 0.8133837 -0.52506185 
-0.89563483 0.2195806 0.38681087 
-0.8573315 0.4808593 0.18373093 
-0.9672246 0.24002571 -0.08285142 
-0.89836794 0.43920377 -0.0059262835 
-0.4955723 -0.32985145 0.8034963 
-0.92123336 0.3176687 0.22453438 
-0.8208947 -0.24026299 0.51807874 
-0.27601868 0.12992798 0.95233 
-0.08258922 -0.38880727 0.91760993 
-0.32460555 -0.3598558 0.8747201 
0.07425173 -0.58586466 0.8070003 
0.75438756 0.23854642 0.6115514 
0.30872148 0.43186966 0.8474548 
0.37052527 0.32449368 0.87029594 
0.40996045 0.437528 0.8003136 
0.1671114 0.48999107 0.8555598 
-0.24651878 0.9286832 0.27708465 
-0.1690336 0.98448014 0.04718495 
0.37120047 0.8928073 0.25515747 
-0.15556633 0.8783741 0.45194903 
-0.1683137 0.53970176 0.8248591 
0.060754184 0.8315503 0.552117 
0.3471664 0.48323452 0.80371636 
0.046916135 0.303651 0.9516276 
0.8263883 0.008514189 0.5630364 
0.46931106 0.4018631 0.7862909 
0.013890651 0.62404174 0.78126764 
-0.06626192 0.85967237 0.50653005 
-0.31397787 0.94798124 0.052436054 
0.20127706 0.9080548 0.36731997 
0.3257243 0.8729866 0.36304003 
0.2838766 0.8990608 0.33332264 
-0.4656504 0.6646208 0.5843363 
-0.34499007 0.88852555 0.30249667 
-0.09480732 0.8914232 0.4431436 
-0.6553063 0.7343902 -0.17676193 
-0.8584585 0.50389576 -0.09559399 
-0.36537442 0.8514134 -0.3762934 
-0.037224635 0.9772055 -0.2090068 
0.11320346 0.9597599 0.25699395 
-0.045961194 0.76214397 0.64577407 
0.018387783 0.26546034 0.9639464 
-0.50632983 0.7917579 0.34168643 
-0.49713635 0.6310377 0.59552234 
-0.085648336 0.89896345 0.42956844 
-0.1694322 0.8614462 0.47875175 
-0.06019368 0.99234813 0.1078054 
-0.51929665 0.69716793 0.4942549 
-0.63977516 0.7416688 0.20153238 
-0.8653733 0.08322337 -0.49416912 
-0.65093046 0.3371778 -0.6801476 
-0.76353824 0.6452665 0.025310984 
-0.9318989 0.2694045 -0.24286963 
-0.45805192 0.876169 0.15005416 
-0.744763 0.2983087 0.5969422 
-0.66257626 0.74880177 0.01699072 
-0.3539183 0.91713583 0.18331338 
-0.22457536 0.94514453 0.23720834 
-0.74429137 0.6185643 -0.2518107 
-0.06363485 0.93328744 -0.35344756 
-0.9514265 0.30507576 -0.0414306 
-0.9570271 0.054931648 -0.28474846 
-0.5336389 0.49728227 -0.6840614 
-0.32659352 0.67119247 -0.6654603 
0.10779691 0.6648599 -0.73914903 
-0.4584954 0.8470788 -0.26877412 
0.7065271 0.6183399 -0.34420237 
0.8391484 0.47462386 0.2656357 
0.35232776 0.92905694 0.11277581 
0.4862352 0.6384652 -0.59660506 
0.75955135 0.6086157 -0.22949685 
0.5128876 0.6179284 -0.59591186 
0.473856 0.6007615 -0.64385265 
0.9625987 0.25767165 -0.083721146 
0.65511525 0.14985923 0.7405176 
-0.51873296 0.13655256 0.8439606 
-0.2989203 0.79338884 0.5302649 
-0.6911914 0.5555437 -0.46219656 
-0.027834807 0.96468973 0.26191416 
-0.3013023 0.8950258 0.32885557 
0.05351347 -0.028839773 0.99815065 
-0.034693126 0.24663259 0.96848786 
-0.5791339 0.53311133 0.6167627 
-0.31720725 0.6713527 0.6698248 
-0.5020887 0.754997 -0.42176595 
-0.2913647 0.825876 -0.48273733 
-0.06263258 -0.053456314 -0.9966041 
0.1970299 0.5635977 -0.8022076 
-0.14270596 0.9343056 -0.32666218 
-0.23587967 0.5793813 -0.78017825 
0.2522854 0.26913613 -0.92947185 
0.5343733 0.7186855 -0.4449005 
0.55357605 0.73942024 0.38315973 
0.26894268 0.9358954 0.22752954 
0.19725278 0.8715839 0.44881284 
0.15889901 0.8263679 0.5402475 
-0.5144393 0.8235551 0.23897547 
-0.4284513 0.9018854 0.055066098 
-0.0039592236 0.8760676 -0.4821721 
0.25584415 0.9489174 0.18466109 
0.3151465 0.5956722 0.7388216 
-0.19196604 0.8074068 0.55789185 
0.7228828 0.48768434 0.48949403 
0.6512684 0.6631281 0.36893168 
0.5554838 0.8140832 -0.16942945 
0.021489609 0.67462975 0.7378434 
0.093045786 0.49200007 0.86560875 
0.34393117 0.3966872 0.85108805 
-0.16319697 0.68518597 0.70984995 
0.051864553 0.85271156 0.5198011 
-0.28806815 0.6159725 0.7332085 
-0.3920594 0.34161165 0.85416096 
-0.761182 0.61658394 -0.20106284 
-0.69004077 0.72361404 0.015051229 
-0.9333172 0.35784563 0.029419167 
-0.36574757 0.78436697 0.50099623 
-0.2355931 0.96049964 0.14810964 
-0.61416316 0.74044955 0.27301678 
-0.52323884 0.37400305 -0.7657304 
0.60764253 0.7152409 -0.34525514 
0.1903057 0.8302268 -0.5239345 
0.5745994 0.6273903 -0.5255635 
0.9284951 0.36619973 -0.061599527 
0.8173519 0.2864652 0.49987358 
-0.017522028 0.24614482 0.9690747 
-0.29493394 0.21150018 0.93181634 
0.021526506 -0.34202674 0.93944365 
-0.37949362 -0.49925876 0.7789257 
-0.8011243 0.21098553 0.5600759 
0.9679862 -0.15880792 -0.19437803 
0.895009 0.35793215 0.2661646 
0.5982495 0.55050373 0.58227426 
-0.5743127 0.3098758 0.75772154 
-0.8155617 0.5548847 0.16420193 
-0.6438536 0.6971715 0.3152849 
-0.45601785 0.8362709 0.30446476 
-0.3613044 0.3488961 0.8647143 
-0.6668192 0.7443874 -0.035207596 
0.11064867 0.8844533 0.45332026 
0.3837483 0.9118788 0.14565113 
0.37862605 0.72946286 0.56967217 
-0.25379914 0.9672553 -0.0018173284 
0.502978 0.86378616 -0.029774891 
0.5966916 0.49733564 -0.6297749 
-0.07661243 0.51110166 -0.8560991 
0.5335001 0.67563474 -0.50881773 
0.85908365 0.32921728 0.39190733 
0.810521 0.032268286 0.58482003 
0.9747622 0.16733918 0.14777133 
0.5236405 0.8486286 0.07503406 
0.3412351 0.76583683 0.54502535 
0.8925677 -0.16643317 0.4190741 
0.53187215 0.6378714 0.55698496 
-0.25315663 0.7619188 0.59614724 
0.116768144 0.6362624 0.7625847 
-0.018911676 0.95938087 0.28147966 
-0.1308186 0.9495828 0.2849194 
-0.55379474 0.8278772 -0.089054696 
0.12991309 0.7275212 0.6736732 
-0.1767735 0.15386955 0.9721499 
0.6068838 0.70088106 0.37477702 
0.07141454 0.9258569 0.37106484 
0.42496368 0.8535009 0.3015662 
-0.17400536 0.97960657 -0.10046492 
-0.7449656 0.6659595 0.03904338 
-0.26256803 0.94128984 -0.21220665 
0.14996272 0.846735 0.51044214 
-0.5000412 -0.24166109 0.83160007 
-0.65743864 -0.17730865 0.7323498 
-0.47790128 0.49204582 0.7276684 
-0.53793395 0.47966287 0.69321764 
-0.25567186 -0.29882768 0.9194205 
-0.3635447 -0.06738001 0.9291368 
-0.5972312 0.7046318 0.3831566 
-0.40429065 0.8416839 0.35793477 
-0.3035363 0.9496426 0.077746935 
0.022338962 0.95120555 -0.30774844 
-0.4365637 0.69100314 -0.57613087 
-0.19805086 0.8793802 -0.4329737 
-0.50629413 0.7404938 -0.44196758 
-0.6215642 0.7592728 0.19277637 
-0.084185496 0.96466815 0.24965605 
0.7052914 0.502036 -0.5005237 
0.7186174 0.17451757 0.67315143 
0.92046726 0.07844996 0.38286516 
0.51277065 0.21573961 0.83097696 
-0.041619774 0.5755114 0.8167341 
-0.19038618 0.7256962 0.66114914 
-0.052335024 0.97086763 0.23383114 
0.33052632 0.8141698 -0.4773677 
0.9724376 0.1571764 -0.17222293 
0.980684 0.15308474 0.12175352 
0.4035209 0.27946508 0.8712464 
0.6015469 0.5228111 0.603995 
0.26276 0.8065359 0.52958184 
-0.19173062 0.50756025 0.84001315 
0.022224644 -0.22042252 0.9751513 
-0.073470615 0.806731 0.5863337 
0.058134988 0.5988399 0.798756 
-0.19913174 0.9689192 -0.14677268 
-0.2961617 0.74416053 0.59875995 
-0.08608101 0.47359097 0.8765282 
0.103079386 0.022880917 0.9944099 
-0.60134244 -0.22779512 0.7658308 
-0.26792356 -0.42603096 0.86412644 
-0.037243072 -0.37522823 0.92618394 
-0.42600736 0.37122312 0.8250522 
-0.6171383 0.6988209 -0.36164868 
-0.09006555 0.74395216 0.6621356 
-0.42525938 0.44949147 0.7855647 
-0.02002866 -0.21894878 0.9755308 
0.05324141 0.19831039 0.9786922 
-0.1875528 -0.33099565 0.9248059 
-0.13186127 0.31656012 0.9393627 
-0.15518755 0.82193905 0.5480266 
-0.6250252 0.65566903 0.42360568 
-0.4310259 0.9019289 -0.027218545 
-0.26037294 0.9152795 -0.3073586 
-0.047252465 0.78980803 0.61153144 
-0.17161937 0.6998849 0.6933311 
0.43746558 0.62476254 0.6467579 
0.30919775 0.87717336 0.36737403 
-0.735399 0.5581675 0.38423622 
-0.99396557 -0.067674205 -0.086329564 
0.6828652 0.696803 -0.21945593 
0.11879433 0.9357973 -0.3319207 
0.36241806 0.9238967 0.12275224 
0.57440674 0.81851023 -0.009892834 
-0.13184096 0.9910139 -0.02257183 
-0.3747122 0.9270517 -0.012880686 
-0.2577888 0.9603274 0.10637782 
-0.49242643 0.8682209 -0.060900386 
-0.2814968 0.4531782 0.8458067 
-0.618044 0.014243516 0.7860145 
-0.7517041 -0.3116616 0.58121264 
-0.9126216 -0.30213392 0.27538505 
-0.75929344 -0.18330978 -0.6243966 
-0.2901774 -0.072556876 -0.9542184 
0.29049838 -0.6451565 -0.706671 
0.5655094 -0.81405014 0.13236879 
0.88196874 -0.33926755 0.32715237 
0.9338329 0.12772961 0.33412766 
0.9045002 -0.2767895 0.32444894 
0.84111094 -0.3819067 0.38298818 
0.6161075 0.1555129 0.7721576 
0.61785847 -0.07347968 0.78284854 
0.37735605 0.31463486 0.8709806 
-0.076548114 0.7827617 0.6175959 
0.6968137 0.1568454 0.699893 
-0.5630117 0.39063016 0.72830343 
-0.089798026 0.7904988 0.6058449 
0.693713 0.5529271 0.4615561 
-0.2332456 0.7398903 0.63099843 
0.11233281 0.8976101 0.42623657 
-0.35783383 0.9204596 -0.1571917 
-0.5828095 0.23491691 0.7779121 
-0.9667203 0.14885315 0.20807377 
-0.7094384 -0.39619306 0.5828622 
-0.8555575 -0.089876205 0.5098466 
-0.77615947 0.053738225 0.62824255 
-0.30623898 -0.18985549 0.93283045 
-0.47722256 -0.026458234 0.8783842 
-0.12866792 -0.2035235 0.97057855 
0.055080224 -0.76102585 0.64637905 
0.3044751 0.04846506 0.95128655 
0.17089978 0.10095634 0.98010266 
0.36060962 -0.10106509 0.9272252 
-0.05522117 0.63878137 0.7674041 
-0.0018609012 0.5774817 0.81640154 
0.55324 0.25893107 0.79175776 
0.27636734 0.4631719 0.8420766 
0.41346958 0.43753722 0.79850113 
0.049861647 0.5669847 0.82221794 
-0.78443825 0.5234883 0.33259085 
0.17315769 0.48497924 0.85721153 
0.41373852 0.41493306 0.81034005 
-0.5179254 0.54187864 0.6619071 
-0.089146934 0.60387224 0.7920804 
0.11172616 0.029070575 0.9933137 
0.31953734 0.06132719 0.94558704 
0.34372005 -0.2277659 0.911032 
-0.20611708 0.17460968 0.96282256 
-0.93394506 0.11885664 0.33707532 
-0.2576165 0.33762735 0.90534055 
-0.35889003 0.78411627 0.5063198 
-0.62432766 0.78116107 -0.0015584583 
0.016001558 0.99936116 -0.031958845 
-0.45261532 0.2625477 0.85217845 
-0.6522494 0.5888849 0.47726867 
-0.74458915 0.48361573 0.4601118 
-0.51881003 0.74091935 0.42646778 
-0.71383524 0.63917357 -0.28617564 
-0.018498065 0.9765972 -0.21427989 
0.564305 0.8089095 0.16500118 
0.38725168 0.92191565 -0.010378128 
0.8996231 0.34166986 0.27191946 
0.4751586 0.6873574 0.5493306 
0.47731116 -0.096236676 0.87344867 
0.44408023 -0.03341395 0.8953638 
0.23889974 0.3177367 0.9175895 
-0.07559518 0.19326685 0.9782297 
-0.32564777 -0.4225874 0.84579754 
0.1907397 0.6535952 0.73241496 
-0.25801513 0.628791 0.7335191 
-0.14273486 0.9660709 0.21525314 
0.12958746 0.99018204 -0.05240831 
0.12828702 0.9451006 -0.30054516 
-0.08877296 0.98957294 0.11342343 
-0.38452858 0.64023083 0.665013 
-0.2807706 0.49711922 0.8209997 
-0.21180512 0.19997415 0.95663416 
-0.50128347 0.34034365 0.79553837 
-0.43893173 0.4930516 0.75115854 
-0.505812 0.616033 0.60386896 
-0.21014412 0.97517425 -0.069818825 
-0.34949568 0.69509757 0.62824535 
-0.7388341 -0.28675574 0.6098323 
-0.94446653 0.32781944 -0.02274516 
-0.8042496 0.28432947 -0.5218616 
-0.34674448 0.15205628 -0.92555237 
-0.60796916 0.66823274 -0.4287641 
0.5092565 0.8250109 -0.24497926 
0.9187653 -0.08116507 0.38637117 
0.6422953 0.6663721 0.37868872 
0.05548898 0.34696838 0.9362339 
0.7649739 0.57098275 0.29798257 
0.62486887 0.45186275 0.6366781 
0.19557767 0.84233695 0.5022131 
0.7749201 0.5708172 -0.27141592 
0.7638564 0.40151718 0.5052796 
0.54825824 0.3756587 0.7471904 
0.015071962 0.35518584 0.9346742 
-0.5223319 0.49221307 0.6963446 
-0.37104982 0.8973696 0.23885117 
0.68347704 0.3341347 0.6490094 
0.23382416 0.5031008 0.8319952 
-0.61340046 0.10979143 0.7821034 
-0.6340626 0.44160154 0.63478565 
-0.01737971 0.4065459 0.913465 
-0.46317458 -0.04383654 0.8851823 
0.032506082 0.6822964 0.7303527 
0.40319377 0.82178456 0.40262255 
0.6735884 0.5877885 0.44808856 
0.50557727 0.60149467 0.6185434 
-0.55037594 0.67572045 0.49039605 
0.5221268 0.68953115 0.5019269 
0.48587215 0.86495835 -0.12559973 
0.47662666 0.87810564 0.041924015 
0.6847549 0.32887504 0.65034765 
0.70111173 0.48725796 0.5205978 
0.6587425 0.50849634 0.5545177 
-0.36909035 0.75877976 0.5366802 
-0.39470118 0.90439874 0.16209294 
-0.16179247 0.98331976 0.083099134 
0.10031804 0.96625286 -0.23725897 
0.010014776 0.77766365 0.6286009 
0.51658857 0.1763159 0.83788365 
-0.3640114 0.11722749 0.92398775 
0.0919035 0.016501425 0.9956313 
-0.5220458 -0.043714605 0.85179657 
0.3534876 0.83412814 0.42341077 
0.22317538 0.29362506 0.9295037 
0.48349828 0.70987296 0.5121619 
-0.5105137 0.33198556 0.79319704 
-0.32623073 0.9363345 0.129812 
-0.115834326 0.92883074 0.35193175 
-0.79900277 0.5926913 0.101546235 
-0.57027227 0.7617397 0.30747724 
-0.6007714 0.7989987 -0.025974667 
-0.61779255 0.786341 -0.00037180108 
-0.53886217 0.77355254 0.3335329 
-0.9645573 -0.063456945 0.25613004 
-0.23138481 0.9290182 0.28876683 
-0.24448432 0.751866 0.6123112 
-0.4885006 0.8488112 0.20220496 
-0.5309248 0.834274 -0.14868021 
-0.3954313 0.7803785 -0.4844001 
0.69368994 0.683658 -0.22672915 
0.46624732 0.88357717 -0.043646794 
0.1501877 0.66291976 0.73347193 
0.7470064 0.21979868 0.62743133 
0.068896316 0.006998974 0.99759924 
0.21739098 -0.23314315 0.947832 
0.07746866 -0.4692288 0.8796721 
-0.59564537 -0.62932235 0.49915925 
0.7217526 0.11566818 0.6824178 
0.7458439 0.29921237 0.5951378 
0.44786048 0.20579864 0.87009656 
0.45880654 0.46757358 0.75556046 
-0.46299797 0.7836514 0.4141539 
0.27347106 0.6895706 0.6706012 
0.4719774 0.74960726 0.4640326 
-0.052099265 0.70778525 0.7045039 
-0.7499124 0.6609769 0.02722019 
-0.42752454 0.86879766 -0.2498268 
-0.28928912 0.95591027 -0.050472908 
0.2937089 0.4770001 0.8283755 
-0.09389782 0.7197152 0.6878905 
0.06067987 0.91873074 0.39019468 
0.1304468 0.9903407 -0.046999857 
-0.19927222 0.94085455 -0.2740136 
0.92857665 0.33439344 -0.16101672 
0.84715515 0.517767 0.11935497 
0.83939517 0.50000167 0.2131063 
0.484985 0.86071026 0.1548141 
0.4504733 0.39627397 0.8000256 
0.33352748 0.20943055 0.9191835 
0.54205763 0.42596936 0.72437817 
0.8933172 0.1473355 0.42458987 
-0.19987395 -0.1481347 0.968559 
-0.32942817 0.024442097 0.9438642 
-0.22901021 0.47768533 0.8481575 
-0.34915605 0.7995819 0.4886297 
-0.29316446 0.77604175 0.55840296 
-0.12130766 0.84274304 0.5244699 
0.04073596 0.9180928 0.39426693 
0.394678 0.8300997 0.39390838 
-0.38070214 0.5196646 0.7648626 
0.11837364 0.9071217 0.4038786 
-0.05023029 0.8210763 0.5686042 
-0.5488322 0.54404694 -0.63466233 
-0.20275374 0.978615 0.034694735 
0.20517944 0.75337225 0.62476546 
-0.31192097 0.39138436 0.8657504 
-0.4441515 0.090800926 0.89133877 
-0.76104856 0.56948483 0.31063202 
-0.029573679 0.23598911 0.97130567 
0.08170508 0.3844347 0.91952944 
-0.49630457 0.61637205 0.6113652 
-0.7520872 0.24732469 0.61089724 
-0.38197705 0.8508119 0.36084998 
-0.078545265 0.94849783 0.3068918 
0.5335791 0.8416412 0.08326739 
0.4846959 0.8345054 -0.26205093 
-0.5271974 0.75955087 -0.38097966 
0.03905561 0.93453884 0.35371143 
-0.23867628 0.7472055 -0.6202562 
0.58752894 0.7388994 0.32990512 
0.28887618 0.78015494 0.5548954 
-0.24031529 0.60226583 0.76126504 
0.43174988 0.18391928 0.8830434 
-0.31300473 0.13146383 0.94060904 
-0.072752334 -0.2442827 0.9669711 
-0.5329668 -0.4475647 0.7180754 
-0.33290523 0.8777932 -0.34446082 
0.47740197 0.6391914 -0.6029277 
0.8374785 0.032005087 -0.54553235 
0.7679233 0.10895288 -0.6312077 
0.78024113 0.59445405 0.19454649 
0.02922266 0.1648008 0.9858939 
0.5026198 0.10365456 0.858271 
-0.06763337 0.52768445 0.8467437 
0.33618906 -0.27265385 0.9014637 
0.36582708 0.7109454 0.60060567 
-0.3095491 0.80932045 0.49917915 
-0.8134583 0.49938 0.2981698 
-0.8361724 0.49629992 0.23345716 
-0.3962723 0.41808254 0.81742 
-0.3165494 0.6612753 0.68008196 
-0.1722257 -0.16403173 0.9713043 
-0.4673557 -0.60905856 0.6408014 
0.60568845 -0.22663492 0.7627439 
-0.44875768 -0.15790619 0.87959206 
-0.29694882 0.4225427 0.8563172 
0.019464906 0.26942965 0.96282333 
-0.5110303 -0.5622877 0.650139 
-0.13384858 -0.03596297 0.9903491 
0.15855667 -0.33328116 0.92939955 
-0.45440504 -0.57616115 0.679378 
-0.1420346 0.6419719 0.7534575 
-0.45887712 0.54382443 0.7026286 
0.26043117 0.7596504 0.59590864 
0.3571527 0.6667673 0.65411264 
0.29836458 -0.028680075 0.95402104 
0.15107825 0.5999346 0.785655 
0.05672207 0.475013 0.87814885 
-0.2398418 0.44262642 0.8640358 
-0.71154934 -0.26874846 0.6492086 
-0.995092 0.09890408 0.0031499737 
-0.97968817 -0.017469263 -0.1997649 
0.33414644 0.58013463 0.7428257 
0.25415608 -0.1057725 0.961362 
0.06368904 0.91266143 0.40372372 
0.20492032 0.7877223 0.58094877 
0.054167073 0.9146661 0.40056437 
-0.8310518 0.53878635 0.13806552 
-0.6935034 0.11373263 0.7114197 
-0.5362774 0.83379245 -0.13113655 
-0.7735919 0.57020736 -0.27644038 
-0.5115826 0.41153684 0.75426835 
-0.9756784 0.019149836 0.2183689 
-0.8654308 -0.016610796 -0.5007531 
-0.5375226 0.23281722 -0.8104725 
0.062421422 0.37404644 -0.925307 
0.19056387 -0.39641064 -0.898078 
0.47199413 -0.62124085 -0.62552494 
0.40309548 -0.67816865 0.6144928 
0.603514 -0.32243517 0.72925067 
0.7138904 -0.6667899 0.21389699 
0.8535358 0.33707517 0.39731237 
0.6522938 -0.5446243 0.52715963 
0.51676196 0.10332104 0.84987164 
0.5962385 -0.31502742 0.7384155 
-0.11714195 0.6526338 0.74856323 
0.32347062 0.2690244 0.9071895 
-0.0708538 0.38368356 0.92074245 
0.35469168 0.11324522 0.92809993 
0.292369 -0.61665094 0.7309323 
-0.2638237 -0.0023885614 0.96456796 
0.14779823 -0.26525152 0.952784 
-0.17774187 0.23187917 0.95636815 
-0.71431565 0.34222898 0.6104364 
-0.78573734 -0.0021458066 0.61855656 
-0.6932129 -0.11338012 0.711759 
-0.91140246 -0.044873334 0.40906224 
-0.6949567 -0.4792513 0.5360536 
-0.42010632 -0.016404122 0.9073266 
-0.018719546 -0.22925389 0.97318673 
0.0052722627 -0.32985017 0.94401854 
0.10202866 -0.6130615 0.78341925 
0.36807257 0.018638594 0.92961025 
0.8344916 -0.35520262 0.42125386 
-0.006510831 -0.36624762 0.93049467 
0.20609568 -0.31477052 0.92652255 
0.17896758 0.48003167 0.8588017 
0.58514386 0.073889114 0.8075563 
-0.017916054 -0.15642487 0.98752743 
0.016791092 -0.04481181 0.9988544 
0.80142933 0.34121424 0.49120656 
-0.10818727 0.40011942 0.91005504 
0.4560173 0.50365 0.73374724 
-0.3040495 0.65871227 0.6882239 
-0.2428518 0.84893864 0.46938905 
0.316522 0.9398724 0.12827252 
-0.15633976 -0.4239575 0.89208627 
-0.04834879 0.33818606 0.93983656 
-0.28251445 -0.68668467 0.6698133 
-0.272262 -0.25231534 0.9285528 
-0.5464205 -0.7879067 0.28395012 
-0.92551583 0.043219756 -0.3762347 
-0.72023827 0.634388 0.28072882 
-0.4043897 0.8657684 0.29481223 
-0.47856092 0.5064946 0.71724665 
-0.43983802 0.77033514 0.46165594 
-0.260081 0.5241032 0.8109709 
-0.6305543 0.3211518 0.70658535 
0.094737105 0.99507874 -0.029037744 
0.13840014 0.9088522 -0.39348832 
0.15722397 0.9811883 -0.11202731 
0.23998179 0.9578796 0.15771972 
0.20139259 0.9355084 0.2902846 
0.81263906 0.5302144 -0.24184823 
0.6025919 0.47752333 0.63941747 
0.5429911 -0.33577552 0.7696853 
0.49883705 -0.20268357 0.842663 
0.24850838 -0.16444232 0.9545692 
0.34629914 0.12629224 0.9295844 
0.08669506 0.06532796 0.9940907 
0.37627527 0.09967621 0.9211306 
0.2688538 0.41567576 0.8688679 
0.32441068 0.6997301 0.63650256 
0.24655657 0.8766208 0.41321424 
-0.1833387 0.5095302 0.84069365 
-0.36527073 0.92785466 0.075252965 
0.6446102 0.69106513 0.32696584 
-0.06786749 0.77380437 0.6297785 
-0.25257012 0.121504076 0.9599194 
-0.50789803 0.59603405 0.6219189 
-0.52462935 0.66057867 0.53702873 
-0.51143974 0.6616395 0.548327 
-0.4509865 0.8426483 0.2942023 
-0.33044344 0.30039883 0.8947445 
-0.46576136 0.11504864 0.8773997 
-0.65600276 0.40603572 -0.6362354 
-0.28148553 0.7036035 -0.65246314 
-0.2870591 0.1542674 -0.94540924 
-0.025117015 0.6521704 -0.7576562 
0.63625205 0.77035904 0.041597072 
0.70180553 0.67576647 0.2254079 
0.19803002 0.75565237 0.6243184 
0.17482908 0.120227486 0.97723085 
0.72345734 0.6816112 -0.109616406 