# OOMMF: rectangular mesh v1.0
# Segment count: 1
# Begin: Segment
# Begin: Header
# Desc: Time (s) :  2.0199999999999966e-07
# Title: m
# meshtype: rectangular
# meshunit: m
# xbase: 2e-09
# ybase: 2e-09
# zbase: 5e-10
# xstepsize: 4e-09
# ystepsize: 4e-09
# zstepsize: 1e-09
# xmin: 0
# ymin: 0
# zmin: 0
# xmax: 1.024e-06
# ymax: 1.024e-06
# zmax: 1e-09
# xnodes: 256
# ynodes: 256
# znodes: 1
# ValueRangeMinMag: 1e-08
# ValueRangeMaxMag: 1
# valueunit: 
# valuemultiplier: 1
# End: Header
# Begin: Data Text
0.14840183 -0.7268714 -0.6705483 
0.77644986 -0.41905144 0.4706607 
0.6892448 0.37014475 0.62284386 
0.08156999 0.7027013 0.70679367 
0.4704143 0.32489887 0.820458 
0.076873146 -0.25122434 0.9648714 
0.8480715 -0.3988599 0.34883448 
0.42936146 -0.08586956 0.89904124 
-0.7142186 0.009818768 0.69985384 
-0.8659042 0.0023323577 0.5002044 
-0.31326368 0.8391719 0.4445859 
-0.23527846 0.8510434 0.46943513 
-0.6075431 0.792035 -0.059766047 
-0.42278424 0.82139766 0.38283068 
0.071489766 0.7072279 0.703362 
-0.12225141 0.35983488 0.9249722 
-0.5006753 0.8413774 -0.20349061 
-0.2706909 0.9103986 -0.31289116 
0.61244005 0.78989387 -0.031386204 
0.8944561 -0.007620304 0.44709077 
0.7571469 0.4350894 0.4872637 
0.62340325 0.6101741 0.4889335 
0.8418286 0.10190576 0.53003764 
0.22863913 0.95363355 0.19572267 
0.28843793 0.80157405 0.52372015 
-0.27227202 0.9350236 0.22715385 
-0.7070923 0.38494408 0.59315985 
-0.3413951 0.008487318 -0.9398816 
-0.068385154 0.5937097 -0.8017682 
7.011184e-05 0.5816566 -0.8134344 
0.21117978 0.9575928 -0.19600801 
0.42480266 0.8981335 -0.113573626 
0.6562638 0.6007763 -0.45649284 
0.7499386 0.42530596 -0.50666255 
0.023871956 0.7357468 0.6768359 
-0.07524421 0.9806271 0.18085566 
-0.5604703 0.73237526 -0.38665178 
-0.16959144 0.6275051 -0.75991845 
0.17683487 0.8811656 -0.4384937 
-0.70837915 0.46524096 0.53080124 
-0.37132323 0.91466564 -0.15970549 
0.2907907 0.9429732 0.16199529 
0.9336372 -0.2246364 -0.27903402 
0.8051674 -0.5628939 0.18669766 
0.5274519 -0.2836036 0.8008518 
0.42644426 0.08871242 0.90015304 
-0.8343497 0.34447244 0.430348 
-0.23836878 0.6868751 0.6865734 
0.11831589 0.8723647 0.47432193 
-0.9324574 0.032425575 -0.35982215 
-0.7296209 0.53049433 -0.43154275 
0.19514097 0.84424436 -0.49917084 
-0.05780312 0.58144027 -0.8115332 
-0.03965647 0.72082746 -0.69197917 
-0.018193768 0.78256965 -0.6222973 
0.571549 0.19915333 -0.79603374 
0.9246801 0.35546812 -0.13641503 
0.77052116 0.6245648 -0.12734218 
0.81742376 0.5647979 -0.113233194 
0.45078307 0.83259475 0.3218396 
0.7463142 0.02496308 0.66512555 
0.60495394 0.26341826 0.7514264 
0.2766934 -0.13711746 0.95112544 
0.0854063 0.38356173 0.91955763 
0.3290016 -0.0535489 0.94280994 
-0.051768202 -0.0723912 0.99603194 
0.71157223 0.23371162 0.66260386 
0.49570566 0.5711513 0.6542646 
0.06317955 0.5028464 0.8620637 
-0.15411545 0.43388152 0.887691 
-0.017148664 0.6069661 0.7945428 
-0.5607501 0.4001083 0.72489494 
0.14958413 0.8237555 0.54685605 
-0.5178053 0.8539134 0.052053276 
-0.6890448 0.4947195 -0.5295941 
-0.54228 0.7434234 -0.39147678 
-0.26471877 0.8930688 -0.3638023 
0.29135218 0.9265175 -0.23807438 
0.30696365 0.55824834 -0.7707997 
0.570796 0.47330785 -0.6709483 
0.9869378 0.1224612 -0.10467661 
0.5133174 -0.030358963 0.8576617 
0.19823614 0.7621837 0.6162616 
-0.1655188 0.92800784 0.33377403 
-0.7732778 0.47552973 0.4194198 
0.092938356 0.8535305 0.5126873 
-0.5058223 0.6343132 0.58462864 
-0.8151626 0.014806552 0.579043 
-0.8456654 -0.3241231 0.42402163 
-0.9596518 0.044224344 0.27769166 
-0.89869606 0.42248395 0.11769844 
-0.77362865 0.5820841 0.25035352 
-0.7990514 0.52023137 -0.30145687 
-0.4725348 0.87777406 -0.078889534 
-0.25763845 0.65270215 0.71246225 
-0.47041628 0.59156543 0.65479684 
-0.8203077 0.49288368 0.29010507 
-0.7288926 0.285617 -0.62220466 
0.3860205 0.49850512 -0.7761964 
0.74091357 0.66319287 0.105935715 
0.6177587 0.78339547 -0.06830705 
0.087505475 0.9006688 0.4256038 
0.0976882 0.24999644 0.96330625 
0.3699666 0.90298223 0.21851306 
-0.48961952 0.68852645 -0.5349805 
-0.42104718 0.28664193 -0.8605555 
-0.23718923 -0.70379794 -0.6696341 
-0.2228852 -0.17727947 -0.9585897 
0.95373964 -0.29294837 -0.067543544 
-0.27673027 0.032050695 0.96041304 
-0.49226448 0.73927456 0.45950952 
-0.36345172 0.9106851 0.19635573 
-0.15165704 0.75889575 0.6333067 
0.007981144 0.92513496 0.3795546 
-0.24574028 0.8645341 0.43839788 
-0.43400025 0.5442095 0.71796936 
0.102619715 0.9661613 0.23664658 
0.7891025 0.57304054 -0.22122797 
0.8330208 0.54304385 0.10573427 
0.9391048 0.1873889 0.28804088 
0.6938817 0.7167881 0.06886985 
0.46322733 -0.24237937 0.852451 
0.9412523 -0.33518383 -0.041182008 
0.6625471 -0.6956976 0.27755406 
0.60421115 0.05308396 0.7950542 
-0.012439627 -0.018124882 0.9997584 
-0.5059717 0.38693205 0.77089316 
0.5581595 0.21542819 0.8012795 
0.34049988 -0.4525454 0.8241738 
-0.6132715 0.43436906 0.65971327 
-0.9247352 0.05571453 -0.3765112 
-0.4009538 -0.697616 -0.59377444 
-0.6787429 -0.37256575 -0.6328531 
-0.4491127 0.37148196 -0.81258786 
-0.33375716 -0.5892191 -0.7358173 
-0.54933316 -0.2987918 -0.78035665 
-0.7708647 0.13176477 -0.62322193 
-0.37352484 0.85113764 -0.36884132 
0.1408135 0.8950946 0.4230573 
-0.2218273 0.9551343 0.19624254 
-0.03469939 0.97451776 -0.22161032 
0.16336037 0.9835499 0.077090755 
-0.5351728 0.63244003 0.56000865 
-0.6748427 0.5727336 0.46536404 
-0.64823955 0.6593426 0.38085818 
-0.48082167 0.8065159 0.3440096 
-0.09545335 0.36108252 0.92763585 
-0.2762935 0.058660578 0.95928144 
-0.037532855 -0.46714342 0.8833847 
-0.9003727 -0.19756104 0.38768363 
-0.41717502 0.76065814 0.49735728 
0.07081977 0.995903 0.056228742 
-0.7999304 -0.18479952 -0.5709296 
-0.11524229 0.7794918 -0.6157207 
-0.3002846 0.5469577 -0.7814516 
0.56771606 0.073543824 -0.8199329 
0.8617829 0.28803438 -0.41757217 
0.97933525 0.18943787 0.07082321 
0.7044231 0.70897454 0.033810828 
0.98567915 0.136084 -0.09958837 
0.28323585 0.8531003 0.4381751 
0.03447962 0.7358488 0.6762675 
-0.66658795 -0.18052614 0.7232364 
-0.8914234 0.3816103 0.2444134 
-0.022274831 0.63306063 0.77378166 
-0.14206354 0.2543474 0.9566219 
-0.09398556 0.66305125 0.7426505 
-0.09971983 0.7876424 0.60800946 
0.2228038 0.57346714 0.788349 
0.56818295 0.6227665 0.5378942 
0.6312446 0.31793082 0.7074251 
0.15686733 0.96308035 -0.21878998 
0.22441612 0.9424136 -0.24798001 
0.6577561 0.73795736 -0.15091711 
-0.029663153 0.97575444 0.21684892 
0.16093792 0.98543996 -0.054837346 
0.14458488 0.72671795 -0.6715478 
0.12486486 0.31399527 -0.94117785 
-0.13576072 0.60226786 -0.78666544 
0.08545843 -0.015057084 -0.99622804 
0.8424662 0.022314522 -0.5382871 
0.52187395 0.48701108 0.70033413 
-0.028759934 0.13918921 0.9898481 
-0.470691 0.8147303 0.33862177 
-0.19887511 0.74378675 -0.63814574 
-0.373245 0.8650332 -0.33526972 
0.37727803 0.605561 -0.70068336 
0.4099777 -0.16041796 -0.89787775 
0.7289937 0.48962587 -0.4783668 
0.62875885 0.4092354 -0.6612025 
0.83177483 0.4244987 -0.35770324 
0.78190595 0.34460396 -0.51949126 
0.44688433 0.24279585 -0.86101377 
0.60191715 0.7927675 -0.09599674 
0.51541984 0.5007015 0.6954427 
0.3519469 0.38308913 0.85403526 
-0.851281 0.3524093 0.3887523 
-0.450346 -0.00075035077 0.89285386 
0.015033299 0.052539874 0.9985057 
-0.52314323 0.33971694 0.7816096 
-0.72750956 0.011019071 0.68600917 
-0.48857334 -0.36268875 0.79356974 
0.2813581 0.66837525 0.6885581 
-0.021042172 0.45712304 0.8891545 
-0.6613035 0.4598214 0.59265673 
-0.27151138 0.5911893 0.7594583 
-0.4359722 0.4054506 0.8034538 
-0.6540565 0.5091571 0.55943644 
-0.85289055 -0.015408187 0.52186245 
-0.8591635 0.41982862 0.29254392 
-0.6690241 0.10393198 0.73593813 
-0.3158952 0.6438895 0.6968619 
-0.50805444 0.21023323 0.835274 
-0.6155611 0.72052956 0.31925192 
-0.44718415 0.82417184 -0.347516 
-0.07105786 -0.16853076 -0.9831319 
0.09881147 -0.37308922 -0.92251873 
0.51508665 -0.545598 -0.6610663 
0.7860765 0.47055173 -0.40083003 
0.7573762 0.43069804 0.49079582 
0.9876967 0.028592277 -0.15374559 
0.8155011 0.36394724 -0.45000038 
0.3945716 0.003832307 -0.9188573 
0.6464776 0.6701442 -0.36465546 
0.48319286 0.16015457 0.8607411 
0.3437345 0.7028281 0.6227996 
-0.6264962 0.44819728 0.6376691 
-0.7083365 0.36060396 0.6068149 
-0.79336417 0.56884503 0.21676847 
-0.93409264 -0.057317127 0.35239995 
-0.44627956 0.11094357 0.8879899 
-0.94386077 0.29937598 0.13964552 
-0.81226563 0.4580981 0.3610689 
-0.6268548 0.6434049 0.43941256 
-0.062917635 0.8235545 0.563737 
-0.24311857 0.76588595 0.59524125 
-0.6277946 0.74668187 -0.2198641 
-0.41837752 0.85653126 -0.30218285 
-0.6614814 0.7270674 0.18388948 
-0.9974449 0.057731826 -0.04208031 
-0.29797015 0.828438 -0.47424084 
-0.5100243 0.72264653 -0.4665376 
0.39472547 0.8606925 -0.3215591 
0.276487 0.9443515 0.17820038 
-0.17767008 0.0066003185 0.98406804 
-0.32033432 0.7066447 0.63090354 
-0.50748354 0.7261749 -0.46382177 
-0.7202185 0.58562887 -0.3719196 
-0.5898551 0.098846994 -0.8014365 
-0.01420235 0.0801536 -0.9966814 
-0.06853351 -0.79401505 -0.60402256 
0.92156696 -0.24376895 0.30214426 
0.99987143 -0.014204482 -0.0074530337 
0.89555013 0.35967624 0.2619602 
0.19119135 0.73805535 0.64708596 
-0.5035696 0.10018337 0.85812646 
0.68753105 -0.0940676 -0.72003645 
0.86680263 -0.39282277 0.30715412 
0.96679777 0.2072306 0.14952412 
0.71297264 -0.092978366 0.6950001 
0.10796615 -0.433482 0.89467126 
0.43858796 0.12153567 0.8904324 
0.40748316 0.2939669 0.8646045 
-0.26028514 0.70715445 0.6574072 
-0.27255118 0.9263754 0.25989327 
-0.94028145 0.115512736 0.32019964 
-0.00051214284 0.8482454 0.52960324 
0.53483576 0.8031412 0.2625168 
0.17392156 0.9090113 0.3787478 
-0.75410235 0.54640853 0.3643728 
-0.28480402 0.2117738 0.9349003 
-0.59299797 0.24534978 0.7669139 
-0.36076602 0.8410756 0.40303817 
-0.22580966 0.80623466 0.546805 
0.1631871 0.81777155 0.55192375 
0.108537205 0.44852877 0.88715374 
0.7370046 0.15777604 0.65721464 
0.86526185 0.41599047 0.2797745 
0.6478585 0.68884075 0.32523525 
0.4807807 0.37644082 0.7919233 
0.5690595 0.53995967 0.6201733 
0.3112544 0.6827464 0.66104317 
-0.28773862 0.87351674 -0.39265114 
0.21612523 0.55469936 -0.8034916 
-0.14009327 0.2664662 -0.9536088 
0.34845516 0.554774 -0.75551623 
-0.5482085 0.82926404 -0.1085761 
0.08220941 0.9936108 -0.07732528 
0.85752857 0.50491095 0.09853785 
0.7509239 0.5821558 -0.31178212 
0.3870557 0.79281574 -0.47077718 
0.552306 0.8320917 -0.05080875 
-0.1774253 0.89392656 0.41160133 
-0.4073821 0.8501273 -0.33365196 
0.8629462 0.46746692 0.19182995 
0.10782851 0.73073906 0.67408717 
0.48425332 0.7847219 0.38692412 
0.7654575 0.58884484 -0.25949296 
0.9382467 0.13290557 -0.31942037 
0.6181347 -0.35473272 0.7014801 
-0.07545929 -0.25972608 0.9627296 
-0.10100965 0.2752693 0.95604604 
-0.52539045 0.34172726 0.77922237 
-0.28402928 -0.15896882 0.9455455 
-0.60160035 0.5235318 0.60331714 
-0.8473393 0.5024314 0.17198503 
-0.43443432 0.8929862 0.11765482 
0.28201807 0.83979577 -0.4639062 
-0.30401096 0.79826677 -0.5199496 
-0.081975356 0.62009555 -0.7802318 
0.33435783 0.9344879 -0.12221837 
0.3407245 0.939537 0.034310475 
0.800786 0.53948706 0.26018348 
0.60267323 0.7724896 0.200112 
0.27756318 0.89809394 -0.34115398 
0.025180683 0.64383984 0.76474583 
0.19866298 0.64642686 0.7366583 
0.1152875 0.1206492 0.985978 
0.2883807 -0.06803209 0.955096 
0.22708125 0.5607133 0.7962631 
0.06298653 0.30018473 0.9517993 
0.29367054 0.3849657 0.87496233 
0.5794103 -0.058548067 0.81293046 
0.58882844 0.028435629 0.80775774 
0.32669508 0.2531886 0.9105855 
0.73546565 0.04511843 0.6760582 
0.55536395 0.6497187 0.51907283 
0.12143469 0.39425388 0.91094315 
-0.23663045 0.82333 0.51588154 
-0.64958733 0.5754038 0.49693748 
-0.6477592 0.75867426 0.06943693 
-0.61753166 0.78556454 0.03928192 
-0.10310047 0.8906628 0.44282064 
0.20096686 0.9556929 -0.21508934 
0.30548176 0.61389774 -0.7278809 
0.81265646 0.48473606 -0.3234509 
0.9821625 0.052591816 0.18052989 
0.43356863 -0.3658386 0.82351714 
0.559964 0.25266245 0.7890514 
0.25551355 0.31581166 0.9137702 
-0.6714536 0.3808341 0.6357008 
-0.5648208 0.6329827 0.52944356 
-0.8196588 -0.12541431 0.558955 
-0.95731527 -0.045467094 -0.2854477 
-0.6380601 -0.7584962 -0.132525 
-0.7211336 -0.3244298 0.6121371 
-0.7194396 0.32718903 0.6126615 
-0.837555 0.4065004 -0.36504686 
-0.34927428 0.4886956 -0.79948986 
-0.24995954 0.106666476 -0.962363 
-0.17798045 0.8923702 -0.41472688 
-0.3913318 0.88907087 0.23751317 
-0.6654596 0.62300557 0.41112974 
0.038301986 0.6232178 -0.78110987 
0.8366139 0.51392823 -0.18961856 
0.55910176 0.79520434 -0.23463888 
0.7045106 0.70955366 -0.014086135 
0.61014706 0.7772161 -0.15380467 
0.21114409 0.9584729 -0.19169791 
0.07355544 0.9672001 0.24313319 
-0.3850487 0.7452367 -0.5443894 
-0.914007 0.35513046 -0.19614717 
-0.59688365 0.2925648 -0.7470849 
0.7310234 0.39733213 -0.55473614 
0.8722316 0.3535287 -0.33797872 
0.5386983 0.2078656 0.81645346 
0.538009 0.5860074 0.6059222 
-0.36644885 0.8501093 0.37819225 
0.061119795 0.8126192 0.5795812 
-0.11628634 0.83598435 0.53629076 
-0.1417561 0.8358922 0.530273 
-0.29907453 0.5254799 0.7965082 
-0.30989096 0.8806332 0.35840333 
0.51318586 0.84986997 -0.119839415 
0.2660441 0.93775403 0.2232439 
0.6033461 0.7973381 0.015011134 
0.85451484 0.37703562 0.35727945 
0.74830717 -0.42908213 0.5058903 
0.26906222 0.03221513 0.9625839 
0.85678023 -0.036934678 0.51435745 
0.24087596 -0.12457582 0.96252775 
0.34519798 -0.3068886 0.8869374 
0.1629014 -0.5094596 0.84493446 
0.12780344 -0.045915898 0.9907361 
-0.5212414 -0.6124898 0.5942757 
-0.6309978 -0.3453966 0.6946532 
-0.451318 -0.5941965 -0.6657647 
-0.68913 -0.5543408 -0.46669722 
-0.46161824 -0.20804712 -0.86233693 
-0.39941168 -0.06519888 -0.91445035 
-0.5066657 0.013335202 -0.8620395 
-0.5409617 0.6334732 -0.553238 
-0.49137023 0.7693102 -0.4083103 
-0.43194926 0.8922812 0.13135594 
-0.14371395 0.54317594 0.8272281 
0.04204913 0.6105326 0.79087406 
0.29421753 0.75660414 0.5839404 
0.5224224 0.44788858 0.7255831 
-0.18728283 0.55709463 0.80905545 
-0.52778494 0.3611371 0.7687803 
-0.44717076 0.44399056 0.77647316 
-0.38999462 0.18672886 0.9016855 
-0.34603995 0.40415493 0.8467085 
-0.37802953 -0.20184147 0.903523 
-0.68896556 0.26511437 0.6745672 
-0.7524739 0.5116867 0.41468042 
-0.77232426 0.43154243 0.46613982 
-0.60109127 0.7719211 0.2069474 
-0.11631128 0.9701696 -0.21270297 
0.5762856 0.81362015 0.07692386 
-0.15893641 0.9856953 -0.056071285 
0.059212916 0.6930046 -0.71849746 
0.8806866 0.38505858 -0.2759006 
0.91949207 0.3923793 0.023934092 
0.3542274 0.91141206 0.20940675 
-0.02656454 0.6686372 0.7431142 
-0.19851236 0.81350195 0.54663295 
-0.4083488 0.8811634 0.2383322 
-0.23905198 0.85494703 -0.4603473 
0.10116946 0.99418336 0.03693465 
0.2988777 0.80064315 0.5192715 
0.5245261 0.653191 0.54608965 
0.06845051 0.4882794 0.86999875 
-0.26526132 0.8278545 0.49426055 
0.24621701 0.9683861 0.040069845 
-0.25657064 0.92783403 -0.27073148 
-0.020988448 0.9995689 -0.020530919 
0.6007997 0.7720932 0.20715216 
0.34554064 0.9382978 0.014106035 
0.5458382 0.8323051 0.0965865 
0.44073212 0.8832805 0.15990861 
-0.499668 0.8192424 0.28137854 
-0.17245966 0.98435 0.036233164 
-0.46231112 0.8430295 0.27489948 
-0.041579325 0.93304163 -0.35735783 
0.48267743 0.5540642 -0.6782591 
0.860666 -0.25597042 0.4401515 
0.4730903 0.30291778 0.8273007 
0.26410612 0.4671362 0.84381986 
-0.3647742 0.21955909 0.904839 
-0.5191758 0.72498393 -0.45260888 
-0.4481992 0.6480347 -0.6157667 
-0.34011304 0.41921157 -0.8417749 
0.36289954 0.65795815 -0.65984476 
0.1418843 0.5355761 -0.8324825 
0.4284318 0.30046377 -0.8521548 
0.733215 0.46365827 -0.49741012 
0.8848803 0.27097842 -0.37889004 
0.704258 0.42426527 -0.56922734 
0.7058031 0.6955425 0.13439761 
0.5107793 0.6084832 0.6073325 
-0.07608397 0.58200026 0.80962145 
-0.27653882 0.36893722 0.88736224 
-0.59583765 0.2418873 0.7658121 
0.055603527 -0.14777529 0.9874567 
0.22573368 0.23508622 0.9453988 
-0.7202382 -0.1868803 0.6680814 
-0.21358395 0.49500233 0.84223205 
-0.01035277 0.599396 0.80038583 
-0.2458176 0.7557473 0.60697603 
-0.29941377 0.8016681 0.51737773 
-0.53892446 0.15923473 0.8271667 
-0.06191687 0.78044516 0.62215096 
-0.42198986 0.45070505 0.78663176 
-0.6242599 0.78012764 -0.041237883 
-0.5065185 0.86062944 0.05249797 
-0.9382646 0.30654672 0.16027689 
0.089392535 0.6734202 0.7338353 
0.46916732 0.5201162 0.7136954 
-0.44480687 0.88276196 0.1512554 
-0.25519592 0.81322545 -0.5230102 
-0.7013603 -0.22266865 -0.6771355 
-0.14313099 -0.102470055 -0.98438483 
0.34606835 0.28499815 -0.8938752 
0.5567435 0.73885447 -0.37964556 
0.9598357 0.009622949 0.28039792 
0.8010658 0.37719405 -0.46477783 
0.85214037 0.44815373 0.27021283 
0.877554 0.46175352 -0.12916191 
0.79091215 0.32028872 -0.52141464 
0.2339536 0.77886087 0.58192915 
0.11741537 0.97596014 -0.18361771 
-0.51744527 0.8329201 0.19620015 
0.16753939 0.5364894 0.8271092 
-0.74647254 0.19801058 0.635272 
-0.55168486 0.057129245 0.83209383 
-0.8973936 0.19548725 0.39556232 
-0.82602835 0.27462184 0.4921993 
-0.39349148 0.8492583 0.35202983 
-0.25159755 0.36755338 0.895323 
-0.7148538 -0.026227001 0.698782 
-0.14118776 0.9680677 -0.20714977 
-0.26594523 0.9499162 0.16411135 
-0.18564552 0.9783164 -0.09183088 
-0.34358665 0.7502784 0.564828 
-0.6140584 0.77808386 0.13235548 
-0.34070146 0.34189382 -0.87580323 
0.09796258 0.76381886 -0.6379531 
0.5653328 0.79894054 -0.20516524 
0.15201943 0.9742673 0.16641308 
-0.8106813 0.4461525 0.37913576 
-0.06395471 0.8319073 0.55121696 
-0.16798398 0.67189157 0.72134817 
-0.73059404 0.6797959 -0.06410915 
-0.38098016 0.8716954 -0.30822256 
-0.09436883 0.7026886 -0.7052116 
0.5762622 0.57419366 -0.58157 
0.81153953 0.41590938 -0.4103939 
0.9896684 0.016045703 -0.14247511 
0.8693121 0.4316286 0.24081792 
0.88963187 0.44491455 0.10298655 
0.4436764 -0.22290182 0.8680242 
0.384672 0.08202622 -0.91940165 
0.8794444 0.44518888 0.16847688 
0.9304996 0.25809923 0.25991413 
0.54305613 -0.3422733 0.76677185 
0.2811948 -0.7191811 0.63538027 
0.7213677 -0.32217467 0.6130515 
0.38616562 0.2943352 0.87420994 
-0.12724313 0.56583875 0.8146385 
-0.31254473 0.7647121 0.56349915 
-0.6640279 0.7292377 -0.16516487 
-0.32125607 0.60290927 0.73027045 
-0.06955051 0.85093194 0.52065116 
-0.07762475 0.30971336 0.94765615 
-0.43754157 0.19356759 0.87811667 
-0.15291855 0.30853254 0.9388417 
-0.553631 0.26156524 0.79061776 
-0.32119232 0.110060945 0.94059676 
0.27050915 0.7715885 0.5757395 
0.5020853 0.45372024 0.7362394 
0.5022392 0.49032125 0.71227866 
0.6375711 0.5785164 0.5087454 
0.59323496 0.47350684 0.6510482 
0.45818716 0.26162001 0.84948194 
0.6977725 0.25910762 0.667815 
0.7352935 0.07312774 0.6737922 
0.53908455 0.72788143 0.4237648 
0.2440641 0.96604407 0.08480405 
0.119122975 0.9551248 -0.27119458 
0.6368334 0.57644546 -0.51200974 
0.42181385 0.7611895 -0.492609 
0.29238576 0.879804 -0.37477395 
-0.2653954 0.9641086 0.0077389874 
0.5480875 0.71070856 0.4410141 
0.19683157 0.6364265 0.74580073 
0.06673563 0.86151534 0.5033268 
0.035021286 0.9721845 -0.23158349 
-0.82466155 0.552865 -0.119472 
-0.0015327611 0.916628 -0.39973864 
0.36641166 0.9235271 -0.11331512 
0.7969223 0.5965797 0.09490839 
0.70331633 0.6996612 0.12577918 
0.791517 0.50931156 0.337791 
0.3976459 0.32704946 0.8572727 
0.79411936 0.05678734 0.60510296 
0.12891537 -0.27028957 0.95410925 
0.41425118 -0.36888188 0.832059 
-0.35061076 0.25843114 0.9001586 
-0.26930413 0.8537968 0.44554067 
0.17224932 0.9848328 0.020846166 
-0.43273768 0.7801886 0.4517124 
0.18462762 0.97772396 -0.099843025 
-0.030889543 0.6074758 0.7937374 
-0.2237235 0.969639 0.09873232 
-0.5867436 0.592944 -0.55149746 
0.13502501 0.6528343 -0.74536955 
-0.17208873 0.96979755 -0.17285311 
0.62524503 0.66134346 -0.41435933 
0.09639751 0.98100793 0.16831788 
-0.059916604 0.29503733 0.9536053 
0.41343743 0.3399324 0.8446985 
0.752177 0.48961315 0.4410317 
0.54434097 -0.13634725 0.8277092 
0.4967115 0.00038321078 0.86791563 
0.44229552 0.03417159 0.8962182 
0.17561708 0.52503955 0.8327618 
-0.055721845 0.41142347 0.9097395 
0.5200913 0.56855255 0.6373799 
0.4585045 -0.045733545 0.88751453 
0.68005854 -0.22545113 0.6976334 
0.3390669 -0.08907327 0.93653595 
0.50604 -0.12738852 0.8530508 
-0.15060519 0.10389242 0.9831198 
-0.76105666 0.25488886 0.5965104 
-0.20003326 0.45004833 0.8703122 
0.067863196 0.58471054 0.80839854 
0.07825573 0.8772684 0.47357804 
-0.40965876 0.51948446 0.74987715 
-0.07272729 0.99662715 0.038015027 
0.6943465 0.7128431 -0.09867965 
0.9948712 0.05091145 0.08740398 
0.4292827 -0.009886335 0.90311617 
0.32093546 -0.7240147 0.6105762 
0.55148166 0.12076239 0.8253995 
0.25217685 -0.17912482 0.9509581 
-0.29712072 0.25745076 0.9194773 
-0.65674317 0.1421587 0.7405939 
-0.4813266 -0.31553647 0.81777835 
-0.7963759 0.26045656 0.54584616 
-0.65574944 -0.21645829 0.7232832 
-0.096121974 0.68858355 0.7187581 
-0.8074921 0.12605773 0.57625186 
-0.90645117 0.0066791023 0.42225802 
-0.7602752 0.6201135 -0.1934968 
-0.25812453 0.6884402 -0.6778067 
-0.51143736 0.8103127 0.28605103 
-0.38455495 0.7986144 0.46296072 
-0.8677186 0.47738218 0.1384591 
-0.76044035 0.6022466 -0.24296011 
0.678902 0.7166335 0.15977694 
0.7305504 0.45498696 -0.5091985 
0.9209185 0.3704221 -0.12123012 
0.39788422 0.7949304 0.45801085 
-0.2644601 0.84336215 0.467762 
-0.1671234 0.9841817 0.05878838 
-0.055640753 0.9969903 -0.053985786 
-0.24526025 0.9219237 0.29984006 
0.17997248 0.8559165 -0.48478535 
0.12644404 0.9919695 -0.0028783942 
0.81368506 0.5669611 -0.12834188 
0.81232375 0.22270557 0.5390107 
0.15225163 0.56921595 0.8079683 
-0.28374183 0.49955454 0.8184962 
-0.13229544 0.51550865 0.8466102 
-0.27963725 -0.12825899 0.95150024 
-0.57540447 0.61555576 0.53851724 
0.2499329 0.7321001 0.63369006 
0.62719774 0.14427887 0.7653801 
0.3867295 0.45968893 0.7994538 
0.387277 0.18563752 0.90308106 
0.80290055 -0.06643972 0.59239894 
0.3097393 -0.2928627 0.9045955 
0.15390931 -0.66200024 0.733531 
0.959721 -0.14196104 0.24245158 
0.7558639 -0.4565475 0.4692911 
0.5757068 -0.09724509 0.8118529 
0.3335747 -0.04835451 0.9414828 
0.1297207 0.03063622 0.99107724 
-0.10789568 0.19817443 0.9742102 
-0.9742748 -0.032469828 0.22301191 
-0.8496988 0.52648324 -0.02876559 
-0.3048543 -0.9206246 0.2439553 
-0.5592388 0.5786619 -0.59363484 
-0.28192717 -0.64291394 -0.71216494 
-0.74032223 0.07769046 -0.667748 
0.5081211 0.55850387 -0.65565735 
0.4794975 0.53072375 -0.6988666 
0.7180777 0.44012588 -0.539123 
0.23096392 0.39881492 0.88746965 
0.07327732 0.78399324 0.6164293 
0.3792841 0.4905845 0.78451926 
-0.07582955 0.6359649 0.76798344 
-0.66178 0.22587311 0.71486264 
-0.78915864 -0.029979115 0.6134573 
-0.30623543 -0.08718796 0.9479548 
-0.7906984 -0.10448895 0.6032232 
-0.3833847 -0.09117088 0.9190778 
-0.80808705 -0.12548846 0.57554156 
-0.7405219 -0.35411772 0.5711637 
-0.67531025 0.3201785 0.66441095 
-0.3329247 0.54298776 0.7709251 
-0.11654138 0.7552168 0.64503163 
0.67177 0.72192097 0.16599776 
0.72943395 0.58520764 0.35420087 
0.7669819 0.6415021 -0.0146288555 
0.6079605 0.77287537 0.18179022 
0.30873615 0.9225409 0.23151748 
0.50006753 0.7464416 -0.4390415 
0.34074792 0.88471025 0.31808612 
0.00069739233 0.9677521 -0.25190392 
0.2546524 0.78103805 0.5702031 
0.011908381 0.83567345 0.5490977 
0.64250964 0.7402251 0.19811174 
-0.2543497 0.81010866 -0.5282331 
0.3254194 0.9407726 0.095126785 
0.46742517 0.5610188 0.68320686 
0.098618135 0.7946382 0.5990197 
0.33023563 0.15313357 0.9313939 
-0.15834582 0.18548132 0.96980584 
-0.24694613 0.9373075 -0.24591115 
0.3010516 0.8799415 -0.3675201 
-0.10534383 0.93114936 0.34908968 
-0.016260082 0.7095868 0.7044304 
0.11781175 0.6162877 0.77865905 
0.31027246 0.8508324 0.42404622 
0.42630655 0.80551463 0.4115932 
0.3626909 0.9181116 -0.15977035 
0.40093517 0.6741881 0.62025917 
0.35991234 0.6808141 0.6379306 
0.48605916 0.6316308 0.6039778 
0.5224339 0.28222343 0.8046197 
0.73655087 -0.18145233 0.6515888 
0.32182613 -0.24308036 0.9150628 
-0.36251357 0.19760928 0.9107879 
-0.32439554 0.31050178 0.89350784 
-0.79935175 0.41402403 0.43545488 
-0.90306884 0.3977666 -0.16201405 
-0.45313528 0.7034287 -0.54759157 
0.10119412 0.848255 -0.51983005 
-0.2919361 0.52718616 -0.79802775 
0.27353904 0.34188113 -0.89905155 
0.22323789 0.9669389 -0.12326369 
0.9079501 0.3435578 -0.23998901 
0.66196626 0.71690375 0.21874581 
0.41332006 0.42563328 0.80498624 
-0.28119603 0.6525441 0.70364416 
-0.26404348 0.094632894 0.9598571 
-0.5683909 0.15142894 0.80870336 
-0.6753919 0.4834939 0.5568478 
-0.5456916 -0.22280064 0.8078246 
-0.704757 -0.096338436 0.70287734 
0.33616462 0.18853584 0.9227392 
0.22810897 0.6327257 0.7400166 
-0.34551197 0.5797609 0.7379016 
0.012511243 0.869463 0.4938396 
0.45700824 0.15977582 0.8749944 
0.04250809 0.19525918 0.97983 
-0.22249949 0.7525241 0.6198399 
-0.47301522 0.42548764 0.77150303 
-0.3347654 0.74510336 0.5768476 
0.15510637 0.9440781 0.2909616 
0.62454563 0.6549248 0.42546007 
0.09026711 0.5000125 0.861301 
-0.23378064 0.20764594 0.9498578 
-0.49566424 -0.116670474 0.86064214 
-0.7503573 0.62235117 -0.22280703 
-0.20155501 0.3294689 -0.92240226 
-0.45900154 0.55164635 -0.6964223 
0.25073606 0.93483126 -0.25143978 
0.88043594 0.4189876 0.22199556 
0.96303385 0.14970271 0.22395328 
0.8931865 0.3465151 0.2866097 
0.95802337 -0.08013889 0.2752618 
0.9076313 0.100223266 0.40762815 
0.0010218656 0.36412057 0.9313513 
0.05519737 0.43371773 0.89935654 
0.1634637 0.2516282 0.9539198 
-0.49489737 0.86888605 0.010656055 
-0.4692788 0.5357664 0.70194864 
-0.78791094 0.41495228 0.45498478 
-0.41679722 0.5180978 0.7468968 
-0.6591858 0.6441518 0.38799816 
-0.92171365 -0.029033631 0.3867831 
0.2589082 0.8861328 0.3843634 
-0.337799 0.09110745 0.93679845 
-0.8984035 -0.27033317 0.3461088 
0.08336311 0.703128 0.70615983 
-0.76746786 0.18045224 0.61516684 
-0.8360735 0.4462004 0.31919643 
-0.808733 0.48655626 0.3304755 
-0.8365462 0.5395084 -0.095505014 
-0.02246379 0.49237996 -0.8700904 
-0.029293027 0.86955017 -0.49297523 
0.2727451 0.6164049 0.7386848 
-0.4179191 0.9011575 0.11514737 
0.014381721 0.76308715 0.6461356 
-0.2248148 0.29704458 0.9280209 
0.030280018 0.096220136 0.9948994 
-0.6297382 0.72170496 0.28735295 
-0.30069238 0.7972306 0.5234573 
-0.1222954 0.9852576 0.11962976 
0.5922297 0.80264 -0.07094499 
0.49761936 0.4674193 -0.7306807 
0.7318348 0.6551981 0.18743867 
0.805792 0.3387341 0.4857555 
0.28693008 0.90915275 0.3018482 
0.68619573 -0.32923165 0.64864635 
0.93186074 0.35209814 -0.08753631 
0.5550773 0.1930274 0.8090918 
0.32970047 -0.34789982 0.8776465 
0.32837486 -0.62703 0.70640165 
0.5061195 0.050567184 0.8609798 
0.818705 0.11952004 0.56163776 
0.4062893 0.53567636 0.7402566 
-0.043887276 0.16289449 0.98566693 
0.0039963224 0.59257513 0.8055054 
-0.6579122 0.6995651 0.27885506 
-0.46455026 0.82902163 0.31131402 
-0.6342778 0.5691678 0.52320135 
-0.55420107 0.6278736 0.54647595 
-0.64238876 0.55364454 0.5299193 
-0.61628133 0.35149026 0.7047354 
-0.8681553 0.09365044 0.48737666 
-0.15955484 0.6564885 0.73726875 
0.5234582 0.57943 0.62470186 
0.37896386 0.11916601 0.91770685 
0.292811 -0.55328554 0.7798313 
0.50042474 0.11964523 0.8574732 
0.68726295 -0.070270784 0.72300184 
0.1960723 0.34269238 0.91875875 
0.77906376 0.57200986 0.25664052 
0.7016133 0.60409707 0.37789634 
0.22787267 0.95497835 -0.18997496 
-0.30497602 0.8396569 -0.4494063 
0.38636163 0.8820216 -0.26974544 
0.4473549 0.835639 -0.31871784 
0.26419395 0.9533968 -0.1457264 
0.6646776 0.7054599 -0.24602857 
-0.014112958 0.99413836 0.107190326 
0.33011302 0.7011901 0.6319477 
0.32357734 0.45607018 0.82903427 
0.2105421 0.5913986 0.77840847 
-0.3689763 0.83591443 0.40632957 
-0.8009606 0.5956446 0.06057781 
-0.14261286 0.8725809 -0.46718752 
0.69290984 0.68240654 0.232803 
0.6868066 0.7125802 0.14326975 
-0.16274509 0.82249355 0.54499394 
-0.12816033 0.36897323 0.9205617 
0.45781663 0.33362475 0.8240743 
0.5000545 0.078442596 0.8624339 
0.055526838 0.016109541 0.99832726 
0.24160846 -0.0032525288 0.9703684 
-0.4847188 0.13420856 0.86431235 
0.68018526 0.72827935 0.08341083 
0.07104073 0.99392366 -0.08407712 
-0.62962437 0.46326333 0.6236669 
0.22591597 0.7201493 0.6560084 
-0.40164316 0.802457 0.4412998 
-0.41988632 0.7393726 0.52633035 
-0.4758163 0.44639114 0.7578482 
-0.30922493 0.89560914 0.31978786 
-0.45668617 0.860368 -0.22628467 
0.07775395 0.93402565 -0.34864086 
0.25569636 0.96606916 -0.03646671 
0.6592876 0.4901086 0.57020485 
0.79472524 0.34258035 0.50104964 
0.6485506 0.3184324 0.6913631 
0.22429924 0.35882336 0.90605503 
-0.001538365 0.16267632 0.9866783 
0.4760294 0.26510146 0.8385208 
0.1466149 0.2922712 0.94503003 
0.9126756 0.07721759 0.40132388 
0.6698174 0.0004847479 0.7425258 
0.51287127 0.0959546 0.8530861 
0.31257793 0.16359057 0.93569934 
0.23913087 -0.38238725 0.8925226 
-0.066818796 -0.67133325 0.73813754 
-0.0052498328 -0.6016019 0.7987788 
-0.20936538 0.30619645 0.9286603 
-0.13171457 0.6332618 0.76264715 
-0.67326134 0.29495022 0.67802924 
-0.7649662 0.20766099 0.60967505 
-0.6082542 0.0050670286 0.7937262 
0.2754119 0.24578738 0.92937446 
0.6854912 0.23995465 0.6874035 
0.8961163 -0.101538196 -0.4320481 
0.13954292 0.07342126 0.98749036 
-0.3184145 0.34361038 0.8834841 
-0.17808121 0.43738663 0.8814647 
0.43096963 -0.015224643 0.9022381 
0.30982596 0.08018331 0.94740623 
0.098342784 0.40534595 0.90885824 
-0.42985812 0.19404157 0.8817992 
-0.093839064 0.49700382 0.8626595 
-0.7309304 0.0009550833 0.6824514 
-0.5458385 0.11059277 0.83055985 
-0.3713012 0.5644281 0.7372628 
-0.4729026 0.867607 0.15369208 
-0.44426882 0.73769575 0.5083605 
-0.0719772 0.9474182 -0.3117982 
-0.78796285 0.615377 0.020632967 
-0.25494152 0.9418607 -0.21886824 
-0.5605316 0.8219711 -0.10083591 
-0.69512963 0.7027495 -0.1514531 
0.15884498 0.8179004 -0.5529985 
0.3007061 0.9106604 -0.2833259 
0.7610152 0.44965914 -0.4676137 
-0.041916434 0.91496384 0.40135312 
-0.4857699 0.8324607 0.26652744 
0.40732342 0.8032505 0.43459904 
-0.08312454 0.22954868 0.96974105 