# OOMMF: rectangular mesh v1.0
# Segment count: 1
# Begin: Segment
# Begin: Header
# Desc: Time (s) :  2.0499999999999965e-07
# Title: m
# meshtype: rectangular
# meshunit: m
# xbase: 2e-09
# ybase: 2e-09
# zbase: 5e-10
# xstepsize: 4e-09
# ystepsize: 4e-09
# zstepsize: 1e-09
# xmin: 0
# ymin: 0
# zmin: 0
# xmax: 1.024e-06
# ymax: 1.024e-06
# zmax: 1e-09
# xnodes: 256
# ynodes: 256
# znodes: 1
# ValueRangeMinMag: 1e-08
# ValueRangeMaxMag: 1
# valueunit: 
# valuemultiplier: 1
# End: Header
# Begin: Data Text
0.25507042 0.7841186 -0.5657713 
0.7850448 0.49583423 0.37128592 
0.60741264 0.06386403 0.79181516 
0.23646373 0.32677737 0.91504174 
-0.27646342 0.9196312 0.27901006 
-0.24835993 0.9114125 0.32809228 
-0.047611367 0.96026 -0.27501622 
-0.1952949 0.9092883 0.36749795 
-0.11314857 0.37183857 0.92137593 
-0.2940286 0.47935155 0.8269035 
-0.18935701 -0.084233664 0.97828865 
0.1855404 0.2921994 0.9381867 
-0.42979681 0.74625754 0.5083055 
-0.7775958 -0.23785286 0.58204025 
-0.909661 0.20088324 0.3635421 
-0.45087227 0.3723136 0.81123173 
0.21206482 0.6574572 0.7230343 
0.28323618 0.95264053 0.11069529 
0.6481093 0.5649128 0.5107132 
0.17209655 -0.074452795 0.98226255 
-0.22459398 -0.649646 0.7263041 
0.055184066 0.102227345 0.9932292 
-0.72227407 0.43394065 0.53853106 
0.42225385 0.70727944 0.56697226 
0.27061725 0.12252909 0.9548575 
-0.22427979 0.6783978 0.6996249 
-0.70788467 0.5780774 0.40586445 
-0.888831 0.39723328 0.2284411 
-0.9098032 0.32735556 -0.25514013 
-0.044048537 0.6140765 0.78801644 
0.47468266 -0.16247632 0.8650306 
0.43600827 -0.159864 0.88563 
0.26797554 0.13799703 0.9534915 
-0.28247795 0.5262494 0.8020398 
-0.41078758 0.43356353 0.80204505 
-0.534665 0.67087495 0.5138679 
-0.6810122 0.61880517 0.3915388 
-0.54423684 0.8313621 0.1124421 
0.17403959 0.9831632 -0.05568249 
0.7176031 0.68250227 -0.13869594 
-0.062658355 0.99357176 0.09428329 
0.54108095 0.6272457 -0.5601735 
0.12895484 0.9358528 0.3279486 
-0.8812707 0.3510642 0.31641117 
-0.1187988 0.1874117 0.9750712 
-0.0122620715 0.7526212 0.6583396 
0.086485595 0.24708702 0.9651261 
0.40011293 0.23643535 0.8854423 
0.38777766 0.2125773 0.8969055 
0.26056486 0.5855859 0.7675904 
-0.060382992 0.85293984 0.51850516 
0.16624016 0.2256781 0.9599134 
0.1581879 0.73861986 0.6552995 
-0.5182201 0.12781395 0.8456426 
-0.27544686 -0.08460833 0.9575858 
-0.22042745 0.72329754 0.65440995 
0.04494199 0.06413859 0.9969285 
-0.175993 -0.32645738 0.928683 
-0.16393992 -0.7090048 0.68588334 
-0.11839415 -0.11513787 0.9862689 
-0.355025 0.15496375 0.9219238 
-0.06720146 -0.6427982 0.7630822 
-0.37922037 -0.44070163 0.8136179 
-0.2268821 0.32956007 0.9164686 
0.5167027 0.53725976 0.66661114 
0.4946461 0.65861154 0.5670592 
0.7832894 0.5520034 0.2859199 
0.24663198 0.3038414 0.92024624 
-0.7931603 0.336468 0.5076279 
-0.16788207 0.6787283 0.7149431 
-0.036164436 0.95235974 0.30282542 
-0.7939821 0.598396 0.1073064 
-0.9369775 0.34793976 -0.031800475 
-0.78037524 0.51305944 0.35746974 
-0.7436229 -0.32335052 0.58520895 
-0.6590768 -0.7483123 0.075143434 
-0.7399408 0.03245958 -0.67188835 
0.62767684 0.3133665 -0.71261716 
0.65097886 0.67216796 -0.35272783 
0.6335249 0.6926434 0.34480637 
0.5090591 0.19343013 0.8387155 
0.6694641 0.12394776 0.73243076 
0.05340248 0.33141914 0.9419711 
-0.08309445 0.756505 0.6486876 
-0.9767983 0.21405382 -0.006796924 
-0.8893043 -0.13702539 -0.43630484 
-0.3768415 0.30600965 -0.8742704 
0.73242444 0.06414944 -0.67781955 
-0.89684916 0.2459573 0.36765012 
-0.9875564 0.1177409 -0.104256935 
-0.31284055 0.6583387 0.68463206 
0.0051343413 0.72195905 0.69191676 
0.010942394 0.6546085 0.7558889 
-0.5751881 0.58747816 0.5692347 
0.10792432 0.97520006 0.19322848 
0.40136963 0.8039963 -0.43873963 
0.4367211 0.69043815 0.5766887 
-0.06263075 0.09123615 0.9938578 
-0.25231314 0.6097009 0.75140065 
-0.6553273 0.6062273 0.4505936 
-0.81850076 0.5008262 -0.28147787 
-0.7434039 0.42392236 -0.51733994 
-0.9730707 0.07396286 -0.21831855 
-0.19823636 0.1445287 -0.9694399 
0.36515895 0.034047317 -0.93032247 
-0.5254638 0.26490715 -0.80852467 
0.46245047 -0.2278217 -0.85687625 
0.61719656 0.78609955 0.033405077 
0.85006756 0.4603297 -0.25589392 
0.76521534 0.56561893 -0.30744225 
0.9642629 -0.1508058 -0.21784125 
0.91791826 0.011024335 -0.39661652 
0.7647098 0.025194645 0.6438822 
0.48964557 0.33647063 0.80438465 
0.11613194 0.86933607 0.48038355 
0.22978716 0.63284117 0.73939836 
0.6210622 0.20063159 0.7576468 
0.47628576 -0.17841308 0.8609998 
-0.04098628 0.3378043 0.9403236 
-0.41520497 -0.049188953 0.90839714 
0.331832 0.8354334 0.43810782 
0.678285 0.7115671 0.18330789 
0.5711275 0.7066955 0.41760632 
0.11562705 0.79586726 -0.5943279 
0.37563813 0.66543776 0.64504933 
0.8981507 -0.19427268 0.39444086 
0.72264904 0.21379441 0.6573206 
0.87217766 0.35663423 0.33484045 
0.17259046 0.39735118 0.90129054 
0.4548661 0.5121996 0.7285249 
0.7606925 0.6469001 0.053546797 
0.57424533 0.3958621 0.716614 
0.18605454 -0.12085041 0.975079 
0.4697357 0.37392247 0.79970646 
0.7518972 0.4292264 0.5004151 
-0.4365574 0.7869002 0.43612587 
-0.044320304 0.6331877 0.77272844 
-0.31916454 0.68811405 0.65163887 
0.06583149 0.7528402 0.654903 
-0.50224245 0.44613925 0.7407512 
-0.7161191 0.24889995 0.6520907 
-0.7188767 -0.23094921 0.65565145 
-0.66927546 -0.68966085 0.2764749 
-0.8292637 0.26246232 0.4933917 
-0.8339081 -0.55179054 -0.011165967 
-0.8763241 0.08967473 -0.47330165 
-0.44901463 0.8928492 -0.03473196 
-0.33854273 0.833848 -0.4359889 
0.11029518 0.98862374 -0.102265336 
-0.16944434 0.87122214 -0.46071774 
0.9239518 0.09524487 0.37046143 
0.6816845 0.12967205 0.7200635 
0.093753055 0.63624907 0.76576596 
0.10964184 -0.45814845 0.8820877 
-0.45363602 0.3593093 0.8155436 
-0.28304493 0.2522311 0.9253459 
-0.78700614 0.4955523 0.36749065 
-0.5042025 0.8201017 0.27057934 
-0.29552707 0.8972209 0.3281136 
-0.08711789 0.34760907 0.9335837 
-0.17142327 0.36413217 0.9154353 
0.3642658 -0.050924573 0.9299017 
0.117756344 -0.015100711 0.9929278 
-0.36649927 0.2521991 0.8955859 
-0.7581869 0.40930325 0.50756615 
-0.09957234 0.3645591 0.9258413 
0.7577107 -0.41304827 0.5052385 
0.37105924 -0.057013564 0.9268574 
0.84884006 0.20097905 0.48895606 
0.6005795 0.23841813 0.76319134 
0.11002148 0.47073182 0.8753895 
0.8921427 0.1931184 0.40839538 
0.41898736 0.8184358 0.393208 
0.4664086 -0.13076305 0.87485087 
-0.23425217 -0.37004843 0.8989939 
-0.55892575 -0.012393398 0.82912517 
-0.80091584 0.5760827 0.16328675 
-0.9361983 -0.2863838 0.20375778 
-0.65460664 0.0012586423 -0.75596875 
-0.19943637 0.6910858 -0.69471264 
-0.94944865 0.07188729 -0.30558074 
-0.40061408 0.78879786 -0.46616137 
0.87906104 0.4656502 -0.102086484 
0.7736038 0.51175034 -0.37369633 
0.66930264 0.74298245 0.0033289553 
0.4762165 0.18329486 0.8600121 
0.00094533624 0.34386367 0.93901914 
0.24689296 0.7642122 0.5958387 
0.25675467 0.94208366 -0.21576734 
0.6915374 0.18549584 -0.698117 
0.63483644 0.59033793 -0.49848163 
0.5468698 0.7193212 0.42838123 
0.8225208 0.32042012 0.4698835 
0.3504431 0.100138254 0.93121535 
0.6085349 0.669205 -0.42643887 
0.28377768 0.84338194 0.4562643 
-0.83242005 0.22101416 0.508163 
-0.008229893 0.7381768 0.67455715 
0.7852177 0.60987854 -0.107151754 
0.7030763 -0.36182746 0.61218023 
-0.37250632 0.6873625 0.62351584 
-0.45172435 0.83225715 0.3213926 
-0.5204659 0.37872535 -0.765299 
-0.26945156 0.16755824 -0.94832486 
0.07429085 -0.2148474 -0.97381806 
0.24735114 0.050793946 -0.96759367 
0.030357325 0.42869806 -0.9029377 
0.9002267 -0.29238915 -0.3226461 
0.7411229 -0.24162367 -0.6263824 
-0.21537542 -0.22568204 -0.9500953 
0.2339414 -0.38985682 -0.8906644 
0.2489814 -0.5480724 -0.7985142 
0.67384744 0.33427486 -0.65893096 
0.8149644 -0.28361425 -0.5053674 
0.7339966 0.23728488 -0.6363529 
0.18973449 0.6727326 0.7151446 
0.024048287 -0.27272257 0.9617921 
0.18497816 -0.44683072 0.8752859 
0.327276 -0.51979023 0.7891189 
0.16850182 -0.55664325 0.81348354 
-0.06394959 0.48209277 0.8737832 
-0.55520225 0.19405092 0.8087612 
0.3080708 0.7675929 0.56204414 
-0.04103971 -0.25057882 0.96722597 
-0.3821512 0.9147204 0.13132879 
-0.65232044 0.6537 0.38360718 
0.10610925 0.2423082 0.96437943 
0.28129378 0.5786172 0.7655559 
0.16493282 0.6792462 0.7151376 
0.63182664 0.34204882 0.6955558 
-0.56122106 0.086982906 0.8230825 
-0.23731048 0.33624846 0.91138405 
0.52905047 0.29889005 0.7942105 
-0.32240176 0.560487 0.7628312 
-0.90883964 -0.38968956 0.14883736 
-0.49884638 -0.6473855 0.57623285 
0.56178623 -0.75494975 0.33830026 
0.25073704 -0.14757854 0.95674 
0.46026188 -0.3601014 0.8114716 
0.40992227 -0.05009503 0.9107438 
0.75998265 -0.23958276 0.6041742 
0.30373302 0.9226667 0.23755522 
0.012486679 0.9784852 -0.20593886 
-0.70700914 0.69479513 0.13190116 
-0.0340307 0.9939444 -0.10448231 
0.5760093 0.7868958 0.22137822 
0.23325999 0.87942463 0.41497254 
-0.027213905 0.7844164 0.61963737 
0.06365912 0.60051787 0.79707336 
-0.24304241 0.9091383 0.3382278 
-0.34414575 0.8176239 0.4615789 
-0.11930732 0.6331674 0.7647646 
0.5150203 0.8126253 -0.2727533 
-0.2594378 0.5064921 -0.8222882 
0.061293352 0.07507694 -0.99529225 
0.58638936 0.68665946 -0.42970496 
0.0066858097 0.95750254 -0.2883474 
0.91446406 0.14571936 0.37752017 
0.65917176 -0.09447374 0.74603444 
0.5890487 -0.24725145 0.76934284 
-0.24590977 0.21624601 0.9448631 
-0.47885022 0.59409004 0.64634323 
-0.7306115 0.6631879 0.16244575 
0.41827643 0.7506362 0.5114587 
0.3672681 0.2542143 0.8947007 
0.018577537 0.21954282 0.975426 
-0.2986101 -0.19050291 0.93516886 
0.084001586 -0.24828339 0.9650384 
-0.3882747 0.15042937 0.90918314 
-0.6204427 0.17216966 0.7651199 
-0.5029899 0.6365404 0.58465165 
-0.7019034 -0.052116115 0.710363 
0.14334667 0.57214594 0.80752766 
0.11674848 -0.3937042 0.9117933 
-0.30048782 -0.51039964 0.80572915 
-0.27473748 -0.78335685 0.5575585 
-0.10688123 0.11983111 0.9870243 
0.007796891 0.47489432 0.8800083 
-0.09588332 0.6330668 0.76813596 
0.016918352 0.5997537 0.80000585 
-0.5405557 0.14179356 0.8292733 
-0.8523631 0.4816281 0.20374352 
-0.64683706 0.4857084 0.5879535 
-0.023120316 0.10483693 0.9942206 
-0.7326031 0.490761 0.47164226 
-0.30747083 0.16998702 0.93625116 
0.17322774 -0.6735013 0.7186015 
0.15813819 -0.10661913 0.98164386 
-0.20216346 -0.26498038 0.9428231 
-0.2893405 0.25924575 0.921452 
-0.52387553 0.4271593 0.736946 
-0.6630684 0.74154526 -0.10223011 
-0.090919204 0.82302094 0.5606874 
-0.0919409 0.9775223 0.18972899 
0.3428516 0.85472876 -0.3897327 
0.4607079 0.8375061 -0.29382285 
0.20250852 0.6483979 0.7338736 
0.42663652 0.67127645 0.60611004 
0.4634839 0.28900263 0.8376516 
-0.39614922 0.16284755 0.9036296 
-0.33105317 0.55377823 0.7640245 
-0.030585453 0.19943975 0.9794327 
-0.05137711 0.27234358 0.9608275 
-0.06077982 -0.37437376 0.9252838 
0.47467214 0.17902848 0.8617628 
0.48819765 -0.12252351 0.8640898 
0.7164134 -0.1350321 0.68448395 
0.3863083 0.013016235 0.9222779 
0.58657265 -0.37585896 0.71739995 
0.022951363 -0.3323802 0.94286627 
0.045443695 0.2253018 0.9732287 
-0.0850671 0.6240858 0.77671146 
0.06347561 0.097155675 0.99324304 
-0.32020882 -0.07402474 0.94445044 
0.44725075 0.08962413 0.8899069 
0.8102407 -0.40834326 0.42043546 
-0.18341498 0.15437947 0.9708378 
-0.28312054 -0.6841462 0.6721509 
-0.15177236 0.07385463 0.9856524 
-0.22415951 0.5890555 0.77638024 
0.5437675 0.29884994 0.78422296 
0.46242306 0.8713915 0.16383496 
0.15612817 0.9773478 0.14288211 
-0.0852689 0.63371927 0.7688493 
-0.6593043 0.06357513 0.74918365 
-0.2156528 0.16502741 0.962424 
-0.67814404 0.46398616 0.5699453 
-0.5424645 0.59598166 0.5920627 
-0.7727431 0.194901 0.6040545 
-0.65455556 0.5933074 0.46855468 
-0.8592493 -0.1313576 -0.49440464 
-0.8522773 0.5230878 -0.0016495974 
-0.08950452 0.70660347 -0.70192635 
0.11722124 0.637241 -0.7616975 
0.6054698 0.62666446 -0.49060997 
0.47064853 0.74173385 0.47782934 
0.81022775 0.57252425 0.12548757 
0.6059697 0.65789527 0.44718513 
-0.32233384 0.7042176 0.6325966 
-0.47007948 0.6021126 0.64535713 
-0.56754506 0.7317802 0.37734658 
-0.38326323 0.19657503 0.9024785 
-0.37443954 0.8076268 -0.45555913 
-0.76154494 0.6478341 0.018982554 
-0.37567657 0.3867197 -0.84220845 
-0.2853446 -0.02518929 -0.95809394 
-0.3952483 0.50861 0.7649148 
-0.2179646 0.30812198 0.9260412 
-0.13562414 0.3812723 0.9144603 
0.06669914 0.1719063 0.98285276 
0.47119686 0.48482636 0.736829 
-0.31451347 0.38651866 0.8669975 
0.12078372 0.60363793 0.78805625 
0.082118176 -0.059388038 0.99485165 
0.38094744 0.33591038 0.8614194 
-0.4603134 -0.3149285 0.8300192 
-0.79425335 0.5729605 0.20218314 
-0.51036894 0.83102936 0.22116484 
-0.6994514 0.66950923 -0.2500503 
-0.17262734 0.7015566 -0.6913886 
0.44841048 0.36366382 -0.81650275 
0.4499049 0.138485 -0.88227415 
0.90127563 0.32697973 -0.28422987 
0.91396415 -0.12004272 -0.38763306 
0.99761975 -0.06446255 0.024485938 
0.8512031 0.40709162 -0.33125514 
0.8110499 0.06322272 -0.5815505 
0.9357511 0.03200802 -0.35120568 
0.76694936 0.5634286 -0.30714315 
0.72885424 0.605851 0.31892973 
0.5162204 0.6097478 0.60143507 
0.4869776 0.37670678 0.78800046 
0.5565831 0.04549466 0.8295454 
0.38825205 -0.20254803 0.8990187 
-0.41853932 0.34643918 0.83952653 
-0.56769216 0.23146094 0.7900326 
0.2360132 0.30969128 0.9210804 
0.6330972 0.49157265 0.5979501 
0.43043697 0.58890235 0.6840454 
0.37956673 0.22354773 0.8977502 
0.1462344 0.10287447 0.9838864 
0.2700788 -0.47176072 0.8393446 
0.20250483 -0.30277535 0.9312996 
0.17698021 0.16435096 0.97039527 
-0.052639507 -0.2217037 0.97369224 
0.39964664 -0.13141581 0.9072004 
0.77283555 0.2269829 0.59262466 
0.6614411 0.47761214 0.57825804 
0.69919986 0.68224716 0.21367854 
0.26001436 0.9633867 -0.0654117 
0.65058345 0.10436557 0.7522294 
0.5598465 0.23512572 0.7945362 
0.15965793 -0.026295293 0.9868222 
-0.09791852 0.06953849 0.992762 
-0.54831725 0.50686795 0.6651564 
-0.3205823 0.5923929 0.73911947 
-0.45666683 0.5315993 0.71334255 
-0.9758588 0.12529965 0.17888452 
-0.8460769 0.5199482 -0.11750691 
-0.32443792 0.9445327 0.05097085 
-0.8861735 0.45975262 -0.057656504 
-0.6188476 0.53975976 -0.57069 
-0.7928895 0.3798884 -0.47645688 
0.59593654 0.7012439 -0.3913015 
0.28519213 0.7907204 -0.5416888 
0.54467946 0.2206994 -0.8090835 
0.15225312 0.9854699 0.07528681 
0.71679354 0.639569 0.2777744 
0.7033518 0.6198379 0.3479903 
0.35528812 0.288822 0.88901764 
-0.3353624 0.5284935 0.77988887 
-0.5945996 0.34865242 0.7244949 
-0.38530573 0.68402773 0.6193913 
0.29058188 0.8601632 0.41914374 
-0.15685645 0.5204725 0.8393477 
-0.030568693 0.3117356 0.9496771 
0.5511252 0.15038791 0.82075846 
0.68140125 0.34395924 0.646053 
0.23850125 -0.3556221 0.90368694 
0.41905904 -0.16803277 0.892275 
-0.23246568 -0.005364557 0.9725899 
-0.79791564 0.30508015 0.51986223 
0.3429478 0.3483315 0.8723829 
0.525028 0.373098 0.7649467 
0.5649251 0.11120425 0.8176144 
0.3850938 -0.39609343 0.8335543 
0.9180973 -0.079967335 0.38820416 
0.6494732 0.6286509 0.42776483 
0.5023895 0.23521914 0.8320317 
0.07777333 0.79222745 0.60524964 
0.37490857 0.6170348 0.69188994 
-0.49466947 0.614188 0.6148783 
-0.672909 0.50633925 0.5392719 
-0.9062643 0.01882154 -0.42229235 
-0.42714196 0.74933505 -0.5060108 
-0.5659247 0.48727027 -0.6650541 
-0.75366044 0.6537973 0.06741804 
-0.39670384 0.88294816 -0.25105503 
0.6095535 0.6520122 -0.45091522 
0.4916883 0.782997 0.3809966 
0.14793822 0.6666886 0.7305071 
-0.38733724 0.47139254 0.79231244 
-0.07123611 0.43550837 0.8973617 
-0.10258992 0.50472456 0.85716313 
0.010416368 0.80608845 -0.59170353 
0.65666354 0.68079 0.32452726 
0.31638354 0.9410662 -0.11956593 
0.8630953 0.32292017 0.3883158 
0.6910692 0.19968556 0.6946576 
0.90749997 -0.3985719 0.13260572 
0.56787854 0.6188148 0.5427543 
-0.0062845587 0.87594414 0.4823716 
0.20211816 0.4103764 0.8892354 
-0.10221631 0.3597457 0.9274346 
0.40462387 0.22401328 0.8866214 
-0.13363463 -0.007507329 0.99100226 
-0.16890971 0.561138 0.8103047 
-0.54448485 0.53769267 0.6437568 
-0.5461627 0.4385403 0.7137148 
-0.22588164 0.9025281 -0.36663416 
0.20585725 0.33889994 -0.91802484 
0.113172665 0.7565273 -0.644095 
0.5481351 0.15837137 -0.8212591 
0.8527188 0.025239732 -0.5217601 
0.40456656 -0.28799078 -0.86797893 
0.4376441 0.3920222 -0.80918866 
0.028104695 0.238338 -0.9707756 
-0.08296766 0.35066834 -0.93281734 
0.73826677 0.5078555 -0.4438975 
0.57743925 0.30363125 -0.75787336 
0.8304814 -0.553866 0.059439737 
-0.09760447 -0.16458514 0.98152184 
-0.30850753 -0.35644862 0.8819113 
-0.34923097 0.20408428 0.91454226 
0.4124906 -0.3100251 0.856584 
-0.066845775 -0.7523626 0.6553489 
-0.65276426 0.4121573 0.6356299 
-0.70634705 0.05769709 0.7055105 
-0.25153643 0.59675455 0.76198 
-0.33581573 -0.13911359 0.93159825 
0.29307786 0.6605902 0.69117725 
-0.21158439 0.30809167 0.9275298 
-0.109226786 0.33680955 0.935216 
0.26829135 0.4042237 0.8744272 
0.12630668 0.10282309 0.9866479 
-0.20888744 0.22766775 0.9510697 
-0.35385773 0.63344556 0.6881362 
-0.32265085 -0.25646135 0.9111115 
-0.3850455 -0.20809294 0.8991314 
-0.11950325 0.5590705 0.8204628 
-0.49118096 -0.16514367 0.8552596 
-0.34192675 -0.087081224 0.9356832 
0.027561923 0.05572426 0.99806577 
0.15783796 -0.27964282 0.94704133 
-0.0146642905 -0.8216089 0.5698629 
-0.4915991 -0.065485 0.86835593 
0.031230446 0.22287571 0.9743465 
-0.6187099 0.6791883 0.3948433 
-0.28620663 0.8693113 0.40296865 
-0.089059174 0.9934645 0.07139178 
0.43922487 0.86044943 0.25827974 
0.7916513 0.50906473 0.33784825 
0.37083256 0.5455534 0.75156814 
0.074151315 0.19012362 0.9789559 
0.36959317 0.203795 0.9065697 
0.46908575 0.8776953 0.09802894 
0.008790248 0.9856725 -0.16844146 
-0.08396135 0.6690921 -0.73842144 
-0.22502702 0.8402353 -0.493323 
0.26830113 0.9633167 -0.0059539927 
0.46519575 0.42517644 -0.7764135 
0.3698304 0.40291482 -0.83718884 
0.4540169 0.8632097 0.22076598 
0.665129 0.5574384 0.4968561 
0.8488866 0.4420769 0.2897579 
-0.38711253 0.39726576 0.8320599 
-0.5080907 0.3756261 0.77507997 
-0.46993473 0.46619892 0.74954647 
0.26097757 0.5254146 0.8098334 
-0.3633065 0.7222377 0.58854157 
0.1918801 0.41837925 0.88777304 
0.7138482 0.17761235 0.677403 
0.28974742 -0.024538336 0.9567886 
0.42303008 0.3125149 0.8505176 
-0.3415478 -0.2985174 0.89119726 
-0.8607735 0.33667263 0.38173372 
-0.24745616 0.62235355 0.7425911 
-0.016117105 0.29723066 0.9546697 
-0.27462894 -0.42555168 0.8622556 
-0.31047466 -0.19481659 0.9304043 
-0.4042795 -0.63440716 0.65885186 
-0.3246915 -0.7654454 0.5555796 
0.29291594 -0.119374245 0.94865704 
-0.34489354 -0.0001351247 0.93864185 
-0.17730199 0.7517345 0.63518465 
0.43163985 -0.2555986 0.8650759 
0.15343948 -0.29049176 0.9444951 
-0.3566891 0.31012815 0.8812455 
-0.58828974 0.42895004 0.68550503 
0.42180082 -0.124840595 0.89805293 
0.43714926 0.475993 0.7631062 
0.025217982 -0.433287 0.9009031 
0.8495967 -0.33661976 0.4060451 
-0.09984224 -0.38979134 0.9154749 
-0.32724944 0.6002005 0.7298406 
0.07325078 0.51703715 0.8528229 
-0.08074887 0.2384917 0.96778166 
-0.8991845 0.424449 0.10635006 
-0.8455431 0.404135 0.34890088 
-0.64339924 0.76478046 0.03388523 
-0.32998207 0.36446452 -0.8707913 
0.35682532 0.85574 -0.37467948 
0.17995605 0.96842927 0.17251286 
0.48046756 -0.22957148 0.84643257 
0.274673 0.19219339 0.94213396 
0.14074679 -0.51718235 0.84422314 
0.11196603 0.40437058 0.90771586 
0.22336164 -0.20707633 0.95248574 
0.48641685 0.31981692 0.8130903 
0.6214098 0.29905388 0.7241663 
0.05339139 -0.13804746 0.98898554 
0.14892998 -0.31948128 0.935816 
0.2553168 -0.61924505 0.7425288 
-0.22580548 -0.28898558 0.9303222 
-0.031221248 -0.4742753 0.87982285 
-0.5794088 0.15021597 0.8010746 
0.44155025 0.75415045 0.4860974 
0.7038638 0.5363055 0.46578127 
0.5119733 -0.24942131 0.82199293 
0.13414027 -0.6998206 0.7016107 
0.29406434 -0.92723286 0.23187393 
0.41325793 -0.7960522 0.44217497 
-0.176662 -0.65343684 0.7360781 
-0.10386277 -0.75247097 0.65038455 
-0.52737415 0.11875246 0.8412932 
-0.4109799 0.0029703507 0.91163963 
-0.35524467 0.1780017 0.9176692 
-0.46214566 0.8771477 0.13051228 
-0.25199082 0.8786422 0.40557197 
-0.45494506 0.7829499 0.42428136 
-0.94875956 0.3159412 -0.006040018 
-0.5270917 0.6706365 0.5219397 
-0.67198724 0.7139594 -0.19671127 
-0.60513455 0.122111775 0.7867027 
-0.06554621 -0.026862958 0.99748796 
-0.21091586 0.3274773 0.9210175 
-0.8636936 0.47305784 0.17392433 
-0.37429866 0.9114018 0.17101847 
0.091263756 0.9949556 0.04164451 
-0.19506249 0.5631142 -0.80302733 
0.6903174 0.72260463 -0.0361195 
0.21281098 0.47200334 0.8555259 
0.3406306 0.021086276 0.9399608 
0.22010124 0.6867179 0.6928016 
-0.157508 0.9730514 0.16841096 
-0.27051258 0.61709327 0.73893094 
0.16744576 0.63419247 0.7548257 
0.11169196 0.59430134 0.796449 
-0.32842466 0.89539343 -0.30067924 
-0.57987744 0.49504876 -0.6470464 
-0.5732547 0.6829564 -0.45271373 
-0.6852267 0.70907414 -0.16636835 
-0.4327768 -0.0754308 0.89833987 
-0.5324637 0.70310146 0.47130752 
-0.37977305 0.03435723 0.9244415 
-0.70693845 0.23472978 0.6671881 
-0.5824322 0.52260023 0.6226249 
-0.35246497 -0.19293791 0.9157202 
0.020042911 0.03908937 0.99903476 
0.05828326 -0.066192396 0.9961032 
-0.24229993 -0.34260458 0.9076965 
-0.3521506 -0.012224951 0.9358636 
-0.49774545 -0.39026776 0.77455837 
-0.49277455 0.09355904 0.8651127 
-0.6598357 0.68410295 0.3108376 
-0.18371291 0.72650784 -0.66214496 
0.5305772 0.46376035 -0.7095169 
0.03631435 0.036597505 -0.9986701 
0.03620842 0.73044527 -0.6820108 
0.34546724 0.66333747 -0.66380405 
0.80730903 0.5540515 -0.2031723 
0.5519061 0.70007575 -0.4530934 
0.48219514 0.16089268 -0.8611628 
0.8968794 -0.22401547 0.38134575 
0.81698436 0.27382532 0.50750023 
0.65996015 0.36214006 0.6582608 
0.67902386 0.038570836 0.73310226 
0.586851 -0.12578511 0.79986507 
0.8078638 0.16389595 0.5661221 
0.23692375 -0.043459415 0.9705557 
-0.32540283 0.03583823 0.9448961 
-0.1561525 -0.09600146 0.98305655 
-0.12806186 0.23453698 0.96363515 
-0.014222283 0.69617325 0.71773297 
0.13207376 0.8784676 0.4591853 
0.6277469 0.5568102 0.54396343 
0.2223848 -0.2630745 0.93879545 
-0.43031484 -0.31115887 0.8473543 
0.32968304 -0.70443356 0.62855583 
0.5694628 -0.17053522 0.8041331 
0.32739773 -0.4891334 0.80843014 
0.60354793 -0.44374433 0.66243565 
0.40922004 0.285825 0.86651206 
0.40561435 0.49620274 0.7676327 
-0.016677208 0.8798356 0.47498566 
0.4138718 0.76069826 0.5000483 
0.43093893 0.39881742 0.8094668 
-0.1695814 -0.028757418 0.9850966 
-0.07192411 0.31370482 0.94679266 
-0.42728943 0.23055464 0.8742245 
0.48167545 0.6677167 0.5675766 
-0.11489539 0.95799917 0.26274824 
0.29014698 0.67745 0.67592627 
-0.72224003 0.50617397 0.47133562 
-0.79978144 0.15832615 0.5790359 
-0.65859365 -0.6487594 0.38126865 
-0.69999427 -0.5907465 -0.40128133 
-0.46966103 0.7329021 -0.4922124 
-0.53407615 0.7448405 -0.3999692 
-0.5044221 0.83541733 -0.2182574 
-0.37820497 0.63386256 -0.67466986 
0.16965868 0.95596755 -0.23946203 
0.70792407 0.6100693 0.35589194 
0.8648583 0.42992756 0.25919557 
0.6095185 0.18644057 0.77053696 
0.49500513 0.6428134 0.5846033 
-0.40153834 -0.16205432 0.9013908 
0.10284584 0.31798524 0.94250107 
-0.05081509 0.6647596 0.7453272 
0.2536075 0.45531088 0.85344905 
0.62105703 0.60501444 0.49824262 
0.12989141 0.40856004 0.90344167 
0.7476902 0.5970792 0.29061273 
0.7161607 0.018221915 0.6976976 
0.21254562 -0.34282225 0.9150396 
0.15953149 0.046369977 0.9861032 
0.09903116 -0.3352672 0.9369039 
0.5762229 0.7608361 0.29848874 
0.8441641 0.03024768 0.5352311 
0.40244558 -0.11059365 0.9087391 
0.5221596 0.4835989 0.70248246 
0.7056602 -0.21250226 0.6759338 
0.5018128 -0.6571851 0.56239814 
0.62671334 -0.19368951 0.75479466 
-0.15792985 0.28129184 0.9465374 
-0.4641904 -0.1336108 0.87560004 
-0.17483144 0.26155 0.94922364 
-0.8123815 0.5829447 0.014560067 
-0.7659924 0.61470497 0.18813193 
-0.7763873 0.5999511 0.19308421 
-0.5193898 0.80874914 -0.27596948 
-0.31052896 0.44933504 -0.8376574 
-0.36145702 0.8029606 0.47392315 
-0.45625302 0.8041818 0.38095227 
-0.06949181 0.93313074 -0.3527576 
-0.037830137 0.5435172 0.83854526 
-0.040108874 0.4273452 0.9031985 
-0.6006922 0.07754559 0.79571074 
0.10348754 0.6517547 0.7513363 
0.22386858 0.6272347 0.7459622 
-0.08349043 0.95220494 -0.29382864 
0.38355613 0.9229812 -0.0314709 
-0.09144314 0.9678773 -0.23420402 
0.5367928 0.23080736 0.8115304 
0.31881937 -0.31184757 0.8950449 
0.45675537 0.17229167 0.8727487 
-0.008925381 0.673783 0.73887545 
0.38348916 0.5470623 0.7440826 
0.20288457 0.4065447 0.8908195 
-0.021863217 -0.07381644 0.9970322 
-0.45421556 -0.03990324 0.88999784 
-0.5675921 0.45845795 0.68385357 
0.22054583 0.29214743 0.9305963 
-0.26847723 0.7219214 0.6377693 
-0.63976693 0.6181897 0.45666164 
0.01656574 0.9616245 -0.27386868 
0.31474486 0.8350354 -0.45127776 
0.67602223 0.6776465 -0.2894637 
-0.0874184 0.67104447 -0.7362455 
0.86743134 0.44490802 -0.22275525 
0.73014516 -0.0040215137 -0.6832803 
0.08987275 0.75606424 -0.6482977 
0.29942092 0.3433905 -0.89018553 
0.46643433 0.66744626 -0.58047783 
0.4595278 0.105300315 -0.8818992 
0.9636012 -0.04303304 -0.26385793 
0.934725 0.13550209 0.32852456 
0.38561958 0.06815465 0.92013717 
0.38955802 -0.4932488 0.7777854 
0.043669913 0.010227906 0.9989937 
0.89995944 -0.11428494 0.4207278 
-0.23424266 -0.35483062 0.90511084 
-0.4739395 0.15700929 0.86644644 
-0.313506 0.14352703 0.9386767 
0.0838607 0.77826595 0.6223098 
-0.050396103 0.5218333 0.8515576 
0.14822577 0.37712273 0.91422516 
-0.38565257 0.15885025 0.90886676 
-0.1526151 0.001282414 0.9882849 
-0.3062864 -0.10113584 0.9465518 
0.46705678 -0.057640553 0.88234663 
0.6643449 0.40060678 0.6309993 
0.14580289 0.3078502 0.94019675 
-0.19911577 -0.21259004 0.9566391 
-0.1417847 -0.020317076 0.98968905 
-0.1402278 -0.5256961 0.839035 
0.55769634 -0.42498988 0.71299267 
-0.0887289 -0.1768491 0.98023045 
-0.17226347 -0.15110008 0.97339314 
-0.16146134 -0.3954656 0.9041777 
-0.6584626 -0.7498998 0.06385402 
-0.32172978 -0.6597987 0.6790845 
-0.110057086 0.20777017 0.9719666 
-0.26682547 0.8686944 -0.41734174 
-0.34073806 0.889842 0.30344486 
-0.41649133 0.8983923 0.13937795 
0.47777867 0.8159631 0.32547155 
0.25921103 0.73692304 0.62430286 
-0.08070893 0.5945464 0.8000005 
-0.03921013 0.2761894 0.9603031 
-0.4803052 0.36283556 0.7985345 
-0.18134542 0.79844207 0.57411176 
-0.24456207 0.860765 0.4464 
-0.47356328 0.57848567 0.6641477 
-0.5665849 0.18228395 0.8035884 
0.43649566 0.73775345 0.5149674 
0.7669043 0.639134 0.058013674 
0.23188612 0.84094715 -0.48891386 
0.5126857 0.60639435 0.60781527 
0.47863257 0.6662068 0.57190853 
-0.08339432 0.8072395 0.58430296 
-0.12489961 0.8357055 0.5347863 
-0.58975995 0.38162395 0.71172076 
-0.74655825 -0.22227828 0.6270911 
-0.62496924 -0.2829783 0.7275554 
0.28621715 0.41122535 0.8654326 
-0.25342712 0.062410217 0.9653391 
0.5505114 0.07186822 0.83172846 
0.53734267 0.17773256 0.82442355 
0.7906523 -0.11933442 0.60052353 
0.31527373 0.14799155 0.9373905 
0.04547412 0.33864748 0.9398138 
-0.15630342 0.0048674284 0.98769706 
-0.004985988 0.13346659 0.9910408 
-0.7548255 -0.2575665 0.6032398 
-0.3319276 -0.86349845 0.3797298 
-0.16427445 -0.95773476 0.23613162 
-0.638703 -0.53176177 0.55613667 
0.036669992 -0.8441151 0.53490657 
-0.44229323 -0.6573085 0.61018217 
0.08810744 0.09222253 0.9918328 
0.6918434 -0.12075083 0.71187925 
-0.33002755 -0.831734 0.44643083 
-0.25698274 -0.35481203 0.89892626 
0.018163804 0.2423265 0.9700248 
0.912847 0.10795808 0.39377087 
0.594277 0.372273 0.7129149 
0.15368712 -0.20852765 0.9658657 
0.20066877 -0.17656189 0.96361715 
-0.19585106 0.5676141 0.79966027 
0.36099762 0.7772831 0.5152783 
-0.09338134 0.33809257 0.93646854 
0.1333339 0.26251638 0.95567113 
-0.3518928 0.48186263 0.8024836 
-0.7791556 0.38335052 0.49594244 
-0.5589278 0.70275533 -0.44015312 
0.29052573 0.94514763 -0.14930153 
0.9634822 0.26692763 -0.021252895 
0.44003758 0.89591014 0.060926322 
0.617773 0.60250354 0.50531787 
0.06989764 0.2604433 0.9629557 
-0.22936322 -0.19189925 0.9542365 
0.15829824 0.35155687 0.9226861 
-0.087596506 0.05628529 0.9945647 
0.23315161 -0.10537891 0.96671385 
-0.006857475 -0.16650043 0.9860175 
-0.37070242 -0.66243833 0.6509648 
-0.57816154 -0.3657034 0.7293767 
0.13841657 -0.6635148 0.7352476 
-0.9854915 -0.09837291 0.13830875 
-0.544279 -0.37289417 0.7514721 
-0.46179613 -0.8283996 0.317015 
-0.07336316 -0.5250148 0.84792536 
-0.027112003 -0.9773814 0.20973964 
0.2786998 -0.5944759 0.75427115 
0.21722926 -0.93653184 0.27517182 
-0.029739272 -0.89659363 0.44185466 
-0.06790376 -0.78041774 0.6215604 
-0.242326 -0.69376934 0.6782052 
-0.01357827 -0.19535862 0.9806379 
-0.19177824 0.060368612 0.9795799 
0.28602567 -0.00052415644 0.95822185 
0.1535613 0.5512315 0.8200993 
0.013773767 0.61849606 0.78566724 
-0.041741263 0.91289437 0.40605628 
-0.16259016 0.09676669 0.9819372 
-0.12557575 0.333965 0.9341831 
-0.22647768 0.4361327 0.8709168 
-0.32918212 0.5844798 0.7416351 
0.028566942 -0.016558392 0.99945474 
0.31699193 0.10538251 0.94255537 
-0.27160245 0.43276754 0.8596187 
0.03431467 0.95330024 0.30006886 
0.023282027 0.9931723 -0.114309914 
-0.30734715 0.9305498 0.19903484 
0.20654473 0.6889577 0.6947493 
0.17985418 0.6346124 0.75161135 
0.6093414 0.37642625 0.6978584 
0.316653 0.46826833 0.82489735 
0.45576608 -0.16201551 0.8752305 
-0.46689296 0.72970814 0.49953684 
-0.5519864 0.81826144 0.16049726 
-0.31821612 0.61899966 0.7180376 
-0.677647 0.521822 0.5181665 
-0.7940168 0.60121304 0.08989114 
-0.6979412 0.62741655 -0.34529224 
-0.18683264 0.9579474 -0.2177854 
0.23516017 0.814687 0.53008014 
-0.5876853 0.1694056 0.791156 
-0.5607139 0.5408071 0.62699896 
-0.65535223 0.18499872 0.7323175 
-0.5019369 0.12831852 0.8553325 
-0.020158106 -0.015805325 0.9996719 
-0.020468205 -0.80269873 0.59603333 
0.3805917 -0.4683685 0.79735875 
-0.12457126 -0.2805092 0.9517335 
0.110808335 0.54839164 0.82884747 
0.4113491 0.51681566 0.75079525 
-0.3134139 0.8256019 0.46920505 
-0.23197827 0.32180026 0.9179492 
-0.28017378 0.9599493 1.431342e-05 
-0.3307347 0.8909955 0.3110333 