# OOMMF: rectangular mesh v1.0
# Segment count: 1
# Begin: Segment
# Begin: Header
# Desc: Time (s) :  2.1099999999999963e-07
# Title: m
# meshtype: rectangular
# meshunit: m
# xbase: 2e-09
# ybase: 2e-09
# zbase: 5e-10
# xstepsize: 4e-09
# ystepsize: 4e-09
# zstepsize: 1e-09
# xmin: 0
# ymin: 0
# zmin: 0
# xmax: 1.024e-06
# ymax: 1.024e-06
# zmax: 1e-09
# xnodes: 256
# ynodes: 256
# znodes: 1
# ValueRangeMinMag: 1e-08
# ValueRangeMaxMag: 1
# valueunit: 
# valuemultiplier: 1
# End: Header
# Begin: Data Text
-0.57751393 0.1302968 0.80591595 
-0.9114125 -0.20238283 0.35828573 
-0.3717167 0.22035423 -0.90181524 
-0.0019387999 0.89180046 -0.4524248 
0.047329493 0.9708333 -0.23503783 
-0.7370353 0.5401056 -0.4062821 
-0.20190442 -0.043854397 -0.97842294 
0.38918486 0.7063999 -0.59121424 
-0.039676826 0.99921197 -0.0011346072 
0.37886286 0.21082747 0.9011186 
-0.1990691 0.9426585 0.267893 
-0.5269259 0.77132714 0.3569363 
-0.8139771 0.3876108 0.4326653 
-0.8766032 -0.4099048 -0.25208154 
-0.3396257 -0.08084303 -0.93707997 
-0.15109976 0.31900913 -0.9356292 
0.84222835 0.32828408 -0.4276459 
0.7725589 -0.2283725 -0.5924516 
0.71113634 0.60556835 0.35717246 
0.7813424 0.3226914 -0.5342044 
0.41425636 0.89106256 -0.1854708 
0.4985551 0.5692487 -0.65375745 
0.8374234 0.3240267 0.44014642 
0.38312542 0.047929056 0.9224521 
0.5484495 -0.7604897 -0.3476474 
0.9147576 -0.40392226 0.008092495 
0.9811185 0.18607594 0.052747406 
0.97489685 0.14431423 -0.1695571 
0.9478223 0.31653163 0.03795714 
0.31638756 0.88379663 0.34467727 
0.14929712 0.6667469 0.73017734 
-0.018032819 0.32602972 0.9451875 
0.35569468 0.5321156 0.7683321 
-0.094228454 0.78525007 0.61196685 
0.33983502 0.9397689 0.036697377 
0.021611715 0.87679106 -0.4803856 
-0.033905417 0.1518172 -0.98782694 
-0.15525499 0.7538309 -0.63846284 
0.15960708 0.5619294 -0.81164086 
0.76061356 0.6462759 -0.06160005 
0.29892546 0.8415747 0.44988415 
-0.4329793 0.83547103 -0.33840388 
-0.68110996 0.5269615 -0.5083314 
-0.2538773 -0.24691539 -0.9351894 
0.5373579 0.26069778 -0.80204946 
-0.48712543 0.7784638 -0.3958574 
-0.1939181 0.77446824 -0.6021584 
-0.11853177 0.9090163 -0.39954922 
0.4004239 0.8697964 0.28829697 
-0.040392805 0.73464936 -0.67724353 
-0.13218558 0.56128615 -0.8169974 
0.97422487 -0.22056654 0.047290456 
0.9688352 0.23763165 0.069925524 
0.18704838 0.87627953 0.44401276 
0.7784467 0.0027281332 0.6277048 
0.7107381 0.4132229 0.5692962 
-0.20147154 0.85127264 0.48450416 
-0.7685966 0.35583863 0.53163725 
0.20416515 0.15896393 0.9659437 
-0.36558765 -0.15811314 0.91724914 
-0.32322186 0.5886686 0.7409434 
-0.02559752 0.7947611 0.60638237 
-0.96348727 -0.03495031 0.26546344 
-0.35786596 -0.61375076 0.7037344 
0.0794132 0.29481003 0.9522503 
0.8631364 0.19849017 0.46432453 
0.4483041 -0.0023625784 0.89387804 
0.5685322 0.065261655 0.8200684 
0.09283216 0.36499092 0.9263714 
0.21031962 0.5294551 0.82185334 
0.13081022 0.42354128 0.8963826 
0.49296242 0.5543817 0.67055875 
0.6462313 0.3637345 0.67088175 
0.5115061 -0.16926391 0.84244365 
0.8517958 0.2679547 0.4501604 
0.8731316 0.06479649 0.48315907 
0.7773272 0.59730667 -0.1974523 
0.73278415 0.29839218 0.61154693 
-0.022297004 0.9636683 0.26616982 
-0.607134 0.77369136 0.18108016 
-0.11308619 0.98172736 -0.15304585 
-0.26371682 0.7584678 0.5959699 
-0.3870607 0.916068 -0.1048978 
-0.36389342 0.91214615 -0.18860285 
0.68166953 -0.2577429 0.6847594 
-0.12495082 0.066896856 0.9899051 
0.44280946 -0.13548374 0.8863204 
0.3570573 0.08550713 0.9301605 
0.06687989 -0.24512538 0.96718186 
0.49192113 -0.43304008 0.7553079 
0.5466313 0.11508746 0.82942706 
0.21108113 0.9143125 0.34565523 
-0.47167942 0.66090053 0.58372 
-0.3620696 0.82381654 0.43615603 
-0.597715 0.224274 0.7697 
-0.928055 0.316483 -0.1963482 
-0.61246765 0.6516779 -0.44743642 
-0.05298744 0.4596221 -0.8865325 
-0.06690692 0.17859155 -0.9816458 
-0.62490046 -0.06660276 -0.7778584 
0.14232442 0.5757788 -0.8051228 
0.3894424 0.69026804 -0.6098071 
0.27555895 0.75992775 0.58870804 
0.60935 0.3346723 0.7188094 
0.6716803 0.18746437 0.7167306 
0.1584474 0.4160196 0.8954453 
-0.04220965 -0.035983454 0.99846065 
-0.383656 0.6590387 0.6468973 
-0.53292423 0.5458211 -0.6465843 
-0.45522654 0.8095015 -0.3707777 
0.43718863 0.8908742 0.12332537 
0.9227365 -0.07230526 -0.37858883 
0.9034813 -0.034093726 -0.42726943 
0.9882238 0.15295324 0.0043683313 
-0.48695064 -0.04786385 0.87211704 
0.49792817 0.521582 0.6928347 
0.612145 0.35793778 0.7050951 
0.13332257 0.22659759 0.9648206 
0.43428332 -0.11249859 0.89372367 
0.17715178 0.83629787 0.5188672 
-0.4890347 0.4715697 0.73380315 
-0.29442766 0.91120934 0.28811452 
-0.03129725 0.99950707 -0.0024866248 
0.50682664 0.81337047 -0.28557914 
0.7942745 -0.09091801 0.600718 
0.7385692 -0.08857005 0.6683344 
0.3678034 0.13976227 0.9193406 
-0.1800631 0.61615026 0.76677 
0.4107919 0.652791 0.6364856 
0.13081622 0.7047937 0.6972467 
-0.4430379 0.7530251 0.48648813 
-0.45960534 0.37915856 0.80312 
-0.6356166 0.46599776 0.6154978 
-0.34109354 0.94001585 -0.0050524753 
-0.44051477 0.027414666 0.8973267 
-0.3690976 0.8926148 0.25885522 
-0.74533975 -0.016807348 -0.666473 
-0.6983727 0.35802448 -0.6197533 
-0.16109449 0.27399048 -0.9481444 
0.6801422 0.041139666 -0.73192495 
0.71178395 0.44397524 -0.54428816 
0.41239348 0.9096074 0.05045734 
0.5147413 0.8555447 0.05553981 
0.36530998 0.9219773 0.12847756 
0.14646018 0.9701504 -0.19328122 
0.14375214 0.80719787 -0.5725093 
0.83901703 0.5200592 0.15996523 
0.6707727 0.17926198 0.719673 
0.043246623 -0.42479512 0.90425605 
-0.09421931 0.26903367 0.9585112 
-0.20304665 0.5323746 0.8217965 
-0.35208893 0.38024423 0.8552472 
-0.49709445 0.81851465 0.2879772 
-0.6878112 0.57861346 0.43831754 
-0.35996753 0.5418386 0.7594961 
-0.35617253 0.61119455 0.7068115 
-0.090937585 0.9812207 -0.17010647 
0.14258705 0.9870803 -0.07308563 
0.18413195 0.97688305 -0.108605124 
-0.775782 0.6223354 0.104216225 
-0.42221427 0.15975031 -0.89230883 
-0.55584157 0.73297054 -0.39216635 
0.12402553 0.8666778 -0.4832052 
0.4654466 0.8777156 0.11390714 
0.019367263 0.66189456 -0.7493468 
-0.12718144 0.67680275 -0.7250951 
-0.73341936 0.16552775 -0.65931535 
-0.11938509 0.18950067 -0.97459567 
0.27869207 0.5044636 -0.81721926 
0.39241135 0.6040375 -0.6936513 
-0.53626394 0.83528936 -0.12129605 
-0.3472293 0.70836 -0.6145388 
0.046976637 0.85188156 -0.52162355 
0.4185699 0.75431854 -0.5057695 
0.82115185 0.39146256 -0.41529125 
0.9713996 0.107938305 0.21150003 
0.4505688 0.50451213 0.7365157 
-0.12249918 0.16875455 0.97801626 
-0.7948728 0.4018374 0.45464692 
-0.63733757 0.5956825 0.48883867 
-0.074951075 0.3359104 0.93890715 
0.015781684 0.14402418 0.9894483 
-0.11623307 0.22866641 0.9665411 
-0.84545344 -0.109911844 0.5226165 
-0.70466983 0.27372882 0.65460914 
-0.93635327 -0.15257365 -0.31617066 
-0.41237214 0.4820442 -0.7730348 
0.4241417 0.6573496 -0.62289286 
0.5648036 0.7265985 0.39121804 
0.43996257 0.16707577 0.88233715 
0.05286515 -0.4637553 0.88438475 
0.37289235 0.14049435 0.9171765 
0.25133345 0.91238207 0.32309535 
-0.2829776 0.88615763 -0.36694467 
0.20701389 0.9217878 0.32779968 
-0.0007937311 0.9843828 -0.1760394 
-0.06921785 0.9494113 -0.30631214 
0.33018327 0.9408791 0.07566877 
0.06725637 0.9868267 -0.14713839 
-0.3645065 0.5805175 -0.7281034 
-0.07857969 0.82607687 -0.5580523 
-0.5142476 0.43253383 -0.7405835 
-0.56196344 0.4977318 -0.6606513 
-0.5979974 -0.5488499 -0.58409166 
0.031606395 0.2907196 -0.95628613 
0.24555147 0.05747476 -0.9676783 
0.5894756 -0.35264826 -0.72674465 
0.8060064 0.37336823 -0.459293 
0.86026084 0.24148369 -0.44904003 
0.52275574 0.6364164 -0.56718665 
0.6790273 0.072964154 0.7304781 
0.24697714 0.35517555 0.9015835 
0.5955147 0.22310126 0.7717435 
0.27258265 -0.10771961 0.95608324 
0.69770235 0.55604404 0.4516929 
-0.091292225 0.988595 -0.119773924 
-0.053344287 0.9913747 -0.11971152 
0.64474654 0.75402564 0.12548843 
0.23116045 0.8729693 0.42952237 
0.42802393 -0.10466089 -0.89768684 
0.82570267 -0.009758489 -0.56402117 
0.71361005 0.6790859 0.17205548 
0.5248383 0.69961894 -0.48484865 
0.83566624 -0.11862182 0.5362749 
0.66590947 0.30995739 0.6785949 
0.037400395 0.8677005 0.49567845 
-0.68197316 0.61607057 0.3941696 
-0.4972373 0.7686823 -0.40234625 
-0.016229099 -0.15238541 -0.98818797 
0.47863856 -0.10963545 -0.8711401 
0.76695126 0.27131742 -0.58152616 
0.80694747 0.5636124 -0.1765701 
0.62631524 0.7502126 0.21192054 
0.6413183 0.74088234 0.19951011 
0.46195155 0.778091 0.4256468 
0.8740889 0.36122146 0.32478896 
0.75934947 -0.6291418 0.16603921 
0.82405734 -0.25945386 0.5036003 
0.4586676 0.16160086 0.8737902 
0.5391595 0.30396965 0.78543586 
-0.25063923 0.7960628 0.5508756 
-0.11892644 0.9928941 0.004221555 
-0.22261241 0.91050327 -0.3484646 
-0.50585455 0.7156714 0.4815866 
-0.27016506 0.73951125 0.6165501 
0.2104364 0.43313667 0.87641835 
0.4998394 0.0058895363 0.86609805 
0.2983777 0.58171207 0.75669146 
-0.37319687 0.5006619 0.7810646 
-0.88485014 -0.1302289 0.44730386 
-0.5070796 0.4642358 0.7261924 
-0.49890125 0.8217233 0.27544215 
-0.19900686 0.56811047 0.79852784 
-0.15257071 0.31041083 0.938279 
-0.8222808 0.24079464 0.515628 
-0.6443278 0.18488662 0.7420638 
-0.59034914 -0.39521384 0.7037713 
-0.88232034 0.34405094 0.3211539 
-0.39672518 0.6851169 -0.6109207 
-0.80369467 0.5787802 0.13816068 
0.017589647 0.9230472 0.38428438 
-0.44480196 0.853079 -0.27277723 
-0.6481107 0.22403139 -0.7278479 
0.25326332 0.515489 -0.818614 
-0.47863075 0.82332164 -0.30504763 
0.19454327 0.919828 0.34068975 
0.28558466 0.70099914 0.6534842 
-0.100912064 0.8030183 0.5873487 
-0.9503388 0.1111114 0.2907069 
-0.6006483 0.04192686 -0.7984133 
-0.1509021 0.29446307 -0.9436738 
0.26366007 0.67163485 -0.69237995 
0.7036225 0.7103733 0.016890056 
0.81703097 0.5765302 0.008570215 
0.7494689 0.07225054 0.6580853 
0.36107954 0.38007885 -0.85156435 
0.72472984 0.65648997 -0.20925494 
0.50993216 0.6512999 -0.56194097 
0.9828699 -0.07434398 -0.16864094 
0.55606675 -0.7949988 0.24241844 
0.8699 -0.4924823 -0.02711873 
0.92450213 0.37599307 -0.062651284 
0.8326032 -0.47815448 0.27953547 
0.63826346 -0.4486243 0.62558454 
0.5432306 0.1020271 0.8333613 
0.30872968 0.23120983 0.92262024 
0.9131598 0.2107462 0.34889147 
0.3897542 0.67917174 0.6219466 
0.054522086 0.6508154 0.7572759 
-0.16043313 0.48765063 0.85817134 
0.12296273 0.974819 0.18603276 
-0.74985826 0.5659872 -0.34259456 
-0.49694458 0.7952397 -0.34733275 
0.055009026 0.9085641 -0.41410804 
0.43008402 0.6870347 -0.5856715 
0.5001697 0.8658539 -0.011290079 
0.02400024 0.9687668 0.24680942 
-0.10153382 0.8364579 -0.53854346 
0.30643058 0.7307634 -0.609988 
0.13507906 0.9895937 -0.04957796 
0.031688303 0.7629559 -0.6456735 
0.057459023 0.8853058 0.46144566 
0.1809795 0.9705104 -0.15923575 
-0.6785783 0.5977452 0.42688674 
-0.48336175 0.8373106 0.25548446 
-0.33866295 0.50192535 -0.7958507 
0.19381648 0.42495215 -0.8842234 
0.7430477 0.58879447 -0.31812143 
0.22443128 0.90197736 0.36887336 
0.31017315 0.86085725 0.40338266 
0.5482873 0.45368096 0.7025345 
-0.08063079 -0.060202673 0.9949243 
-0.29890326 0.33984393 0.8917191 
-0.7174795 0.32110387 0.6181549 
-0.16589706 0.222723 0.9606626 
-0.31831524 0.24244717 0.9164577 
-0.57797277 -0.1938223 0.7927045 
-0.09755085 0.19508186 0.97592366 
-0.24660985 0.017523782 0.9689565 
0.1937248 0.014074081 0.98095495 
0.379719 -0.34968472 0.85646605 
0.4181011 0.36124432 0.8334831 
0.24679573 -0.2225094 0.9431763 
0.39888692 -0.5604521 0.72579795 
0.67050517 0.34789616 0.6552794 
0.92558616 -0.20002405 0.321373 
0.23586437 0.4277399 0.87258613 
0.69218916 0.13642342 0.7087051 
0.74615437 0.64213634 0.175826 
0.86093146 -0.4473147 0.24229461 
0.5852242 0.42787215 0.6887947 
0.5672309 0.19125615 0.8010432 
0.4246571 0.76609325 0.48245975 
-0.27007198 0.50997984 0.81668955 
0.034109294 0.99863446 0.039570685 
-0.5760339 0.8162501 0.04382522 
-0.63346297 0.716694 -0.2916752 
-0.5469905 0.71906155 0.42866307 
-0.60489935 0.50569385 0.6151183 
-0.7704117 0.6371843 -0.021494126 
-0.3406593 -0.08392651 0.93643343 
-0.14417282 -0.6353554 0.75864196 
0.22289874 -0.9679322 0.115859665 
0.7653944 -0.5600391 0.3170613 
0.18861564 -0.02469923 0.98174036 
0.058314133 -0.489049 0.87030494 
-0.43713418 -0.2850854 0.8530183 
-0.504399 0.49553472 0.7071259 
-0.39541265 -0.2785123 0.8752599 
-0.4608679 0.5410951 0.70343226 
-0.5104035 0.20556347 0.8350041 
-0.5511435 0.7492648 -0.36720997 
0.37842226 0.4642602 -0.8007867 
-0.32755235 0.36926052 -0.8696874 
0.13744116 0.56618184 -0.81274104 
0.14090827 0.08354884 -0.98649096 
0.60593545 0.5363642 -0.5874996 
0.39948437 0.9006109 0.17120819 
0.6000827 0.79713285 -0.06693301 
0.6848151 0.026006466 0.7282527 
0.29271126 0.47032192 0.8325367 
0.06328224 0.40509075 0.9120838 
-0.61144996 0.47845832 0.6302433 
-0.3975511 0.6800422 0.61603236 
-0.7686803 0.6186319 0.16255881 
-0.4813618 0.69479686 -0.5343672 
0.06771506 0.8915152 -0.44790104 
0.5742021 0.7615066 -0.3006651 
0.8435644 0.16842854 -0.50993234 
0.5365106 0.43441436 0.723492 
0.10560771 0.2746919 0.9557152 
0.26801282 0.13180622 0.9543565 
0.19073029 0.63883185 0.74532944 
0.40848535 0.31441408 0.85690343 
0.5109057 0.77198404 0.3781747 
0.66718316 0.63966197 -0.3817058 
0.26150957 0.71453583 0.64888465 
0.69090277 0.36635545 0.6232472 
0.31519386 0.026491912 0.9486575 
0.06556572 0.73184884 0.67830557 
-0.17476945 0.8080898 0.56253594 
0.44838026 -0.13539273 0.8835293 
0.2260833 0.41447964 0.8815288 
0.3704198 0.72003156 0.58680815 
0.21372321 0.44026828 0.8720586 
-0.36079088 0.4528818 0.8153086 
-0.64247507 0.39155337 0.6587199 
-0.6384609 0.5110163 0.5755259 
-0.74607086 0.49122652 0.44952726 
-0.43736124 0.5517277 0.71014917 
-0.49741653 0.31125152 0.80975264 
-0.45348713 0.5851511 0.6722706 
-0.608272 0.7901178 -0.07562541 
-0.95313925 0.033410925 -0.30068135 
-0.5991659 0.40083474 -0.6930597 
0.18543714 0.34275374 -0.92094135 
0.44376022 0.67134994 -0.59360445 
0.7478952 0.60125023 0.28133798 
0.2703245 0.9306896 0.24645835 
0.35362303 0.90547603 0.23465694 
0.1083439 0.9929639 -0.04779355 
0.66474193 0.59532356 -0.4513403 
0.8786047 0.10400292 0.46608713 
0.77603126 0.09903328 0.6228707 
-0.059474073 -0.7930029 0.606308 
-0.63875234 -0.46865395 0.6102123 
-0.303786 -0.3804379 0.873488 
-0.46877897 -0.03718749 0.8825325 
-0.17917773 -0.19401841 0.96449584 
-0.40747702 0.04967959 0.9118632 
-0.701303 0.4874156 0.52019256 
-0.31906918 0.89736927 0.3048332 
-0.54997617 0.81609726 0.17751479 
-0.13968365 0.98008454 0.14114839 
-0.26591817 0.9525705 -0.14797698 
-0.1383975 0.80707103 -0.5740056 
-0.1355026 -0.12972364 -0.9822478 
-0.26538947 0.89451814 -0.35973024 
0.048862398 0.9560283 0.28917575 
-0.43881452 0.8702633 -0.22379366 
-0.5123459 0.5811307 0.6322886 
-0.6791755 0.5964 0.42781737 
-0.7818225 0.6206944 0.059093796 
-0.60780233 0.79139465 -0.06535307 
-0.31557485 0.9471865 -0.057010524 
-0.035577483 0.97498316 -0.21941307 
-0.29258657 0.6644169 -0.68770885 
-0.5090639 0.07558755 -0.85740334 
-0.09795942 0.97847754 -0.18161964 
-0.096214995 0.9385923 -0.33134148 
0.8246332 0.5267443 -0.20620514 
0.8457092 0.03314496 0.5326138 
0.91797805 0.027519558 0.39567524 
0.59213465 0.24303 0.76831836 
0.02989577 0.2315215 0.9723703 
-0.027546437 0.5037041 0.863437 
-0.15119524 0.20077129 0.9679002 
-0.15758218 0.084081426 0.98391986 
-0.645415 -0.13051964 0.7525983 
-0.839041 -0.0011832559 0.5440671 
-0.9937948 0.088433 0.06746526 
-0.8749255 -0.10671739 -0.47235245 
-0.13036205 -0.02692925 -0.99110067 
0.67384773 0.12817115 -0.7276685 
0.95120347 0.044465166 -0.30534396 
0.2613558 -0.31364015 0.91286534 
0.47146624 -0.15950489 0.86733955 
-0.19546357 0.21227224 0.95746255 
-0.53142726 0.30959094 0.78850406 
0.24474746 0.737524 0.6294102 
0.54520226 0.608371 0.57674897 
0.5756293 0.805248 -0.14222066 
0.6083853 0.7895334 0.08064916 
0.6700587 0.5326803 0.5169847 
0.12963966 0.92366797 0.36059827 
-0.31510556 0.930855 0.18498023 
-0.4069739 0.8482011 0.33900937 
-0.21980923 0.97453064 -0.044430766 
-0.5193571 0.38820094 -0.7612939 
-0.8153193 -0.025289955 -0.57845914 
0.49345288 0.46934143 -0.73227245 
0.61746496 0.20334403 -0.7598607 
0.22237557 0.29837677 -0.92818123 
0.77296275 0.2942186 -0.5621068 
0.6453023 0.5440554 -0.536273 
0.37268558 0.92410284 0.084495574 
0.31383297 0.6990825 0.64248943 
0.5537262 0.39930025 0.7307166 
0.8360538 -0.23886564 0.49392048 
0.88630825 0.460866 0.04539075 
0.30928728 0.94533086 -0.10339685 
-0.16172901 0.985211 0.05659687 
-0.03453687 0.9215814 -0.38664567 
0.58168745 0.8075887 0.09716112 
0.69030863 0.67840827 0.2514682 
0.78560644 0.58510643 -0.20117892 
0.94843346 0.28473166 -0.13929054 
0.8433194 0.5373092 0.010549656 
0.8822969 0.44618878 0.14989235 
0.75131047 0.47295788 0.46026444 
0.7960371 0.49975792 0.3414191 
-0.17457561 0.9739375 -0.14480707 
-0.74584717 0.63226104 0.20966186 
-0.53625983 0.84167445 0.0633203 
-0.26524425 0.9448686 -0.19201228 
0.17929451 0.7563704 -0.62909245 
0.62956 0.22984824 -0.7421753 
0.6558719 0.4649896 -0.5946568 
0.57608414 0.5870316 -0.56878906 
0.54847586 0.81527257 0.185755 
0.36248788 0.36358255 0.85814357 
0.3606018 0.78812623 0.49882203 
0.7119187 0.39614636 0.5798619 
0.72548556 -0.21545053 0.65364504 
0.78715694 -0.088797435 0.6103269 
0.82831997 0.55845153 0.044919904 
0.5706512 0.7540801 0.32514688 
-0.12194161 0.87196636 0.47413594 
-0.05655041 0.73058367 0.68047756 
0.10494815 0.91384745 0.3922612 
-0.05095077 0.83260196 0.5515233 
-0.40767878 0.5676361 0.7152534 
-0.9057304 0.40960935 0.108960934 
-0.9516377 -0.2756068 0.13574487 
-0.4856231 0.7015015 0.52159935 
-0.15170263 -0.03194409 0.9879099 
-0.28486106 0.577471 0.76510227 
-0.4185374 0.6740668 0.6086546 
-0.559561 0.7619061 0.32617575 
-0.60738945 0.026205214 0.7939719 
-0.8536437 0.32208696 0.40933183 
-0.7172124 0.27759126 0.63917875 
-0.36383402 0.92975545 0.056388207 
-0.15312226 0.72146446 0.67530936 
-0.05229886 0.96796334 0.24558483 
-0.68717605 0.72623783 0.019177647 
-0.32074356 0.68258315 0.6566611 
-0.34324092 0.92918926 0.13708815 
-0.4927942 0.43405038 0.7541579 
-0.58584106 0.32387048 0.7428985 
-0.7466893 0.45959294 0.48086315 
-0.7258022 0.61374986 0.31068033 
-0.6891461 0.67063123 0.27446574 
-0.27360228 0.96182716 0.0055187903 
-0.46623158 0.84070694 0.2753907 
-0.2668673 0.9619452 -0.05868184 
-0.17160816 0.97292405 0.15482074 
-0.32123417 0.90023464 0.29391527 
0.6929334 0.5265515 -0.49253112 
-0.33172208 0.86300784 -0.3810222 
0.6564786 0.5789563 0.48357573 
0.9291311 0.34403592 -0.13548012 
0.5088502 0.84045154 0.18631333 
0.2370239 0.96815896 -0.08054814 
0.47402278 0.2757228 -0.8362292 
0.5069258 0.00272005 -0.8619855 
0.920686 -0.27135348 -0.28054357 
0.9913402 0.10161423 0.08318146 
0.81768394 0.10775941 0.56549186 
0.8871538 0.28504777 0.36291313 
0.7181617 -0.5764517 0.389804 
0.43566948 0.86713827 0.24137822 
0.78912973 0.13418168 0.5993911 
0.30322528 0.34385356 0.8887177 
-0.022666425 0.09079814 0.99561137 
-0.17713338 0.72112 0.6697834 
0.104700536 0.99266905 0.06038256 
-0.15612684 0.9555652 -0.25003922 
0.036965776 0.83081174 -0.5553247 
0.4294782 0.57403433 -0.6971608 
0.5391712 0.8362467 -0.099929795 
-0.15919326 0.9870734 0.018542444 
-0.6381587 0.6917518 0.3379839 
-0.014368409 0.9374843 -0.34773076 
0.28434333 0.9587212 0.0015781362 
0.35114202 0.93531984 -0.043313246 
-0.1397661 0.9592044 0.24574883 
0.10176754 0.91487676 0.39069688 
0.2356297 0.74529856 0.6237056 
-0.47985473 0.68090343 0.5532721 
-0.095800556 0.97775614 0.18658887 
0.15286659 0.94983673 -0.27284074 
-0.1759328 0.96480834 -0.19542891 
0.1838865 0.9829469 -0.0011788743 
0.34323564 -0.07771838 0.9360285 
-0.10909975 0.8010499 0.5885716 
0.10962388 -0.37188363 0.9217837 
-0.6640441 -0.45461085 0.5936114 
-0.83396775 0.21725796 0.5072444 
-0.45793188 -0.11544829 0.88145906 
-0.39310545 -0.41417426 0.82093114 
-0.01959608 -0.017754726 0.99965036 
0.16580118 0.52493995 0.83483416 
0.05832821 -0.40253246 0.9135456 
0.60627526 -0.19597106 0.7707307 
0.45489457 -0.207856 0.86594856 
-0.084133565 -0.41688937 0.9050551 
0.6021367 -0.074841 0.79487765 
0.17319003 -0.56496775 0.8067322 
0.40742707 -0.3847312 0.82824224 
0.3550136 -0.36953592 0.858725 
0.39027345 -0.59942967 0.6988353 
0.82732815 0.13480036 0.5453045 
0.793799 0.09907939 0.60005546 
0.8131401 0.52080995 0.2599234 
0.9305566 -0.31524977 0.18623118 
0.4585901 0.16104744 0.873933 
0.66953576 0.38417846 0.6357114 
-0.13867901 0.8501002 0.50803316 
-0.400132 0.9139002 -0.06841723 
-0.84114355 0.5371066 0.06320024 
-0.2619682 0.9623422 0.07259631 
-0.22966607 0.32570985 0.91715133 
-0.12946285 0.8160507 0.56329435 
0.13590562 0.63904256 0.7570695 
-0.5096177 -0.09703351 0.85491186 
0.25737056 -0.10109768 0.9610098 
-0.5185797 -0.048689943 0.8536419 
-0.10451375 -0.98710954 -0.121208645 
0.36536172 -0.9041073 0.22158737 
0.38398424 -0.7484221 0.54075927 
0.31205487 -0.031559516 0.9495398 
0.1687546 0.36967114 0.9137096 
0.0340593 0.2487102 0.967979 
-0.36512318 0.052860644 0.92945725 
-0.43264627 0.6210392 0.65355 
-0.26375574 0.9162054 0.3016632 
-0.005901791 0.90040344 -0.43501607 
-0.015248883 0.65514433 -0.7553499 
-0.35931817 0.4972745 -0.78968894 
0.39639232 0.6655725 -0.6323657 
0.51969165 0.29884753 -0.8003817 
0.8911335 0.12282596 -0.43680063 
0.64894795 0.3134641 0.6932582 
0.7788165 0.52265835 -0.34680426 
0.9743696 0.071403556 0.21332039 
0.7782561 0.4467189 0.4413158 
-0.07187468 0.42321736 0.90317285 
-0.2376354 0.7907288 0.5641607 
-0.48281682 0.70172703 0.5238962 
-0.2600127 0.9598381 0.10537749 
-0.74124527 0.66846156 0.060948163 
-0.008368381 0.6758335 0.7370069 
-0.17081463 0.9392439 0.2977303 
0.2503614 0.8597815 -0.4450785 
0.3322645 0.89526284 0.29682463 
0.41769078 -0.12191843 0.9003723 
0.33746988 -0.07623014 0.9382447 
0.16956082 0.81352 0.55626833 
-0.12598588 0.82093835 0.5569452 
0.39828002 -0.119324885 0.9094694 
0.4053321 0.1574193 0.9005138 
0.506178 0.5562772 0.6590444 
0.47587124 0.4814164 0.7360603 
0.7350874 -0.2431659 0.63286406 
0.22405192 0.3203917 0.9204075 
0.06256749 0.68176603 0.7288899 
-0.17401065 0.813122 0.5554754 
0.883728 0.4164547 0.21351899 
0.4079612 0.36164623 0.83831966 
-0.40557432 0.91005886 0.08545411 
-0.90297544 0.029225733 0.4286972 
-0.9274303 -0.23458074 0.29128146 
-0.52985793 0.5360046 0.6572288 
-0.25453654 0.20169337 0.9457965 
-0.6814039 0.28325734 0.6748734 
-0.9286732 0.30399278 0.21249622 
-0.7727371 0.0851526 0.6289884 
-0.51632607 0.85531634 -0.04291139 
0.08429121 0.74335283 -0.6635674 
0.20982146 0.5194362 -0.82834846 
0.630286 0.69174683 -0.35245696 
0.39383498 0.91861737 -0.032188755 
0.20990385 0.8074818 0.5512835 
0.16519566 0.98289996 0.08135095 
-0.035804007 0.9993493 -0.004386243 
0.06534668 0.9053235 0.4196657 
0.6847959 0.44878277 0.57415044 
0.57238066 0.650645 0.49904066 
0.07498244 0.6100527 0.78880507 
-0.30104887 0.029802887 0.9531429 
-0.40399426 -0.3387109 0.84974325 
-0.419576 -0.52538604 0.74022 
-0.38002467 -0.27190107 0.8841104 
0.021342866 -0.06500463 0.99765676 
0.12232275 0.39456478 0.9106898 
0.24109103 0.5393983 0.80679905 
0.10698766 0.38578454 0.9163646 
-0.20531204 0.9780901 0.034448236 
-0.24329244 0.8212436 -0.5161083 
0.27050802 0.95859814 0.0889671 
-0.43209648 0.7908415 0.43343106 
-0.6177654 0.616325 0.48837435 
-0.0151800215 0.8911428 0.453469 
-0.6981542 0.12752388 0.70449865 
-0.98498714 0.12022388 0.123881035 
-0.65051293 0.33038777 -0.6838691 
-0.8282713 0.5254613 -0.19456884 
-0.1291908 0.969587 -0.20787212 
-0.59590894 0.6576496 0.46085742 
-0.19393069 0.9655773 -0.17335337 
-0.20464866 0.95503664 -0.21453214 
-0.099650726 0.9638245 -0.24720885 
0.046803404 0.38231218 -0.9228471 
0.70641506 0.61651486 -0.34768853 
0.3163028 0.6760435 0.6655207 
0.6780186 0.72215176 -0.13706814 
0.9834036 0.17066869 -0.061558977 
0.4881145 -0.7227705 0.4892311 
0.4181204 0.013519681 0.908291 
0.4695133 0.21825497 0.8555245 
0.16286881 -0.21291117 0.9634017 
-0.19901493 0.21260032 0.9566579 
-0.3157784 -0.27990025 0.906609 
-0.5908454 -0.036725793 0.80594856 
-0.7225724 -0.64331394 0.2530541 
-0.32022202 -0.32121786 0.8912222 
-0.8962881 -0.1209336 -0.4266647 
-0.45600894 -0.31869224 -0.830958 
0.5590872 -0.3178848 -0.7657485 
0.845982 -0.41434363 -0.33560994 
0.9897972 -0.122536026 0.07270842 
0.63192487 -0.5848521 0.508546 
0.13645154 0.22931027 0.9637416 
-0.06874687 0.3598121 0.9304887 
-0.014317253 0.57896036 0.8152301 
-0.15782258 0.61403614 0.773338 
0.7231726 0.33396477 0.60455686 
0.4306509 0.6935309 0.57754207 
0.21623753 0.7629338 0.60923994 
-0.1405006 0.8606321 0.48946103 
0.22546163 0.92598444 0.30285278 
-0.43948254 0.87803304 0.18950754 
-0.2429709 0.9074217 -0.34285727 
-0.2803523 0.95663315 -0.0790922 
-0.36604017 0.4445002 -0.8175782 
0.18901137 -0.0124796005 -0.9818956 
0.6249587 -0.0732026 -0.77721816 
0.61342 0.15465415 -0.7744663 
0.63320243 0.7244528 -0.27243873 
0.53635 0.8372897 0.10618212 
0.63550425 0.5539612 0.53783023 
0.5938413 0.7091428 0.38009098 
0.6947318 0.2673611 0.6677319 
0.889328 0.020924512 0.4567909 
0.8140949 0.1800078 0.5521293 
0.29568443 0.95094687 -0.09094451 
0.40227145 0.90865654 0.11189814 
-0.10229223 0.8145057 0.57106644 
0.50249887 0.45753163 0.73359376 
0.25760958 0.79407394 0.55053055 
0.5307328 0.8059058 0.26237124 
0.57556885 0.70083046 -0.42137542 
0.8761617 0.24996826 -0.41213664 
0.9027677 0.29036245 -0.31733307 
0.64559084 0.21138453 0.7338454 
-0.21638858 0.77800316 0.58981955 
-0.5490356 0.55573845 0.62427145 
-0.77420247 0.6002598 0.20074591 
-0.4021257 0.910064 0.10039207 
0.07433594 0.882965 0.463516 
0.24158016 0.9232483 0.29875043 
0.7654601 0.59706324 -0.23997164 
0.7850059 -0.16159122 -0.59804183 
0.9126475 0.37889805 0.15333293 
0.72072476 0.19347864 0.665674 
0.2101615 0.43875673 0.8736845 
0.79907084 0.3167163 0.5110545 
0.19200642 -0.41532853 0.889177 
-0.011874049 -0.63553613 0.7719799 
0.31192186 0.24638627 0.91760486 
0.21100946 0.59100217 0.77858305 
0.11818307 0.6915926 0.71255356 
0.33931473 0.5872379 0.7348587 
0.50243 0.84821975 0.16759256 
0.10121464 0.73558503 0.66982853 
0.25702918 0.68866485 0.6779947 
0.43291542 0.3220211 0.8419541 
-0.4197531 0.5395386 0.72986674 
-0.666177 0.58282787 0.4653171 
-0.37850034 0.31020388 0.8720729 
-0.878351 0.01609479 0.47774544 
-0.61271125 0.35644177 0.70536107 
-0.57858694 0.7737788 0.25788295 
-0.97946686 0.14184676 -0.14326261 
-0.96979 0.18916053 0.1540313 
-0.9537032 0.30047408 -0.012863277 
-0.72432154 0.5143703 0.45910943 
-0.8423641 0.39371207 0.36798584 
0.0028005294 0.6511218 0.75896806 
-0.17016187 0.8162515 0.5520674 
-0.65367925 0.70045227 0.28647888 
0.030578189 0.83595544 0.54794496 
-0.24921031 0.39197248 0.88558 
0.32915327 0.068323344 0.94180155 
0.24548714 0.3235275 0.91381943 
-0.6603924 0.5306701 0.5312919 
-0.63977283 0.11992708 0.75914973 
-0.55792373 0.65656 0.50759244 
-0.13468525 0.80065733 0.58378744 
-0.06723436 0.89396 0.4430747 
0.021530848 0.86936563 0.49370036 
-0.4348919 0.77194023 0.46365675 
-0.21578789 0.9353381 0.28031808 
0.004683044 0.98408467 -0.17763904 
-0.34171906 0.8833831 -0.32072183 
0.65136003 0.48954833 0.57971764 
0.5105045 0.5614173 0.6513032 
0.8255569 0.5640134 -0.018571516 
0.86944544 0.4193312 0.26120126 
0.85652 0.4538526 -0.24574634 
0.5596428 0.5910624 -0.5809004 
0.56019807 0.7152874 -0.41778252 
0.69723856 0.6786894 -0.2307362 
0.94243973 0.2819941 -0.1796856 
0.47592318 0.3338642 0.81365335 
-0.24426056 0.27182794 0.930831 
0.43379724 0.8316344 0.34670508 
0.71790737 0.6418246 0.26957414 
0.14028192 0.83417344 0.5333625 
-0.3555507 0.42650393 0.83167183 
-0.19075201 0.5833281 0.7895201 
-0.25518304 0.9385608 -0.23234762 
-0.46310604 0.6396151 -0.61353517 
0.12042735 0.8741391 -0.47050852 
0.21528107 0.27801913 -0.9361408 
-0.43186316 0.84034324 0.32759348 
-0.15002438 0.8146432 0.5602225 
-0.34365967 0.82935244 0.44053665 
0.117674716 0.8794902 0.46113965 
0.2658757 0.8926269 0.3640431 
-0.16274568 0.8491776 0.5024056 
-0.15813334 0.62511116 0.76434946 
-0.44006547 0.4201281 0.79362124 
-0.09516975 0.25633514 0.9618915 
0.7196695 0.0060251295 0.69429064 
0.25159907 0.8947472 0.36895168 
0.0750205 0.8634785 0.4987755 
-0.4284305 0.9026806 0.04018869 
0.3442995 0.2743906 0.89786845 
0.041567136 0.12533642 0.9912431 
-0.23030539 0.4611721 0.8569013 
-0.760772 -0.19387506 0.61938566 
-0.6664815 -0.34358734 0.66162694 
-0.4559135 -0.07569079 0.8867999 
-0.46641013 -0.0895347 0.8800257 
-0.38192543 -0.83438516 0.39740956 
0.15233733 -0.8152505 0.5587129 
-0.44153994 -0.5393371 0.71704817 
0.050377987 -0.7554986 0.6532104 
-0.2522276 -0.67066145 0.69756323 
0.3620271 -0.92969745 -0.067816794 
0.2135583 -0.80979794 0.5464615 
-0.0018003598 -0.63262737 0.77445424 
0.88404024 -0.2707605 0.38100103 
0.35776463 -0.88388383 0.3012537 
0.109928235 -0.967581 0.22738275 
0.8632559 0.030872159 -0.5038216 
0.8543476 -0.44962752 0.26062497 
0.36396378 -0.06896562 0.92885643 
0.6008705 0.19566925 0.77502793 
0.7370662 -0.29242566 0.60927886 
0.9273956 0.34289142 0.14954256 
0.4118882 -0.28343365 0.8660332 
0.05012934 0.38860664 0.9200391 
-0.42834932 0.75853026 0.4910692 
-0.70301276 0.64148635 0.3070317 
-0.13345365 0.8791876 0.45740518 
-0.17758097 0.5137753 0.83934504 
0.15939422 0.4763142 0.86470705 
0.21522368 -0.048886042 0.9753404 
-0.044322442 0.10847115 0.9931111 
-0.18786217 0.08034775 0.9789035 
-0.3170652 -0.36679065 0.8746053 
-0.075321764 -0.97270536 -0.21947871 
0.1056122 -0.9659665 -0.23612455 
0.37894696 -0.8120436 0.4438293 
0.8651444 -0.22819385 0.4466014 
0.9902394 0.017363736 -0.13829178 
0.7881257 0.18374044 0.58744997 
0.43446305 0.2889333 0.8530882 
0.36834165 0.78227663 0.5023623 
-0.21245843 0.69481826 0.6870874 
0.11624852 0.9921618 0.045838915 
-0.44095045 0.88622886 -0.14198993 
-0.2801279 0.8575684 -0.43139893 
0.8364984 0.51455414 -0.1884264 
0.35379055 0.721177 -0.59559715 
0.4729678 0.88089883 -0.017853087 
0.5635432 0.5160433 -0.6450724 
0.63193685 0.69435954 -0.3442683 
0.6888577 -0.33190957 -0.64444643 