# OOMMF: rectangular mesh v1.0
# Segment count: 1
# Begin: Segment
# Begin: Header
# Desc: Time (s) :  2.1399999999999961e-07
# Title: m
# meshtype: rectangular
# meshunit: m
# xbase: 2e-09
# ybase: 2e-09
# zbase: 5e-10
# xstepsize: 4e-09
# ystepsize: 4e-09
# zstepsize: 1e-09
# xmin: 0
# ymin: 0
# zmin: 0
# xmax: 1.024e-06
# ymax: 1.024e-06
# zmax: 1e-09
# xnodes: 256
# ynodes: 256
# znodes: 1
# ValueRangeMinMag: 1e-08
# ValueRangeMaxMag: 1
# valueunit: 
# valuemultiplier: 1
# End: Header
# Begin: Data Text
-0.91386473 -0.38457164 0.13021494 
-0.54186624 0.840145 0.023182025 
0.25231227 0.8602292 0.44310766 
-0.37773815 0.8757064 -0.30075276 
-0.4874775 0.38721332 -0.78258014 
-0.2700886 0.23788431 -0.9329862 
-0.12034197 0.91947174 0.37428534 
-0.63641584 0.7044281 0.31425458 
-0.8332602 0.04513954 0.5510354 
-0.41118658 -0.8925308 0.1852412 
-0.03744232 -0.51759386 0.8548068 
0.614273 -0.009435077 0.7890373 
0.17137185 -0.61365134 0.7707553 
0.20414372 -0.4813265 0.85243785 
0.09642119 -0.15382771 0.983382 
-0.4710834 -0.49723405 0.7285869 
-0.34469923 -0.9194336 0.1892731 
-0.1031737 -0.98350817 -0.14854993 
-0.055763815 -0.36791962 0.92818403 
-0.43659726 -0.11843592 0.8918272 
-0.40651032 -0.001663562 0.9136447 
0.18050699 0.91945875 0.34930336 
-0.4487229 0.37945604 0.8091112 
-0.18241525 0.9062913 0.38126215 
0.21466428 0.9760638 0.034913063 
0.84863216 0.43282506 0.30411512 
0.6158413 0.7568315 0.21896456 
0.58538496 0.8107261 -0.0069078435 
-0.22818464 0.9604491 0.15959156 
0.6017634 0.7911846 0.109122425 
0.08713936 0.7055073 0.70332515 
-0.049250618 0.6835098 0.7282779 
0.6217385 0.7340502 0.27315113 
0.02823795 0.61543286 0.7876834 
-0.29226437 0.1719101 0.94075954 
-0.9772878 -0.19244713 0.088728525 
-0.99433994 0.10591931 -0.008319867 
-0.9193999 0.39157948 0.03700751 
-0.6186253 0.6635861 -0.42066172 
-0.34263277 0.6850848 -0.6428543 
-0.24941267 0.6804357 -0.68905777 
0.37439072 0.8203392 -0.43229073 
0.6614464 0.58923995 -0.46398818 
0.46415552 0.6661975 -0.58373004 
0.22432677 0.714684 -0.66249853 
0.84079725 0.3209887 -0.43591997 
0.2558701 0.9091016 -0.32873213 
0.12430653 0.72551143 0.6768908 
0.4454307 0.5693109 0.6909968 
0.30527985 0.5059791 0.80671513 
-0.65094316 0.39685005 0.6471346 
-0.955791 0.2911505 0.041168775 
-0.8349019 0.450973 0.3155349 
-0.78732073 0.053695235 -0.6142011 
0.09602063 -0.28396833 -0.95401365 
0.6058037 0.57048154 -0.5545743 
0.7991961 0.35235423 -0.4869621 
0.58116513 0.78999007 0.1953532 
0.9110552 -0.32572636 -0.25274637 
0.88496125 -0.2444672 0.3963326 
-0.00013926128 0.15903598 0.98727286 
0.012664853 0.25944138 0.9656759 
-0.34592524 0.14548331 0.92691445 
-0.1995726 0.6936694 0.6920937 
0.15041143 0.96350926 0.22141898 
0.21712701 0.32226914 0.92141116 
-0.0044835373 0.981265 -0.19261102 
-0.3743736 0.599661 0.70728433 
0.37452027 0.60065955 0.70635873 
0.810885 0.23648474 0.53529483 
0.27526298 -0.046297133 0.9602536 
0.52450806 0.6525271 0.54690015 
0.24765645 0.5631337 0.7883823 
0.12793319 0.33340108 0.93406475 
-0.4293587 -0.36582756 0.8257248 
-0.6101246 0.29731607 0.73440534 
-0.8021405 0.55460435 0.22132507 
0.027833683 0.60310155 0.7971787 
-0.60152787 0.7290964 0.32647017 
-0.518492 0.7239014 0.45511857 
-0.22185616 0.6954104 -0.6835088 
-0.41231492 -0.17822869 -0.8934378 
-0.11767779 -0.41087994 -0.9040629 
-0.16661087 0.16631736 -0.9718948 
0.21365228 0.49982184 -0.83936334 
0.9459772 0.27996475 -0.16354468 
0.27067757 0.025665987 0.9623279 
0.23506099 0.12382246 0.96406144 
-0.49317873 0.3372102 0.8019128 
0.08343271 0.8517691 0.5172314 
-0.14813319 -0.5364551 0.83082646 
-0.023902964 -0.19149409 0.9812027 
0.5711961 -0.28815997 0.7685694 
0.9408016 -0.1774205 0.28881556 
0.10404331 -0.40857956 0.90677327 
-0.42648888 0.5250898 0.7364699 
-0.27627787 -0.9265796 -0.25518808 
0.2555154 0.055591263 0.96520543 
-0.21456228 0.56620884 0.7958459 
0.08466299 -0.07262846 0.99375916 
0.12423624 -0.701473 0.7017842 
-0.0070853704 -0.066151135 0.9977845 
-0.9154143 0.14948398 0.3737261 
-0.034925714 0.6166429 0.78646785 
-0.09093372 0.29498973 0.95116365 
-0.39761087 0.33802405 0.8530214 
0.64411163 -0.2660694 0.7171661 
-0.287746 -0.27267024 0.91807044 
-0.4686788 -0.16051306 0.8686633 
-0.6151779 -0.35495657 0.7039616 
-0.50850236 -0.42039844 0.75145906 
-0.039353475 -0.6437905 0.76418924 
0.2855696 0.46711403 0.83681214 
0.4394227 0.6841969 0.58205014 
-0.69701463 0.7144767 0.06077582 
-0.48558164 0.831915 0.26856634 
-0.5324332 0.7596535 -0.37341875 
-0.28700897 0.95624524 -0.05675385 
-0.37456238 0.84895724 -0.37279317 
0.08884324 0.6607565 -0.74532396 
-0.07464287 -0.38117242 -0.9214858 
-0.06459152 0.797053 -0.60044533 
0.6461118 0.3387356 -0.68395746 
0.20183031 0.17645267 -0.9633946 
0.63534355 0.6697562 -0.38440254 
0.004401637 0.9686522 -0.24838226 
0.14584278 0.9888634 0.02964977 
0.64255327 -0.14729242 -0.75195104 
0.78323156 0.60722345 0.13352178 
0.6656154 0.70777005 0.23668072 
0.52750957 0.6138229 0.587329 
0.48812246 0.6840982 0.5419835 
0.5276787 0.21869531 0.8208091 
0.6789743 -0.19587663 0.7075496 
0.19761312 0.35153997 0.9150785 
0.03436932 0.99165964 -0.124217175 
0.8398767 0.542286 -0.023085516 
0.67880136 0.62696004 0.38229558 
-0.19086559 0.48401484 0.8539906 
-0.35431314 0.87890875 0.31934592 
-0.33538198 0.7818461 0.5255813 
-0.12814538 0.8930534 -0.43131712 
0.19026485 0.52823555 -0.8275062 
0.9280853 0.22256726 -0.29853243 
0.04605367 0.6013473 0.79765946 
-0.67453957 0.6942913 -0.25091046 
-0.15706283 0.77062076 -0.6176366 
0.5109198 0.85858405 -0.04235964 
0.46077493 0.54120946 0.7034052 
0.70495456 0.7091855 -0.009751335 
0.14249086 0.55447423 0.8199114 
0.36266378 0.4394279 0.821814 
0.253034 0.27449295 0.9277001 
0.7978494 -0.22054741 0.56106615 
0.071036875 -0.756892 0.6496678 
0.5724534 0.31438053 0.75727284 
0.417157 -0.17078443 0.8926437 
-0.2286044 0.27801773 0.93297714 
-0.7162457 -0.60385424 0.34978876 
-0.8712356 0.07126347 0.48566473 
-0.72297406 -0.67643803 -0.14049944 
0.13395949 -0.7326417 -0.6673013 
0.9144134 0.3476333 0.20736255 
0.7705899 0.6366883 -0.028623551 
0.46965337 0.35005978 0.81048375 
0.21243484 0.97678775 -0.027516311 
0.6476712 0.4020796 -0.64718926 
0.54904497 0.43916178 -0.7111165 
0.4579298 0.13896903 -0.8780592 
0.21747528 0.34298822 -0.9138182 
-0.08882091 0.9723657 -0.21590687 
0.05839198 0.6173224 -0.78454024 
0.5412088 0.7214428 -0.4319876 
0.16239168 0.97362757 0.16024473 
0.5101535 0.83819085 0.19282037 
0.36209792 0.80964893 0.46190232 
0.068730414 0.86642456 0.4945551 
0.25596398 0.9569423 -0.1369085 
0.13528518 0.93178284 0.336866 
0.6175016 0.43303668 -0.6566362 
0.67577845 0.35680175 -0.644993 
-0.012186698 0.95055765 0.3103089 
0.31493863 0.909302 0.27199924 
0.0036653855 0.85180426 0.5238474 
-0.86700755 0.48457748 -0.11611556 
-0.44579223 0.7261155 0.5234746 
0.115393564 0.9921171 -0.0488665 
0.072648466 0.13615 0.98802096 
-0.11280057 0.9380955 0.32749495 
-0.8765393 0.41689625 0.24057554 
0.31980735 -0.080368735 -0.9440679 
0.8684559 0.3474668 -0.35362592 
0.6874231 0.22889765 -0.6892426 
0.028676335 0.089198425 -0.995601 
-0.15061979 0.98780096 -0.039534803 
-0.012582373 0.9925807 -0.12093535 
-0.17916507 0.7797049 -0.59996676 
-0.27408198 0.9116178 0.3063202 
-0.7293301 0.47981605 -0.487703 
-0.8085095 0.06377819 -0.5850168 
-0.91750234 0.27096254 -0.29115078 
-0.7570647 0.4236883 -0.49733415 
-0.61714196 0.4704896 -0.6306943 
-0.84457254 0.15577722 -0.51228 
-0.043331604 -0.34637493 -0.9370949 
-0.6971471 0.7034516 0.13835408 
-0.4876126 0.8137165 -0.31638503 
-0.19378984 0.7891621 -0.582811 
-0.29640797 0.9119983 -0.28355193 
-0.07622301 0.39689258 -0.9146948 
0.25458905 0.55811596 -0.7897411 
0.35788843 0.93209124 -0.055873923 
0.062079813 0.9848174 -0.16211347 
0.628171 0.7392019 -0.24286184 
0.13879806 0.8548808 0.49991405 
-0.65992206 0.7422515 0.11647194 
-0.49924424 0.85226023 -0.15622962 
-0.31812018 0.79701024 -0.5133949 
0.092605874 0.9342755 -0.34431612 
0.22970939 0.81224644 0.5361802 
0.4704342 0.84078586 0.26790068 
-0.055771008 0.93005544 0.363162 
-0.70591444 0.65177584 0.2772601 
-0.47285295 0.4896618 0.7325582 
-0.64155775 0.37418067 0.6696212 
-0.66675013 0.52730304 -0.5266838 
-0.40748528 0.67313284 -0.6171288 
-0.25190893 0.665401 -0.70269734 
0.42176616 0.5905303 -0.68803155 
-0.052495558 0.58321995 -0.81061625 
-0.08175851 0.926358 -0.3676637 
-0.010755375 0.97774565 0.20951772 
-0.20435241 0.97527367 -0.0841518 
0.3543937 0.2666518 0.8962712 
0.24516663 0.37334296 0.8947114 
0.0018667897 0.317628 0.94821364 
-0.047287192 -0.5405543 0.83997923 
-0.22792564 -0.9110278 0.34362543 
-0.48866355 -0.023429748 0.87215775 
-0.321109 -0.09293098 0.9424717 
0.6615641 -0.26422164 0.7017976 
-0.44359872 0.64554834 0.6216813 
-0.21538365 0.96515894 0.14858688 
-0.35782677 0.600377 0.71519756 
0.2280105 0.27717337 0.93337363 
-0.69880545 0.43051273 0.57125294 
0.021995246 0.4037981 0.9145838 
-0.119500995 0.7583941 0.6407479 
-0.23193367 0.84009796 0.49034917 
-0.30658823 0.9481033 0.084284276 
-0.56506956 0.6924839 0.44851148 
-0.16491137 -0.030845843 0.985826 
-0.12837458 0.20649149 0.9699903 
-0.98108506 0.1934938 0.0056876326 
-0.88158584 -0.47052443 0.03759324 
-0.8477619 -0.513009 0.13461617 
0.36461025 0.46479905 0.8068589 
0.64559114 0.45064443 0.61654824 
0.556744 0.46695963 0.68701166 
0.1205718 0.987305 0.10339882 
0.030311521 0.99920434 -0.025923451 
0.39784002 0.9168912 0.032156415 
-0.5814741 0.68723714 0.43542278 
-0.57742935 0.12605698 0.8066505 
-0.6778688 0.08753994 0.72995263 
-0.9997484 -0.019175164 -0.011645051 
-0.26763374 -0.93305063 0.24039307 
0.5895539 -0.78278047 0.19920106 
0.18006915 -0.9688597 -0.16995901 
0.2125705 -0.8551235 0.47284007 
-0.5764263 -0.7966151 0.18203601 
-0.21740992 -0.3760531 0.9007314 
-0.14460288 -0.7456933 0.6504088 
-0.31000012 -0.90607196 -0.2879819 
-0.083215766 -0.983524 0.16048573 
-0.3056787 -0.90181994 0.3054201 
0.04345685 -0.579446 0.8138513 
0.48516908 0.7101567 0.5101848 
0.18318626 0.1950029 0.96354383 
-0.41669226 0.8757853 0.24365519 
-0.21272571 0.76850283 0.60344934 
0.1801922 0.6427887 0.7445493 
0.08873863 0.5825411 0.8079426 
0.5444989 0.8387537 0.0036156252 
-0.067452595 0.9956362 0.06448795 
0.09056726 0.88329446 0.4599875 
0.05886792 0.53444886 0.84314823 
0.65557957 0.50173515 0.5643379 
0.1654923 -0.17724612 0.9701527 
-0.030574968 -0.1725091 0.98453337 
-0.50700176 -0.26884294 0.8189462 
-0.9744837 -0.19651224 -0.10846374 
-0.9115398 -0.39517936 -0.11370378 
-0.8790108 0.47621202 0.02371067 
-0.8955474 0.35982442 -0.26176593 
-0.90712476 0.40362942 -0.11919752 
-0.98642254 0.0813288 0.14267538 
-0.0154318055 0.93977433 -0.34144694 
0.529492 0.84831 -0.0029170983 
-0.060375627 0.95374304 -0.29449806 
0.11992879 0.9728361 -0.19800821 
0.62710094 0.77580523 0.069790795 
-0.05564516 0.86978275 0.49028742 
0.41018146 -0.21573853 0.8861198 
0.13545285 -0.037019946 0.9900919 
0.2080883 0.18139985 0.96114177 
0.15331914 0.6222109 0.7676893 
-0.31254497 0.3984942 0.86227494 
-0.48472416 0.8682956 -0.105382115 
-0.61464477 0.76068515 -0.20873411 
0.087985836 0.74270874 -0.6638089 
0.03655678 0.69047683 -0.72243017 
0.8772067 0.47750384 0.049986266 
0.9681191 0.22881646 0.101923734 
0.9139259 -0.28538105 0.28861263 
0.61738944 -0.6805982 0.39448243 
0.810192 -0.38163036 0.44491264 
0.2079756 0.4297156 0.8786869 
0.16838999 -0.5212909 0.83660066 
0.30790615 0.1922578 0.93178904 
0.62615323 0.7343223 0.2621124 
0.50377625 0.22020748 0.83529526 
-0.060512453 0.8283911 0.55687225 
-0.24584837 0.42064187 0.8732807 
0.513434 0.26677442 0.8156083 
0.5017971 0.22004984 0.8365273 
0.37881666 -0.009845627 0.92541945 
-0.15970169 0.14005336 0.9771799 
0.126841 0.1789339 0.9756506 
0.65883684 -0.001510069 0.7522844 
0.073109806 0.3091158 0.9482101 
-0.37751108 0.36020026 0.8530775 
-0.08598488 0.9646647 0.24905574 
0.05187653 0.97188336 0.22967759 
-0.63554734 0.6428933 0.4275135 
-0.8842464 0.2565432 0.39024845 
-0.7670201 0.6376897 -0.070937596 
-0.7149585 0.22892399 -0.6606272 
-0.66282064 0.07045583 -0.74545616 
0.5102795 -0.1696084 -0.8431181 
0.897861 -0.32107794 -0.30125514 
0.58915734 0.80293405 0.09050155 
0.38749415 0.5730676 0.7221093 
0.04884144 -0.1927896 0.98002386 
0.26076472 -0.2944589 0.9193997 
-0.1959018 -0.25582254 0.9466665 
0.5434747 -0.16024074 0.82398933 
0.14070305 -0.5785056 0.80345136 
-0.03175883 -0.62833375 0.77729535 
0.6844786 -0.7008323 0.20080616 
0.75687903 -0.3193452 0.5702217 
0.23036878 0.006152228 0.97308403 
-0.123753466 -0.93220764 0.34010902 
-0.13052246 -0.596311 0.7920715 
-0.19267204 -0.98125756 -0.0033605567 
-0.17565429 -0.9034862 0.39097098 
-0.029965032 -0.9813454 0.1899037 
0.3452239 -0.1440755 0.92739564 
-0.24225089 0.36063954 0.9006963 
-0.48013464 0.55073166 0.6827631 
-0.68151087 0.23927356 0.691586 
-0.37799674 0.56911826 0.7302211 
0.70546246 -0.21070527 0.6767024 
0.6638818 -0.42767134 0.6134805 
0.30280718 -0.6509176 0.6961423 
-0.42831895 -0.50775856 0.74747854 
-0.74480176 -0.5708786 0.3454967 
-0.4442646 -0.8837836 0.14681867 
0.18931451 0.36095518 0.91316557 
-0.17776865 0.78778523 0.5897397 
-0.40868896 0.39704376 0.8217843 
-0.52907884 0.84495336 0.078290306 
0.06373543 0.90200675 -0.4269916 
-0.14740339 0.87236726 -0.46609828 
0.33178294 0.88611597 -0.32360247 
0.5432738 0.7285668 -0.4171859 
0.27280018 0.9501176 -0.15118435 
0.24969515 0.9280086 -0.27650034 
-0.28602624 0.7721146 -0.56747526 
0.47164014 0.7500154 0.46371627 
0.6594948 0.69985086 0.2743636 
0.41239586 0.5407921 0.73312587 
0.17568865 0.66194427 0.7286724 
0.124640614 0.627619 -0.7684785 
0.38020262 0.8122734 -0.44233268 
0.5764468 0.81547266 0.052090578 
0.1505534 0.8785638 0.45327634 
0.05256956 -0.19952202 0.97848225 
0.09900875 0.13090922 0.9864381 
0.28201354 -0.041361466 0.95851845 
0.5721485 -0.33086604 0.7504491 
0.6069188 0.41080207 0.6803612 
0.2229841 0.89898866 0.37695828 
0.49170056 0.7521301 0.4387834 
-0.10099053 0.4731858 0.8751549 
-0.9716204 -0.17737056 0.1565047 
-0.7428658 0.44673434 0.49857682 
-0.5751905 0.5881024 -0.5685873 
0.24190931 0.6545325 -0.716287 
0.4552553 0.8673296 0.20120116 
0.10599475 0.9943078 -0.0108272815 
-0.4819618 0.84094673 0.24601094 
0.07113603 0.89100045 -0.44839483 
0.47269362 0.1782528 -0.86301035 
0.80992514 0.47708932 0.3411849 
0.47941506 0.83877563 -0.2581021 
0.40700376 0.89164674 0.19827795 
0.34961808 -0.52012146 0.77925676 
0.37733948 -0.35962787 0.85339487 
0.9322568 0.075053826 0.3539269 
0.3883685 0.67216235 0.63037115 
0.085259825 0.952282 0.2930698 
0.18565755 0.49706972 0.8476162 
-0.3907187 -0.43892035 0.809128 
-0.7479561 -0.6016128 0.2803994 
-0.69410974 0.6715541 0.2592815 
0.002563692 0.57124776 -0.8207737 
0.57302773 0.1307934 -0.8090318 
0.8641408 0.3712246 -0.33978382 
0.9482399 -0.16061968 0.2739388 
0.8459546 -0.29072273 0.44703594 
0.89763147 0.41291496 0.15414023 
0.5980358 0.799577 -0.055045206 
0.092706256 0.99524075 -0.030026637 
0.23680432 0.6505659 -0.721587 
0.780247 0.41946012 -0.46396977 
0.23378058 0.9708022 -0.053757578 
0.7147648 0.61918145 -0.32515502 
0.5180195 0.6770137 0.522789 
0.65175366 0.7580677 -0.023462882 
0.14311741 0.9483773 -0.28301576 
0.8410889 0.51483786 -0.16586559 
0.51574296 0.82018125 0.24761257 
0.57875836 0.74769926 -0.3255527 
0.691701 0.46217147 -0.55493003 
0.47044483 0.229029 -0.8521897 
0.89654887 0.4186805 0.1445919 
0.45460048 0.7351721 0.5028523 
0.3006259 0.81834453 0.48983318 
0.09287365 0.48927578 0.86717 
-0.4472034 0.7966339 0.40667385 
-0.45310453 0.8801047 0.14181677 
0.33653274 0.9412056 -0.02962494 
0.552281 0.6502969 0.5216317 
0.08441924 0.6694826 0.7380153 
-0.49466908 0.8190347 0.29066262 
-0.36781445 0.9266057 -0.07819559 
0.04076436 0.9814323 -0.18742754 
0.51360506 0.72914237 -0.4522846 
0.64157826 0.5979876 -0.48040432 
0.50563174 0.7950832 0.3349319 
0.06276147 0.656391 0.7518057 
0.001133805 0.89914715 0.4376452 
-0.5706405 0.6459932 0.5070131 
-0.78889465 0.4933496 -0.36640334 
-0.35023394 0.09733733 -0.9315909 
-0.27680558 0.58740157 -0.7604855 
-0.8847112 0.42356953 -0.19461496 
-0.4352244 0.55652183 -0.70771694 
-0.16032116 0.66113645 -0.7329364 
-0.27975985 0.211513 -0.9364811 
0.6472425 0.64140314 -0.41192135 
0.3845779 0.9092934 -0.1590134 
0.069542386 0.99747175 0.0146274725 
0.005869164 0.97478724 -0.22305948 
0.103688195 0.57726246 -0.8099487 
0.55401385 0.7314822 -0.39749518 
0.36366087 0.85718036 0.36468178 
-0.13501991 0.93984205 0.3137938 
0.4903714 0.7072707 0.5092192 
0.3954755 0.29542843 0.8696674 
-0.034538757 0.774013 0.632227 
0.6283688 0.77355576 -0.08224586 
-0.046134327 0.9777496 0.20463988 
-0.019970253 0.97181267 0.2349074 
0.522192 0.29628682 0.7997061 
-0.12121036 0.936066 0.33028546 
-0.22239536 0.4648845 0.8569848 
0.083444275 0.98379505 0.15869576 
0.112002134 0.9549196 0.27492568 
-0.24310924 0.46971333 0.8486857 
-0.25085244 0.88905686 0.38295034 
-0.47527507 0.8347413 -0.27806586 
0.14506926 0.9359315 -0.32091624 
0.261127 0.7570279 -0.5989337 
0.27864158 0.91964525 -0.27678797 
-0.3425434 0.91154927 -0.22746862 
0.1669228 0.94244593 0.28971103 
0.23814408 0.8591975 0.45284325 
0.73564404 0.36811864 0.5686093 
0.4417291 -0.049152646 0.89580107 
0.10637576 -0.039149042 0.993555 
-0.2574322 0.06029361 0.9644136 
-0.46163818 0.12387103 0.8783771 
-0.6818459 -0.21858098 0.69807494 
-0.6602928 0.19761282 0.72454304 
-0.10220522 0.101639435 0.9895573 
-0.49737206 0.12431963 0.85858357 
-0.25938436 0.7081927 0.65664524 
-0.48027816 -0.08533013 0.8729558 
-0.48513716 0.54087985 0.6870888 
0.68190825 0.5258004 0.50846344 
0.027392114 0.41690323 0.9085381 
-0.2691293 -0.0826958 0.9595473 
-0.76361054 0.6380367 0.09903664 
0.0039423783 0.99985856 0.01635581 
-0.58590084 0.6544284 0.47795793 
0.04626455 0.3026131 0.95199 
0.3135247 -0.05311074 0.94809365 
-0.25491259 -0.19516005 0.947065 
0.011423029 -0.558653 0.82932293 
-0.93207926 -0.27564064 0.23505448 
0.6343812 -0.32075232 0.7033339 
0.5331667 -0.13136046 0.8357498 
0.8837422 -0.013162091 0.46778893 
0.676862 0.2871178 0.6778062 
-0.29563332 0.5549928 0.77755 
-0.60132694 0.79001576 0.11950313 
-0.65891963 0.20881797 0.72264796 
-0.6599677 0.7129188 0.23704319 
-0.6799995 0.65796125 0.32355475 
-0.6870186 0.63497204 0.35329315 
-0.8829687 0.12467131 0.45257425 
-0.47638956 -0.5831418 0.6580264 
-0.3023246 -0.77023065 0.5615555 
-0.36329818 -0.8838369 -0.29469785 
-0.5675727 -0.6523209 -0.50233316 
0.059880957 -0.9010852 -0.42948782 
-0.24808179 -0.9590814 0.1364491 
-0.364238 -0.931248 -0.010387138 
-0.15018411 -0.88769764 0.43524456 
0.41271663 -0.63787836 0.6502125 
0.40455475 -0.7500666 0.52319735 
0.5106258 0.17910132 0.84094244 
0.6630336 0.25966313 0.7021122 
-0.12505409 0.25291967 0.95937127 
0.43500212 0.47207627 0.7667576 
0.19266762 0.2698119 0.9434409 
-0.26617566 0.4884903 0.83098006 
0.46076718 0.35938594 0.811502 
0.1855164 0.87445205 0.44823816 
0.2991996 0.38419533 0.8734264 
0.3256488 0.60552627 0.72614795 
0.5137789 0.16520528 0.841866 
-0.63518417 -0.65171665 0.41449562 
-0.6113773 -0.014845691 0.7912001 
0.06578763 0.73678714 0.67291665 
-0.7226816 0.62708986 0.29067114 
-0.9226133 0.24247232 0.29998654 
-0.55426294 0.31360573 0.7710021 
-0.7404367 0.5252301 0.4193889 
-0.120540485 0.7506022 0.6496664 
-0.099255055 0.9896982 0.10317939 
-0.26145762 0.910205 0.3211959 
0.3255286 0.7781561 0.5371259 
-0.59098446 0.59297997 0.54691154 
-0.38416332 0.8570806 0.343266 
0.32314384 0.73209864 0.59967464 
0.7382453 -0.29899433 0.60464567 
-0.022847107 0.040508963 0.99891794 
-0.006159676 0.6049733 0.7962219 
-0.7694845 -0.012063662 0.63855165 
-0.34292078 0.6591972 0.6692267 
-0.7482869 0.53713953 0.38929147 
-0.39522308 0.91858256 0.0021818862 
-0.6704919 0.60866356 -0.424228 
-0.3874721 -0.12954707 -0.9127338 
0.10909677 0.25511754 -0.9607357 
0.6769677 0.16990137 -0.71613437 
0.96860605 -0.21139336 0.1308252 
0.46531603 -0.8773167 -0.117458634 
0.22697997 -0.8681534 0.44134983 
0.6889051 -0.3127038 0.6539313 
0.5907793 -0.04050433 0.80581594 
0.7825696 -0.36254796 0.50610673 
0.6384225 0.5014002 0.58396465 
0.8874072 0.45950487 0.036929842 
0.30313593 0.6224358 0.7215832 
0.70486283 0.5932854 0.38881996 
0.18936393 -0.18819249 0.96370375 
0.39780265 -0.6839743 0.61149997 
-0.11295628 -0.5257898 0.84308124 
0.37049618 0.5172682 0.77147025 
-0.5258376 -0.14257933 0.83855 
-0.73509616 -0.36510608 0.57125413 
-0.06688604 0.17426471 0.9824246 
-0.3701373 0.19942807 0.9073185 
-0.24608573 0.4180547 0.8744553 
-0.36809435 0.858352 0.3574051 
-0.09319587 0.93394893 0.3450422 
-0.48007724 0.87657344 -0.033835728 
-0.42819497 0.8049417 0.4107528 
-0.22688185 0.6973386 0.679885 
-0.7934145 0.17638563 -0.5825647 
-0.30299434 -0.27770197 -0.9116338 
0.25306138 0.18895663 -0.9488179 
0.54272145 0.5394351 -0.6437883 
0.75020444 0.6527386 -0.10547842 
0.57729673 0.7634155 0.2896986 
0.41585445 0.018385788 0.9092454 
-0.61409986 -0.011954958 0.78913784 
0.26976967 -0.5043028 0.82030666 
-0.21991728 -0.64811856 0.7290945 
-0.21867564 -0.5778504 0.7863014 
-0.5584026 -0.5460091 0.6245484 
-0.41234627 -0.6319635 0.65619576 
-0.21634269 -0.3395527 0.91536874 
-0.40194088 0.27636987 0.8729624 
-0.6735904 -0.2515738 0.69497234 
-0.83079743 -0.4044684 -0.38233638 
-0.59766537 -0.67860657 -0.42695358 
0.44807816 -0.8315973 0.328134 
0.12723082 -0.8604638 0.49337053 
0.22927046 -0.45563695 0.86013377 
0.3384278 -0.53262615 0.77574223 
0.21786085 -0.40229544 0.88921046 
0.15806462 0.14001675 0.97745126 
0.039617594 0.38155532 0.92349666 
-0.17074469 -0.17825158 0.9690576 
0.2429235 -0.5337339 0.81001014 
0.49264017 -0.3753058 0.7851441 
-0.21621837 -0.5611717 0.7989594 
-0.17411163 -0.6897237 0.7028275 
-0.44957778 0.07720838 0.8898982 
0.06155362 0.75727624 0.6501876 
0.013046644 0.7008472 0.7131921 
-0.1265661 0.4520126 0.88298684 
-0.62894684 0.7543284 0.18818714 
-0.7237139 0.48218882 0.4936924 
-0.16210896 0.98125356 -0.104221456 
0.08672725 0.9476995 -0.30715474 
0.036547974 0.75921994 -0.6498072 
0.18497008 0.93245965 -0.31033084 
0.4074675 0.90904766 -0.08719358 
-0.36933607 0.8763661 -0.30914947 
0.4417457 0.6744852 -0.5915493 
0.24568322 0.7439747 0.6214028 
0.29830378 0.8230261 0.48336625 
-0.33570072 -0.1260975 0.9334906 
-0.3412563 0.4834172 0.806134 
-0.23004122 0.9729909 -0.01923143 
-0.41982913 0.82141316 0.3860361 
-0.02408154 0.5469602 0.83681226 
0.39963955 0.515559 0.75794935 
0.7480665 0.5248664 0.40609333 
0.68374467 0.298444 0.66590124 
0.6029968 0.47114792 0.64375037 
0.7374033 -0.09437453 0.66882724 
0.14105594 0.8327391 0.535396 
0.0934091 0.5240572 0.8465453 
0.39243025 0.6941879 0.60340846 
-0.5726808 0.6369959 0.5160164 
-0.974659 0.19742896 0.10517462 
-0.47614005 0.36761975 -0.79884076 
-0.31537807 0.7776813 -0.5438276 
-0.47843236 0.70265484 0.5266676 
-0.010429334 0.77891415 0.62704384 
-0.09702446 0.05222342 0.99391097 
0.068436116 0.97353697 0.21804218 
0.16134658 0.95380926 0.25340742 
0.6283024 0.7629749 -0.15200448 
0.7344358 0.67507327 0.06985846 
0.83971363 0.44855723 0.30606776 
0.6819638 -0.4927685 0.5404671 
0.14281422 -0.598315 0.78843087 
0.71942216 0.66604537 0.19701631 
0.8292314 0.51555777 0.21581388 
0.28538063 0.20092785 0.9371157 
0.37625903 0.2879153 0.8806441 
-0.15166213 0.018870143 0.98825234 
-0.461075 0.107838824 0.8807841 
-0.615837 0.6209356 0.4849577 
-0.12650833 0.7738081 0.6206582 
0.44204095 0.74025124 -0.5065846 
0.84433323 0.50406075 0.18172565 
0.59035325 0.12746261 0.7970171 
0.2579367 0.09707704 0.9612724 
0.6855872 0.6214039 0.379246 
-0.00037838792 0.70632565 0.70788693 
-0.18831405 0.5402793 0.820144 
-0.07218274 0.9132083 0.40104914 
-0.08775666 0.9936057 -0.071039215 
0.6508381 0.7239183 0.22880581 
0.8334368 0.30056494 0.4637283 
0.6891735 0.6674981 -0.28193316 
0.76362646 0.6434925 -0.0528411 
0.1764341 0.9713802 -0.15903322 
0.4962658 0.8172868 -0.29285237 
0.8352697 0.40165603 0.37549576 
-0.41811788 0.8722643 -0.2536382 
0.3466777 0.8320971 -0.4329308 
0.74874806 0.5200009 -0.41106623 
0.90108883 0.43267173 -0.028881805 
0.66361487 0.38758656 0.63983756 
0.35008746 0.5514002 0.7572297 
-0.0962695 0.99421203 -0.047693655 
-0.38286966 0.88416564 0.26769757 
0.34149244 0.9386795 -0.047578745 
-0.20039721 0.94455856 0.26009637 
-0.28558734 0.9524146 0.10651994 
0.36504054 0.47723594 0.7993693 
-0.6149946 0.5979074 0.5140899 
-0.74469364 0.65109515 -0.14665134 
0.14948341 0.9719076 0.18179743 
0.82513523 0.5403167 0.16495413 
0.87410957 0.4686365 -0.12772028 
0.6356071 -0.0055981176 0.77199244 
0.082103334 -0.010141055 0.99657226 
0.25933614 0.5297591 0.8075272 
0.57289404 0.60884875 0.5487218 
0.161358 0.9241219 0.34635592 
0.43110555 0.8774854 0.21016082 
0.8018658 0.59721565 -0.018569905 
0.12427751 0.98415357 0.1264791 
0.21112657 0.86959237 -0.44635734 
-0.07156974 0.95611537 -0.28411478 
0.34637025 0.92142797 -0.17606308 
0.00860418 0.82211214 0.5692608 
-0.021047508 0.723955 0.6895261 
0.47720638 0.67312324 0.56495947 
0.5368527 0.63311297 -0.55763537 
0.3891782 0.8383013 -0.3818264 
0.06974459 0.9968245 -0.03842681 
0.27331993 0.9583287 0.0830797 
0.32526898 0.9278824 0.1823035 
-0.18058872 0.7563585 0.6287365 
-0.50012034 0.74701375 0.43800697 
-0.19213507 0.9423048 0.27412727 
0.031804405 0.60482293 0.7957247 
-0.26469386 0.95822 0.10840474 
-0.37375182 0.7656037 0.52360356 
0.26925796 0.45492396 0.8488488 
-0.26068607 0.38297266 0.88621366 
0.115820885 0.21535704 0.96964264 
0.0011518067 0.05616094 0.99842113 
-0.18467665 0.33794254 0.9228702 
-0.28414226 0.5975601 0.74979013 
0.10268314 0.96028775 0.25942928 
-0.39782164 0.8668556 0.3004984 
-0.15297538 0.91973954 0.3614939 
0.5804112 0.6709699 -0.46143496 
0.8283529 0.33725297 0.44731638 
0.10222446 0.9354664 0.33830875 
0.43240598 0.50430983 0.74746025 
0.1849338 0.5029567 0.84429497 
0.7465892 -0.29676586 0.59542817 
-0.74754256 -0.27023414 0.60675675 
0.0034118474 -0.35855865 0.93350095 
-0.025322007 -0.22150204 0.97483116 
-0.374364 -0.48030627 0.7931946 
-0.38614997 -0.85520816 0.3456982 
0.33333525 -0.8253793 0.45567167 
-0.59515464 -0.45624238 0.6615391 
-0.96113193 -0.23852086 0.13904436 
-0.7281311 0.19008468 0.65855366 
-0.13769792 -0.5204008 0.84274685 
-0.5103042 0.64677256 0.5668112 
-0.39463526 -0.26029927 0.8811966 
-0.26303658 0.093821995 0.9602132 
-0.39027968 -0.12331111 0.9124014 
-0.3705417 0.41283366 0.832026 
0.25559723 0.5263792 0.8109224 
-0.60684043 0.22282602 0.76295036 
-0.51217276 -0.17238028 0.84140617 
-0.20277306 0.10710101 0.9733511 
-0.5709018 -0.4662129 0.6758082 
-0.42664424 -0.72346777 0.5427423 
-0.82549065 -0.49951327 0.2627768 
-0.8224877 0.53622234 0.18968269 
-0.40312025 -0.6543402 0.6397915 
-0.13941629 -0.38504612 0.91230625 
0.548806 0.38603285 0.74147874 
0.089021124 0.69618464 0.71232176 
-0.25305426 0.8994558 0.35629058 
-0.72091687 -0.22240067 0.6563664 
-0.9221898 0.3085849 0.23311238 
-0.54829264 0.73286057 0.40285328 
-0.21784519 0.44402772 0.86912763 
-0.72004706 0.12182353 0.68314815 
-0.6643873 0.19255401 0.72215825 
-0.61227024 -0.32209975 0.7220644 
-0.7487038 -0.6387001 0.17749609 
-0.50538766 -0.8293398 0.23828357 
-0.3376536 -0.91561687 -0.21825625 
-0.32655123 -0.7657299 -0.55409575 
0.109206505 -0.993958 0.0110256225 
0.17506327 -0.9783489 0.110392004 
0.33941337 -0.82028335 0.46036267 
0.31972742 -0.76376593 0.56074595 
0.6880657 -0.46826896 0.5543372 
0.48324883 0.26041308 0.8358562 
0.48291415 -0.36240497 0.7971554 
-0.026949855 -0.5572657 0.82989687 
0.6232016 0.45365873 0.637035 
0.17613633 0.26550493 0.9478835 
0.38421422 0.2258488 0.8951937 
0.4673762 -0.45549014 0.757686 
-0.21329944 0.19339164 0.95765495 
0.46580192 -0.18676199 0.8649558 
-0.01980781 -0.103952914 0.994385 
-0.6802322 -0.28316623 0.6760925 
-0.434751 -0.17428268 0.8835254 
-0.4088507 0.7460524 0.52559197 
-0.48447326 0.77654064 0.40282813 
-0.45180115 0.2709701 0.8499711 
-0.7635692 0.09131074 0.6392376 
-0.9016898 0.16913731 0.39792967 
0.054388367 0.7823527 0.62045634 
-0.25444302 0.9618146 0.10085468 
0.40032646 0.30619004 0.86370504 
0.46126115 0.21920799 0.8597594 
0.28997946 0.23660526 0.927324 
0.0814348 0.21496223 0.97322124 
0.0695887 0.5311844 0.8443936 
-0.16809927 -0.21671346 0.9616538 
-0.055314142 0.042849388 0.99754924 
0.38068023 -0.43212724 0.8175259 
-0.5054823 -0.636771 0.582246 
-0.6968072 0.045176625 0.7158344 
-0.6947603 0.5010939 0.5159583 
-0.60906976 0.79306746 -0.008834928 
-0.7353027 0.6504468 -0.19039193 
0.01603919 0.7683616 -0.639815 
-0.06179933 0.57541025 -0.81552684 
0.64921 0.14553118 -0.7465569 
0.887737 -0.1033557 -0.44859844 
0.7848566 -0.593517 -0.17815068 
0.84165025 -0.3852084 0.37846977 
0.7019461 -0.28027153 0.6547668 
0.2604296 -0.67375416 0.69154304 
0.14692038 -0.6333633 0.7597798 
0.46307388 -0.6005127 0.6518798 
0.3489439 0.58575416 0.731526 
0.1525792 0.40891412 0.89972717 
0.418835 0.4620813 0.78170204 
0.7436565 0.06041912 0.66582626 
0.4771213 -0.13288519 0.86873287 
0.57526916 -0.09618476 0.8122894 
-0.18223146 0.33793145 0.92336017 
0.019436736 -0.41702244 0.9086883 
0.03400941 -0.056632128 0.9978157 
0.26351774 0.005714932 0.96463764 
-0.43931088 0.20129755 0.8754915 
-0.46012452 0.34581047 0.81774116 
-0.1533066 0.9661892 0.20730568 
-0.62808686 0.73571634 0.25343314 
-0.7140937 0.6962686 -0.072666146 
-0.32798782 0.80047625 0.5016591 
-0.11565826 0.7004866 0.7042314 
-0.7400531 0.62014055 -0.26028296 
-0.3263378 0.5112867 -0.7950407 
0.042944763 0.45109063 -0.8914444 
0.88696086 0.38161454 -0.26013625 
0.83451587 0.50684553 0.21608078 
0.4625729 0.39047837 0.79596037 
0.35402328 -0.05929805 0.93335485 
0.09092477 0.3536048 0.93096536 
0.38879943 -0.44773978 0.80521065 
-0.08330578 -0.5865594 0.8056105 
-0.027879836 -0.36809254 0.9293711 
0.033739526 -0.38054404 0.92414707 
-0.54625994 -0.1785469 0.8183649 
-0.31442162 -0.15378079 0.93674475 
-0.7347519 -0.051507898 0.6763776 
-0.73987454 -0.2726648 0.6150119 
-0.8538225 -0.42936063 -0.2943409 
-0.4588143 -0.6128325 -0.6433707 
-0.53673786 -0.806046 -0.24940392 
-0.071296304 -0.97366536 -0.21654725 