# OOMMF: rectangular mesh v1.0
# Segment count: 1
# Begin: Segment
# Begin: Header
# Desc: Time (s) :  2.169999999999996e-07
# Title: m
# meshtype: rectangular
# meshunit: m
# xbase: 2e-09
# ybase: 2e-09
# zbase: 5e-10
# xstepsize: 4e-09
# ystepsize: 4e-09
# zstepsize: 1e-09
# xmin: 0
# ymin: 0
# zmin: 0
# xmax: 1.024e-06
# ymax: 1.024e-06
# zmax: 1e-09
# xnodes: 256
# ynodes: 256
# znodes: 1
# ValueRangeMinMag: 1e-08
# ValueRangeMaxMag: 1
# valueunit: 
# valuemultiplier: 1
# End: Header
# Begin: Data Text
0.7131169 0.35038185 0.60720414 
-0.23785862 0.4928462 0.8369744 
-0.5759559 0.37858447 0.72453344 
-0.8091315 -0.05214732 0.58530927 
-0.49704695 0.42490354 0.7565722 
-0.114266716 0.80877936 0.5769048 
-0.11046858 0.83201313 0.543646 
-0.07652806 0.9759556 -0.20409362 
-0.3248754 0.8660032 -0.38012424 
-0.2385573 0.971018 0.014651098 
-0.56442183 0.6228734 0.5417166 
-0.54422337 0.7107814 0.4456577 
0.3079203 0.9130223 -0.26753598 
0.14469472 0.79779667 0.58530676 
-0.20309043 0.5912037 0.78053355 
0.040180553 0.38404152 0.92244124 
0.35933477 0.5929834 0.7205895 
0.19824737 0.68411255 0.7019174 
-0.6804464 0.6999825 0.21683453 
-0.86852986 0.48317257 0.11045427 
0.6753035 0.2512327 0.6934316 
0.60895365 0.75755996 -0.23511386 
0.69650954 -0.031314243 0.71686393 
0.8486672 -0.36086208 0.38670734 
0.13183695 0.07046785 0.9887636 
-0.01827836 0.79667526 0.60413116 
-0.70984757 0.3374292 0.61827016 
-0.978179 0.20681484 0.019839 
-0.7620034 0.36567876 -0.53444344 
-0.94997585 0.072898254 0.30369696 
-0.8890367 0.06898118 0.4526095 
-0.83038765 0.53959846 -0.1388875 
-0.5105773 -0.093338884 -0.8547507 
-0.2845552 0.8500107 -0.4432946 
-0.8699718 0.1488527 -0.47009778 
0.122913085 0.2392683 -0.9631423 
0.3065744 -0.3599451 -0.88116497 
0.93643945 0.20698513 -0.28326377 
0.91833633 -0.28716666 0.27238527 
0.666707 0.4188753 0.6164782 
0.45238322 0.02553874 0.89145786 
0.21129294 -0.2319846 0.9494938 
-0.23551433 -0.28924483 0.92783105 
-0.4604245 0.38454401 0.8000845 
-0.16967463 0.8720972 -0.4589739 
-0.27167752 0.36606613 -0.8900489 
0.17297082 0.96064615 0.217348 
0.48076674 0.8402412 0.25071552 
-0.6334806 0.23023605 0.7387109 
-0.8419782 -0.21552555 0.49459246 
-0.62053126 0.32263824 0.7147346 
0.06989226 -0.083033085 0.9940928 
-0.5101127 -0.046348527 0.858858 
-0.79135364 0.019556794 0.6110457 
0.027168786 -0.30085286 0.95328355 
0.14732233 0.53884983 0.82941973 
0.08485916 0.35282132 0.9318349 
0.4167707 0.8027951 0.42640626 
0.56427807 0.6818763 0.46544075 
0.48296204 0.39939594 0.7792501 
0.29734427 0.8758467 0.38010398 
-0.32590485 0.84339356 0.4271689 
0.46123955 0.1983054 0.8648313 
-0.4975122 0.2463444 0.8317428 
-0.09789956 0.5632849 0.82044244 
-0.6336697 0.7606742 0.1408461 
-0.6704648 0.50854117 -0.54024327 
-0.8206597 -0.12334703 -0.55794543 
-0.54189205 -0.008638557 -0.8404038 
-0.090240456 -0.87878 -0.46861762 
-0.88456184 -0.20146586 -0.42066848 
-0.013655178 0.24809456 -0.9686396 
0.35566857 0.2447249 -0.90200317 
0.93349344 -0.023304572 0.35783663 
0.7524282 -0.6542558 0.07616587 
0.9498719 -0.31234354 0.013601644 
0.24391931 0.4201809 -0.87404317 
0.4889264 -0.42825082 -0.7599687 
0.76172084 -0.14523438 -0.6314177 
0.9423494 -0.32030123 0.09687536 
0.5319759 0.012020723 0.8466742 
0.57741445 0.7790143 0.24439606 
0.31407177 0.621856 0.71739405 
0.80896926 0.3935963 0.43663564 
0.4262556 0.539438 0.7261631 
0.44825324 0.7331052 0.5114938 
0.6902976 -0.16268384 0.70499873 
0.6108902 0.12024973 0.78253007 
-0.0036060242 -0.34551764 0.9384054 
0.20722486 -0.46964982 0.8581882 
0.68306315 -0.27008557 0.6785857 
0.37243676 -0.044111237 0.92700875 
0.34242406 -0.6772328 0.6512308 
0.5771355 -0.8142503 0.062539525 
0.7526494 0.3426012 0.56226635 
0.44785964 -0.20264393 0.87083703 
0.65067756 0.4154797 0.6356063 
-0.40516558 0.3528354 0.84341455 
0.0569331 0.43708608 0.897616 
-0.55073464 0.6408443 0.53479916 
-0.47829947 0.866756 0.14129318 
-0.9771214 -0.15400814 0.14668077 
-0.3265017 0.9389818 0.10821206 
-0.4232306 0.90451026 -0.05231782 
-0.25865406 0.75011116 -0.6086308 
0.18448202 0.04467136 -0.98182017 
0.021771258 0.7684865 -0.6394957 
0.2295703 0.8853575 -0.4042769 
0.7973486 0.589372 0.12990703 
-0.49321458 0.86989176 0.0052682264 
-0.26206744 0.76728094 -0.58532107 
-0.32636562 0.9315248 0.16045922 
-0.2471768 0.6084983 -0.75407785 
0.28729352 0.82490057 -0.4868281 
0.1612115 0.9168227 -0.36530414 
0.70570165 0.6661897 -0.24119829 
0.69518775 0.32251126 -0.64241767 
0.03871032 0.80123526 0.5970961 
0.3546108 0.09147866 0.93052834 
-0.4062689 0.82741743 0.38771898 
-0.2919329 0.6545423 0.6973877 
-0.34141898 0.8082201 -0.47980574 
-0.4479293 0.50887054 -0.735126 
-0.45417163 0.77296406 -0.4430064 
-0.6095153 0.07172233 -0.78952336 
-0.16384746 0.6698056 0.72423375 
-0.60532445 0.6461898 0.46478063 
-0.43652558 0.7355456 0.51809084 
0.38304523 0.6984251 0.60454845 
-0.21495405 0.27591884 0.936837 
-0.23678483 0.32522187 0.91551286 
0.37773243 0.15069138 0.9135701 
0.8875615 -0.054282684 0.45748004 
0.33154583 -0.5615842 0.7580901 
0.4423203 0.21482773 0.870748 
-0.48484698 -0.24731296 0.8389039 
-0.5415136 -0.8404214 0.021331215 
-0.10816698 -0.006246058 0.9941132 
0.10117743 -0.09818665 0.99001145 
-0.23353808 0.1870266 0.9541914 
-0.55003434 -0.4543922 0.7007069 
-0.21255238 0.034846347 0.97652817 
-0.0674687 0.84278905 0.5339987 
-0.04642287 0.9022329 0.42874348 
0.26185983 0.7081806 0.65567505 
0.15866505 0.17104249 0.9724042 
-0.30619237 0.8355768 0.45613348 
0.113957845 0.87692165 0.46692836 
0.29792556 -0.23456365 0.9253217 
0.2517135 0.40460283 0.8791684 
-0.24062721 0.8249202 -0.5114737 
0.55356956 0.7562385 -0.34880382 
0.51999867 0.62751335 -0.57950705 
-0.124920644 0.96889836 0.21361408 
-0.5677544 0.7483499 0.3429687 
-0.12632538 0.9832283 0.13154544 
0.65611845 0.75400144 -0.03147239 
0.5639184 0.8243328 0.049713444 
0.55776614 0.79920465 -0.223984 
0.85440636 0.5195717 0.0059181857 
0.6556772 0.7129342 0.24862091 
-0.52152807 0.8526363 0.031936895 
-0.06785595 0.9954817 0.06642009 
-0.42834035 0.7536027 0.49860564 
-0.6080672 0.6450326 0.46280366 
0.7615688 -0.22812246 -0.60660785 
0.95338213 -0.2822378 -0.106791064 
0.80076355 -0.033546243 0.5980405 
0.73821086 0.029057397 0.673944 
0.7329195 0.65031326 0.199804 
0.062261138 0.7418548 0.66766393 
-0.10595095 0.9025212 0.41740876 
-0.14092785 0.9818511 -0.12691669 
-0.38275883 0.882138 -0.27445993 
-0.31477407 0.9410285 0.12402733 
-0.21090932 0.75429845 -0.6217324 
-0.158636 -0.7619401 -0.6279187 
-0.17210752 0.045161195 -0.9840424 
-0.39440244 0.1565246 -0.9055092 
-0.46827313 0.3118536 -0.8267211 
0.98839104 -0.11789817 0.095829636 
0.37702096 -0.86133546 -0.34052372 
-0.33935067 0.15443128 0.9278967 
0.31890863 0.5067132 0.8009613 
0.5413539 0.16086054 0.82526356 
0.13146515 0.53633827 0.8337015 
0.12510124 0.90353525 -0.40984604 
0.35633266 0.87479985 0.32825655 
0.24341191 0.96263754 0.11865815 
-0.06943102 0.99471796 0.07560262 
-0.9015502 0.43175533 -0.028192023 
-0.031863943 0.8630709 -0.5040767 
-0.43099564 0.85725856 0.2816923 
-0.9995425 -0.010247627 0.028459068 
-0.9440286 -0.011553978 -0.32966143 
-0.679585 0.30455285 -0.66739184 
-0.21749793 -0.18076432 -0.95917624 
0.010950816 0.4528281 -0.8915306 
-0.17937726 -0.10420348 -0.9782461 
0.39670026 0.088378645 -0.9136839 
-0.055441976 0.16840534 -0.9841575 
0.2715222 0.35809538 -0.89333284 
0.6159573 0.4851868 0.6206372 
-0.00885309 0.99494535 0.10002723 
-0.13886504 -0.0022339432 0.9903089 
0.38957307 0.6482929 0.65417826 
0.37912035 0.9146946 0.1400058 
0.039957106 0.30586845 0.95123506 
-0.30230564 0.7014064 0.64547694 
-0.5294556 0.43720776 0.72699803 
-0.26333693 0.74733484 0.6100363 
-0.18541051 0.6410898 0.7447328 
-0.5618706 0.15796308 0.81200325 
-0.14943933 0.0722673 0.9861265 
-0.0726338 0.41051412 0.90895694 
-0.0017565356 -0.50721383 0.86181855 
0.44294414 -0.101245455 0.89081424 
-0.26866692 0.43603584 0.85888934 
-0.41219008 0.8812127 0.23143782 
-0.26690894 0.96005315 0.084010795 
0.49055213 0.81450313 -0.30974713 
0.19495113 0.94296956 0.26981953 
-0.28185058 0.58541435 0.7601647 
-0.89797026 0.31152478 0.31080824 
-0.6903352 0.27522525 -0.6690953 
0.09591982 0.15198658 -0.98371714 
0.8116055 -0.5209682 -0.2643645 
0.8884964 -0.41581193 0.19409955 
0.60942215 -0.059105262 0.7906399 
0.90037906 0.07333256 0.42888218 
0.6111785 0.733089 -0.29839796 
-0.23428182 0.94347686 -0.23444289 
0.033718072 0.833186 0.5519641 
-0.49993938 0.79490566 0.34378144 
0.23542204 0.9349423 0.265442 
0.16789506 0.5885592 0.7908283 
0.12517597 0.41306627 0.9020573 
-0.074248165 0.21414307 0.9739764 
0.3310763 -0.6505334 0.68351656 
0.22948225 -0.36667836 0.9016014 
0.564249 0.20454994 0.79986405 
0.172996 -0.3049178 0.9365348 
0.050353862 0.8532894 0.5190006 
0.23426688 0.55480874 0.7983147 
0.14275748 0.7726164 0.6186148 
0.58951086 0.7997992 0.11312948 
0.038068533 0.99417937 0.10078866 
0.82550377 0.33565587 0.4537385 
-0.20058621 0.4927567 0.84673256 
0.20271312 0.88253784 0.4243045 
0.8268527 -0.01789312 0.5621338 
-0.48063526 0.69048345 0.540576 
-0.25555244 0.7566676 0.6017866 
-0.6607568 0.0066850055 0.7505704 
-0.09420648 0.26197496 0.9604657 
-0.41580945 0.5864286 0.69512886 
0.31031814 -0.31028208 0.89856976 
-0.83978474 -0.07333795 0.53794366 
-0.34785965 -0.5979984 0.7220745 
-0.95584077 -0.19472772 -0.22011237 
-0.5140121 0.49835148 0.6981672 
0.07456205 0.38514873 0.9198374 
-0.41750312 0.13052744 0.8992519 
-0.25926393 0.90157247 -0.34633714 
-0.5056764 0.4496168 -0.736299 
-0.029461121 0.91555643 0.40110922 
-0.5974884 0.6289176 0.497464 
-0.31105226 0.705151 0.637188 
0.38097417 0.9118029 0.15321301 
0.1950406 0.9014917 0.3863573 
-0.057026807 0.646408 0.7608579 
0.58074266 -0.15164961 0.7998378 
0.5454476 0.13489988 0.8272176 
0.15769954 0.7124457 0.68377787 
-0.38631728 0.74338037 0.54602623 
-0.060263813 0.8646111 0.49881452 
0.800199 0.45633557 0.3891524 
-0.15903749 0.7485862 0.6436815 
0.07196671 0.40714797 0.9105226 
0.060225293 -0.51865417 0.85286045 
-0.3640879 -0.27064198 0.89117503 
-0.5625849 0.6955187 0.44693643 
-0.55568385 0.40208074 0.7276996 
-0.7293424 0.5614922 0.3908788 
-0.45481887 0.7980737 0.39524448 
-0.030690018 0.8996272 0.43557906 
-0.23115997 0.3963492 0.8885227 
-0.7086294 0.68212384 -0.18042038 
-0.0029475277 0.59531987 -0.80348337 
0.09305095 0.9296368 -0.35653475 
-0.16120684 0.74975765 -0.64177567 
0.27153113 0.9243889 -0.26791054 
0.10244167 0.31223962 -0.944464 
0.33843672 0.50485075 -0.7940947 
0.8755437 0.47086063 -0.10822992 
0.81353724 0.088744126 0.57470137 
0.18335019 0.11732186 0.97602165 
0.24833088 0.35837603 0.89994365 
-0.6081892 0.11698918 0.7851239 
-0.7176626 0.2516225 0.6493432 
-0.077549815 0.8965789 -0.43604165 
-0.1804383 0.6241164 -0.76021093 
0.14860733 0.8757386 -0.45934495 
0.84901613 0.33190736 0.41110736 
0.21674375 0.8114297 0.5427743 
0.25300017 -0.10426847 0.9618311 
-0.31923902 -0.22690254 0.9201096 
-0.7286 -0.012777046 0.6848203 
0.19815555 -0.10477041 0.974555 
-0.6319854 -0.30139747 0.71397066 
-0.17062096 -0.6088589 0.77471244 
-0.18593669 -0.56434214 0.8043293 
0.38757357 -0.17729822 0.9046282 
0.6888003 -0.19237249 0.69896144 
0.8453314 0.20632848 0.49279156 
0.2548549 -0.35838297 0.89811504 
0.10830012 0.21042821 0.9715921 
-0.54207647 0.4965403 0.67793876 
-0.01105791 -0.34173307 0.9397321 
-0.23959248 -0.07244519 0.9681669 
-0.1406182 0.5895419 0.79540354 
-0.06979908 0.76722705 0.6375664 
-0.7985184 0.56696033 0.20229755 
-0.7481718 0.5716061 -0.3369059 
-0.52130324 -0.10462262 -0.84693396 
-0.43217176 0.48641267 -0.7593618 
-0.56736743 -0.3317899 -0.7536642 
0.25662494 0.6323457 -0.73094636 
0.24784768 -0.031057097 -0.96830106 
0.8671688 -0.08814269 -0.4901523 
0.8141994 -0.5730495 0.093240194 
0.9047083 -0.039314948 0.42421356 
0.9815562 -0.049210884 0.18473212 
0.9039312 -0.42481348 0.049418014 
0.9816204 -0.11698581 0.15078439 
0.82864076 -0.12350932 0.5459853 
0.7619098 0.3496508 0.54519534 
0.7028673 0.64114517 0.30807543 
0.44624066 0.37235275 0.8137707 
0.36940184 0.51288724 0.77491236 
0.18258105 0.37417158 0.9092083 
0.56377476 0.7236184 0.39816383 
0.71382105 0.06983037 0.696838 
0.29542264 0.120518595 0.9477346 
-0.27058357 -0.16251321 0.9488804 
-0.4004729 0.23464029 0.885757 
-0.29853565 -0.10180285 0.9489535 
-0.33479035 0.62705487 0.70336175 
-0.061403807 0.33715412 0.9394449 
0.23712212 -0.7666914 0.5966217 
0.65785635 0.39902303 0.63875324 
0.939096 0.09186696 0.33114827 
0.8249759 -0.18498433 0.53403705 
0.41702372 0.26818797 0.8684277 
-0.18812498 0.06832419 0.9797657 
-0.69106627 -0.0054754578 0.72277075 
-0.81041026 0.33762437 0.47879547 
-0.50323033 -0.27012 0.8208499 
0.44632244 0.17877696 0.8768325 
-0.051036656 0.8115875 0.5819974 
-0.7484123 0.6623275 0.034661725 
-0.53027886 0.8216151 -0.20917189 
0.06588506 0.98963267 0.12761806 
-0.34706643 0.89924854 0.2662647 
0.06160615 0.56205773 0.82480043 
0.31882963 0.38522843 0.86599475 
-0.07863398 0.92596245 0.3693376 
-0.41426602 0.4968577 0.762572 
-0.502643 0.7898824 0.3513346 
-0.24817832 0.9260186 0.28442395 
0.016268607 0.8855817 -0.46419877 
0.38108858 0.9244736 0.0109609 
-0.046971615 0.89144725 0.45068333 
0.17261294 0.844217 0.507447 
0.23925968 0.5391504 0.8075096 
-0.2752639 0.9293383 -0.24608961 
-0.36837572 0.685085 0.6284569 
-0.7597696 0.6097881 -0.22562927 
-0.667044 0.42274773 -0.613463 
0.2777987 0.8859355 -0.37141126 
-0.20509943 0.81399465 -0.5434583 
-0.4893317 0.7373825 0.46564114 
0.19618775 0.9776686 -0.075330004 
-0.18011577 0.79058915 0.58525825 
0.65750223 0.67438084 0.3360081 
0.6717581 0.013191451 0.74065316 
-0.106773406 -0.20333262 0.9732705 
0.6278193 -0.15438825 0.76289403 
0.37971744 -0.030856004 0.9245878 
-0.43546113 0.04665937 0.89899755 
-0.51936585 0.14821942 0.84159976 
-0.9037238 -0.37255237 0.21092199 
-0.52105266 -0.7220594 -0.4551203 
-0.07369145 -0.79107547 0.6072638 
0.06942263 0.14651418 0.98676956 
-0.35887706 0.52361166 0.7726824 
-0.65859395 -0.51979035 0.5441251 
-0.44077253 -0.40945545 0.79879016 
-0.32971418 0.43826425 0.8361897 
-0.14537217 0.86361873 0.4827316 
-0.09440198 0.6317556 0.769398 
0.018532237 0.9190963 0.39359695 
-0.15016125 0.92436445 0.3507163 
0.42937282 0.87898237 -0.20743464 
0.8214284 0.5407619 -0.18119569 
0.34338963 0.92027694 -0.18754686 
0.65662885 0.73357856 -0.1752172 
0.7825856 0.59985256 -0.16654357 
0.9894564 0.14453538 -0.009252486 
0.18041065 0.53956354 0.82238877 
-0.30742082 0.565751 0.7651262 
0.03194851 0.87452346 0.4839298 
0.26712006 0.8749632 0.40383956 
0.6496521 0.7410461 -0.16971426 
0.817943 0.48760378 0.30530623 
0.7895812 0.3707377 0.48899415 
0.7111311 0.40875435 0.5720249 
0.5434184 0.5444745 0.6389398 
0.03927905 0.8111134 0.5835685 
-0.48207 0.10400934 0.8699372 
-0.080463246 0.9727392 0.2174954 
0.79792875 0.55297375 0.23985395 
0.90530646 0.4168769 0.08144877 
0.8921313 0.39167362 0.22515191 
0.771559 0.03893605 0.6349651 
0.19455339 0.6058076 0.77145725 
-0.27727205 0.9521106 0.12886302 
-0.27147785 0.6305641 0.72710985 
-0.43452543 0.866723 0.24490587 
-0.5747231 0.72066027 0.38773978 
-0.14498036 0.7742998 0.6159875 
-0.9046779 0.36395237 -0.22157738 
-0.72623754 0.33043915 -0.60281765 
-0.2786689 0.011217893 -0.9603218 
-0.8180097 0.48300585 -0.31235483 
-0.28844562 0.3894712 -0.87470645 
0.41249374 0.44070697 -0.7972618 
0.3380802 -0.91928804 -0.20152247 
0.8241715 -0.29842788 0.48133394 
0.7003587 0.3486858 0.622829 
0.5247859 0.10897223 0.8442303 
-0.2756115 0.45536223 0.8465717 
0.18563278 0.98085696 -0.058824174 
-0.23764315 0.89929855 0.36713478 
0.08970115 0.9779129 -0.18878585 
-0.00017641253 0.91966236 -0.3927101 
-0.39581317 0.91779906 0.031256225 
-0.6591192 0.5180255 0.5451711 
-0.7786777 0.271242 0.56576407 
-0.72600955 0.5682253 0.38733724 
-0.03394432 0.9983338 0.046663005 
-0.56586677 0.8243058 -0.01774364 
-0.15941487 0.8483294 -0.5049002 
0.3352585 0.87447834 -0.3505558 
0.16662009 0.9139979 -0.36992654 
0.5562427 0.7912446 -0.25401947 
0.17019212 0.4508418 -0.87622845 
0.36758685 0.7529911 -0.5457879 
0.23070611 0.48352167 0.8443824 
0.3563612 0.4081228 0.8405014 
-0.46924362 0.050870385 0.8816023 
-0.17538837 0.26124915 0.9492038 
0.399175 0.91407245 0.07162982 
0.14683817 0.9885273 0.035388764 
-0.0132001275 0.97665894 0.21439028 
0.05451651 0.23035294 0.97157884 
0.08889791 0.6189612 0.7803745 
-0.1785324 0.48122007 0.8582269 
-0.3019498 0.09319925 0.94875723 
-0.5276054 -0.11134596 0.8421608 
-0.62373704 0.03864239 0.7806785 
-0.15336658 0.17382132 0.97276145 
-0.49797893 0.025771786 0.8668061 
-0.7403792 0.2143318 0.63710326 
-0.23183644 0.6098622 0.75783896 
0.03182294 0.93394715 0.3559918 
-0.20780627 0.35893223 -0.9099364 
0.1826817 0.9460458 -0.26762813 
0.45599228 0.87727123 -0.14988796 
-0.74498653 0.038486958 -0.66596836 
-0.60400933 0.4323719 -0.6694978 
-0.10348727 0.594725 -0.7972406 
0.6790695 0.008649759 -0.7340231 
0.8931036 -0.3515309 -0.28069916 
0.915987 -0.3932524 0.079501234 
0.8664445 0.48928815 0.099353015 
-0.015666831 0.72234803 0.69135225 
0.120096356 0.62858135 0.7684156 
-0.074122444 0.9702607 0.23043506 
0.26561904 0.7937704 -0.54715186 
0.09273414 0.81859136 0.5668408 
0.12240506 0.06822228 0.99013275 
-0.29329324 0.09699391 0.9510895 
-0.11074471 0.3921545 0.9132089 
-0.585062 -0.47693 0.655927 
0.07494614 -0.250129 0.9653076 
0.58916324 0.067781 0.80516607 
0.17018314 0.07019873 0.9829089 
0.3095779 0.32120457 0.89498 
0.07478712 -0.32633272 0.94229186 
-0.34432435 0.80621016 0.48110914 
0.5553676 0.78056043 0.28686652 
0.2661747 0.809692 0.5230201 
0.38804218 0.55892426 0.7328213 
0.17034195 0.19333777 0.966232 
0.18073106 0.7406271 0.64715374 
-0.79872066 0.28557077 0.52961755 
-0.4832974 0.20877905 0.85019714 
-0.81547487 0.31120288 0.48800975 
-0.8375352 -0.35315228 0.41691524 
-0.6548297 -0.33432764 0.6778076 
-0.27006674 0.96055573 -0.06630763 
0.19587502 0.78389657 0.5891852 
-0.7869478 0.09569486 0.60955364 
-0.5553026 -0.01111679 0.83157414 
-0.9140564 0.080313966 0.3975559 
-0.40505353 -0.12173122 0.906153 
-0.54344904 0.79116786 0.28056473 
-0.010906935 0.8986088 0.43861514 
-0.2921549 0.79383945 -0.5333521 
-0.1907674 0.78574187 -0.58840257 
-0.056216497 0.93047684 0.36201212 
-0.39429417 0.5127173 0.7626619 
-0.65639395 0.3714444 0.65664 
0.13790928 0.43640688 0.8891176 
0.6631698 0.5159455 0.54222333 
0.031229407 0.3740367 0.9268879 
-0.0021608856 -0.07683598 0.99704146 
-0.09410191 0.095118165 0.9910083 
0.15138376 0.7148174 0.6827292 
0.49083278 0.13880843 0.86012524 
0.43883273 0.42329845 0.79261863 
0.9362197 0.26352605 0.23247957 
0.3486711 0.29013827 0.89120615 
0.24584734 -0.0060857157 0.9692895 
0.05951409 -0.04334618 0.99728596 
0.04130047 0.39823908 0.91635144 
-0.3397819 0.5238439 0.781112 
-0.31985557 0.6197756 0.7166385 
-0.30416635 0.9496781 -0.07479618 
0.030231012 0.9955982 0.08871528 
-0.602335 0.7837367 0.1514904 
-0.5280163 0.8109897 0.2519814 
-0.52700156 0.79068285 0.3115925 
-0.5368879 0.6309546 -0.5600426 
-0.19186157 0.9094601 -0.36887872 
-0.39121643 0.8723984 -0.29303733 
0.780445 0.3854014 0.49231216 
0.42946094 0.835677 -0.3423555 
0.41480997 0.6864974 0.59720516 
0.7973464 0.5981902 0.08004518 
0.34138387 0.20103414 0.91817343 
0.37411445 -0.2983319 0.87808686 
0.0218602 0.35705093 0.9338291 
-0.33267638 -0.0025298481 0.9430377 
-0.53939545 0.3629309 0.7598248 
-0.39164153 0.88441837 0.25381306 
-0.16690457 0.8907354 0.42276874 
0.29477367 0.9526394 -0.07474471 
0.025890552 0.9803843 -0.19538817 
0.41259333 0.17363063 0.89421433 
0.63381237 -0.04303769 0.7722886 
0.03427809 -0.5697544 0.8210999 
-0.47381583 -0.3939224 0.78760636 
-0.01943679 -0.79295355 0.6089721 
-0.31491944 -0.30597422 0.89844626 
-0.41193315 -0.80800104 0.4212425 
-0.04890492 -0.9844988 0.16843571 
0.4640601 -0.679064 -0.5687885 
0.9103985 -0.41329446 0.019035272 
0.93410546 -0.035519436 0.355226 
0.5924806 -0.044091992 0.80437726 
0.024266226 -0.20906423 0.9776008 
-0.43078804 -0.024155602 0.9021298 
-0.5478732 -0.52806723 0.6488297 
-0.044415712 -0.30344868 0.9518121 
-0.2471758 -0.02966318 0.9685165 
-0.4359021 0.13200809 0.8902602 
-0.7674597 0.6027102 0.21850882 
-0.91568446 0.32377678 0.23809825 
-0.87930924 0.26204503 -0.39767802 
-0.96155584 0.22336802 -0.15974107 
-0.7265559 -0.3450205 -0.5942032 
0.043850694 -0.15220475 -0.9873758 
0.33876425 0.63575846 -0.69357777 
0.25450912 0.5503472 -0.79520005 
0.7635958 0.1750788 -0.6215054 
0.8266421 -0.25443116 -0.50192416 
0.9991131 0.03982134 -0.013688144 
0.9116472 -0.12290783 -0.3921646 
0.89049906 0.25645497 0.375822 
0.57100016 0.68068904 0.45893493 
0.37478566 0.9239417 0.07659947 
0.102449596 0.6876746 0.7187544 
-0.29751623 0.4626983 0.83510137 
0.32113406 0.71288776 0.6234293 
0.30607334 0.4956983 0.81277454 
0.34311914 0.3966893 0.85141456 
0.5314111 0.5843994 0.61325324 
0.13592644 0.10623417 0.98500675 
0.023908107 0.54577565 0.8375903 
-0.11402747 0.3091814 0.94414234 
-0.882527 -0.10748391 0.45781368 
-0.5713109 0.14294128 0.80819046 
0.18740694 -0.26366132 0.9462354 
0.8258874 0.10936842 0.5531263 
0.005313803 -0.16196778 0.9867817 
0.84093386 0.16966493 0.5138524 
0.6167343 -0.510562 0.5991371 
0.15779155 -0.24815126 0.95578384 
0.18523026 -0.5615661 0.80643255 
-0.504078 -0.050917305 0.862156 
-0.29601973 0.27528614 0.9146528 
0.19279258 -0.047319513 0.9800979 
-0.16608565 0.07633007 0.98315275 
-0.7131303 0.36987248 0.5955162 
-0.8664492 0.47202042 0.1626737 
-0.72613347 0.6849892 -0.05932911 
-0.19232795 0.72036874 0.6663925 
0.22451048 0.66488403 0.71240735 
-0.13683313 0.9705456 0.19828781 
-0.2934332 0.5243626 0.7993378 
-0.24307354 0.8281379 0.50507724 
-0.4848399 0.8349123 0.26048374 
-0.532568 0.55881196 0.63568914 
-0.5903038 0.58894664 0.55198133 
-0.57210004 0.7707871 0.28033692 
-0.13355352 0.82977176 0.54188764 
-0.78784585 0.5799169 0.20735362 
-0.03127951 0.45994794 0.8873949 
0.33940595 0.60178685 0.72294974 
0.09345793 0.96441174 0.24733712 
0.032700412 0.3660108 0.9300359 
-0.5597732 0.8285559 0.012213473 
-0.1338225 0.93489856 -0.32871932 
0.44174004 0.7292828 -0.5225058 
0.029401705 0.8933585 -0.4483816 
0.064769395 0.5712804 0.8181954 
0.44336587 0.8749795 -0.19451854 
0.32204023 0.52771884 0.7860044 
0.15570548 -0.11811195 0.98071676 
-0.1565503 -0.33731487 0.9282837 
-0.30284703 -0.03272936 0.9524771 
-0.84835386 -0.23159519 0.4760876 
0.061634205 -0.25622788 0.9646495 
-0.12956855 -0.88619137 0.44483376 
-0.70469946 -0.6302529 0.32585284 
-0.8978424 -0.3407007 0.27893025 
-0.52169997 -0.7734854 0.35993 
-0.82237536 0.042482197 0.56735706 
-0.8294096 0.015109235 0.5584367 
-0.9711932 -0.112757705 0.2099275 
-0.64159334 -0.48616523 0.59329706 
0.13514352 -0.4625176 0.8762499 
-0.21736552 -0.046688553 0.974973 
-0.016066581 0.14920214 0.9886762 
-0.12402008 0.42385536 0.8971988 
-0.039453376 0.4328864 0.90058476 
-0.21624057 0.9322838 0.28997737 
0.15371431 0.33950853 0.9279579 
0.6744951 0.7325971 0.09142152 
0.16324417 0.98469466 0.061055794 
-0.05370445 0.9616946 0.2688111 
0.057042453 0.9830179 0.17441909 
0.85481167 0.5055811 0.11698215 
0.20522568 0.53202266 0.8214831 
0.14298871 0.66057634 0.73701644 
0.25884396 0.84768975 0.46305743 
0.23005037 0.9659099 0.11872179 
0.3388032 0.9235784 0.17948656 
0.22989349 0.9541692 -0.191599 
-0.07539469 0.847688 0.5251102 
0.7887717 0.013891859 0.6145293 
0.4920463 0.6709051 0.5547764 
0.35155207 0.2689764 0.89669555 
0.35643315 0.33045647 0.87393016 
0.32128492 0.80639184 0.49649608 
0.73457617 0.53608817 0.4159417 
0.3765821 0.30190885 0.8758065 
0.25922185 -0.6618257 0.7034137 
0.6432022 -0.08853869 0.7605603 
0.22503303 0.69010437 0.68783444 
-0.43469033 0.21115813 0.87547505 
0.20420367 0.54676837 0.81200075 
0.28029665 0.8597034 0.42701748 
-0.06427915 0.58777595 0.8064663 
-0.3913666 0.3653115 0.8446182 
-0.71489054 0.69583064 0.06892945 
-0.38504782 0.24900742 -0.8886695 
-0.2881939 0.611452 -0.7369334 
-0.0301223 0.4344816 -0.9001769 
0.24453907 0.104965895 -0.96394134 
0.79830766 -0.14693224 -0.5840514 
0.3212492 0.16438295 -0.93261856 
0.92216444 -0.0731856 -0.3798115 
0.9491184 -0.3121754 -0.04148401 
0.47296265 -0.1548451 0.8673693 
0.34962037 -0.6402885 0.68395644 
0.39674455 0.88007563 0.26088464 
0.23156083 0.5759866 0.78397644 
-0.20596164 0.46579218 0.8605913 
-0.2368851 0.656134 0.716501 
-0.17241542 0.09512071 0.9804208 
-0.24929953 0.08795633 0.96442395 
-0.9070091 0.25252414 0.33699572 
-0.3797821 0.5416596 0.7499137 
-0.50703394 0.6474023 0.56902283 
0.34523728 0.867377 -0.35842508 
0.37239483 0.897373 0.23673575 
0.3671285 0.850715 0.37616605 
0.81551003 0.51194775 0.26991278 
0.23664375 0.8009168 0.5500291 
0.4354978 0.8267118 0.35621554 
0.119981475 0.91980606 0.37357917 
0.3158464 0.43037662 0.8455868 
0.73924273 0.55656296 0.3791542 
0.19660965 0.4493476 0.8714537 
-0.11532993 0.58300096 0.8042444 
-0.45671174 0.39908955 0.79507357 
-0.6614366 0.26326114 0.70227855 
-0.2665001 0.7069581 0.6551244 
0.17453185 0.19635592 0.9648747 
0.33507204 0.12518965 0.93383855 
0.006209484 0.40500066 0.9142954 
-0.044692986 -0.40083197 0.9150609 
0.011465088 -0.07061441 0.99743783 
-0.38898045 -0.038829956 0.9204274 
-0.4084533 -0.106725425 0.9065185 
0.098800644 -0.41431883 0.90475327 
-0.03240158 -0.1271586 0.99135303 
-0.30763805 0.45716554 0.83448106 
-0.013684674 0.98388284 0.17828979 
-0.84059304 0.53380823 0.09193565 
-0.38762948 0.9202086 0.054403245 
-0.13760081 0.84979147 -0.50884223 
-0.23145203 0.9728447 0.0017916652 
-0.124014 0.859533 -0.4958059 
0.07411972 0.24550344 -0.966558 
0.81312263 0.31571546 -0.48903516 
0.85913455 -0.11875701 -0.49777985 
0.9800228 0.070888735 0.18582305 
0.70545936 0.40054387 0.5847151 
0.21635474 0.7091648 0.671026 
-0.34132826 -0.16002692 0.9262216 
0.5554845 0.7679633 0.3188567 
0.657488 0.68515176 0.31349102 
0.39125866 0.37061885 0.84235287 
-0.810786 -0.18798411 0.5543358 
-0.76884514 0.110871315 0.6297498 
-0.5227437 -0.013907945 0.85237646 
-0.85650384 -0.36820558 0.3616986 
-0.12622117 -0.77880085 0.6144408 
0.4898532 -0.852685 -0.1815826 
0.24196911 0.24280031 0.9394142 
-0.15218338 0.20537168 0.96677953 
-0.1934004 -0.08478638 0.9774496 
-0.29251584 0.32074252 0.9008656 
-0.4067267 0.27461195 0.8712989 
-0.46047264 -0.018044958 0.88749045 
-0.3325692 0.19192752 0.9233426 
-0.07056874 0.8125421 0.57861507 
0.08167941 0.73999614 0.66763335 
-0.14195652 0.036641408 0.9891945 
-0.50049937 0.17593546 0.8476717 
-0.78655493 -0.0133554 0.617376 
-0.7591234 0.3745672 0.53238255 
-0.38028556 0.20219187 0.9024973 
-0.63398 0.7528966 -0.17668068 
0.4022874 -0.22991483 0.88617384 
-0.15644056 -0.44978774 0.87932783 
-0.68783 -0.2523965 0.6805777 
-0.6313536 -0.082425095 0.7711023 
-0.5710037 -0.17134154 0.80286795 
-0.49519154 -0.027568178 0.86834645 
-0.37961334 0.7765197 0.50290245 
-0.4917821 0.6522045 0.57687056 
-0.7857824 0.6168387 0.045343913 
-0.60855013 0.7023515 0.369282 
-0.31837058 0.020336932 0.94774824 
-0.5490474 0.31384417 0.7746283 
0.04843411 0.53902876 0.8408937 
0.50694877 0.07708735 0.85852224 
0.17944568 -0.37074298 0.91123486 
-0.3496621 -0.12772955 0.928128 
0.5832405 -0.014801353 0.8121647 
0.5421633 0.5981232 0.5901759 
-0.14026147 0.7983931 0.5855726 
-0.011658133 0.048752725 0.9987429 
0.44583544 0.4627015 0.76624936 
0.3618924 -0.35745674 0.8609638 
0.31980976 -0.3249633 0.89001167 
0.20215368 -0.59449536 0.7782732 
0.05391996 -0.115347445 0.9918607 
0.025168931 0.47683626 0.8786317 
0.15819344 0.79722005 0.5825933 
-0.19057468 0.9815731 0.013983458 
-0.15167288 0.8546272 0.49659628 
-0.47676364 0.52788305 0.7028769 
-0.7046085 0.684817 -0.18588322 
-0.8052496 0.3698542 0.46344486 
-0.9174906 0.376949 0.12696649 
-0.18537027 0.975786 0.11610201 
-0.89763147 0.4126025 0.15497413 
-0.5195793 0.69817126 -0.49253872 
0.11930802 0.96087843 -0.24995671 
0.4241975 0.8838857 0.19698383 
0.7118644 0.6462103 0.27506608 
0.50026864 0.35580155 0.7893901 
-0.43984142 0.014204291 0.8979631 
-0.42019895 0.5152209 0.74698085 
-0.4073575 0.5005208 0.7638971 
0.078821465 0.7297044 0.6792045 
-0.058019254 0.79944515 0.5979308 
-0.087608635 0.43182567 0.8976922 
0.22841372 0.8422289 0.4883419 
-0.011745511 0.6877962 0.72580886 
0.21227607 -0.37987992 0.90035003 
0.23587744 -0.45899278 0.8565556 
-0.121510014 -0.59499276 0.79449284 
0.073708355 -0.34122217 0.93708843 
-0.3182839 -0.6544376 0.68586206 
-0.28034157 -0.9573152 -0.0704012 
-0.22480838 -0.8390902 0.49536738 
0.33975127 -0.89817625 -0.2790137 
0.1765387 0.09223668 -0.9799625 
0.9776985 0.08406165 -0.19245604 
0.7311286 0.4273346 0.5318236 
0.8196619 0.12764391 0.5584455 
0.4680852 -0.24278441 0.84967756 
-0.02891399 -0.18853058 0.9816416 
-0.01516588 -0.19488974 0.98070794 
-0.05024589 0.14339922 0.9883886 
-0.1825986 0.27839962 0.94294834 
0.252057 0.53579766 0.8058463 
-0.3107653 0.28705543 0.9061039 
-0.7302187 0.4086019 0.5475629 
-0.9561223 -0.2844792 0.07001377 
-0.97088474 0.13339853 0.19896692 
-0.9839318 0.023511479 0.17699017 
-0.29513696 0.47823387 -0.82715577 
-0.3333231 0.79004115 -0.5145201 
-0.013115779 0.16230246 -0.9866539 
0.073699996 -0.03579155 -0.996638 
0.13215393 -0.47202492 -0.87162375 
0.8931944 0.19808717 -0.4036895 
0.8828357 0.052987847 -0.46668363 
0.8849271 -0.1607902 0.43709332 
0.5985998 0.54202694 0.5898179 
0.33050963 0.89974916 0.28498217 
0.5342995 0.55272776 0.6395438 
0.45368066 0.3069376 0.8366381 
0.30814427 0.7464736 0.5897663 
0.517092 0.76553327 0.38285077 
-0.10285185 0.85965616 0.50041264 
-0.3773898 0.5472562 0.7470527 
-0.4740988 0.31080994 0.8237885 
-0.23608293 0.69627047 0.6778439 
-0.7180247 -0.20602259 0.6648272 
-0.61254185 -0.27269062 0.7419113 
-0.3726463 -0.14576553 0.9164536 
0.31552982 0.12978283 0.9399986 
0.6833988 0.079844676 0.725666 
0.40264207 -0.73167574 0.5500274 
0.50727147 -0.7145832 0.4817121 
0.60057586 -0.73494345 0.3149078 
0.2963942 -0.54087245 0.7871515 
-0.09073764 -0.539292 0.8372162 
-0.1558635 0.077440865 0.98473835 
-0.1023395 -0.35883763 0.9277727 
-0.4618203 -0.028431827 0.8865177 