# OOMMF: rectangular mesh v1.0
# Segment count: 1
# Begin: Segment
# Begin: Header
# Desc: Time (s) :  2.199999999999996e-07
# Title: m
# meshtype: rectangular
# meshunit: m
# xbase: 2e-09
# ybase: 2e-09
# zbase: 5e-10
# xstepsize: 4e-09
# ystepsize: 4e-09
# zstepsize: 1e-09
# xmin: 0
# ymin: 0
# zmin: 0
# xmax: 1.024e-06
# ymax: 1.024e-06
# zmax: 1e-09
# xnodes: 256
# ynodes: 256
# znodes: 1
# ValueRangeMinMag: 1e-08
# ValueRangeMaxMag: 1
# valueunit: 
# valuemultiplier: 1
# End: Header
# Begin: Data Text
0.20284852 -0.7515436 -0.6277219 
0.68233603 -0.68328214 -0.25989065 
0.7500635 -0.64068425 -0.1640994 
0.43874678 -0.06655131 0.89614296 
0.35294086 -0.6399497 0.6825667 
0.71896565 -0.39568084 0.5714238 
-0.017866576 0.9187421 0.3944538 
-0.5305778 0.7924188 0.30093136 
0.3394297 0.8939339 0.29269406 
-0.01313712 0.908031 0.41869712 
-0.07221397 0.7622851 0.6432002 
0.3929119 0.8624325 0.31910923 
-0.34168378 0.2723539 0.8994863 
-0.39946392 -0.3668481 0.84014946 
0.69399023 -0.16560042 0.70068115 
0.18678935 0.08079126 0.97907233 
0.18114349 0.28434783 0.9414528 
-0.25056976 -0.5742919 0.779361 
-0.64592314 0.023967052 0.7630262 
0.10980062 -0.13141277 0.98522824 
0.95012 0.22551471 -0.21544209 
0.4383169 0.40738732 -0.8011953 
0.7115896 -0.64522725 -0.2780685 
0.96027595 -0.2028403 0.19164021 
0.7493344 -0.01332878 0.66205764 
0.27312222 -0.031833224 0.9614525 
-0.100485764 0.6749463 0.7309926 
0.54268146 0.83572483 -0.08402973 
0.08252847 0.8140451 0.5749085 
-0.5750235 0.4674639 0.67143553 
-0.30929002 0.88817275 0.3398369 
-0.017144663 0.47712892 0.87866616 
0.7181751 -0.16651 0.675647 
-0.5779827 -0.72033924 0.38346776 
-0.05957423 0.98241526 0.17694959 
0.4696446 0.694897 0.544566 
-0.29955125 0.3944299 0.8687313 
0.23677716 0.25552988 0.93735856 
-0.42649105 0.0727078 0.9015648 
-0.39325118 -0.3974666 0.82908005 
0.48037192 0.27541536 0.8327001 
-0.3232193 -0.6267197 0.7090499 
-0.2829269 -0.31256816 0.90678203 
-0.82416105 -0.5663187 -0.006468452 
-0.0014279042 -0.39495012 0.9187015 
0.038490165 -0.33329496 0.9420367 
-0.37655163 0.33856297 0.86231315 
-0.53349245 0.7135207 0.4541741 
-0.14283353 0.71771777 0.6815277 
-0.42354748 0.86143565 0.28024292 
-0.8790563 0.47539562 -0.035482693 
-0.19854671 0.9559845 0.21603923 
-0.51281756 0.85844326 0.009659428 
-0.071417 0.74581134 -0.66231793 
0.2756496 0.71370053 -0.64393234 
-0.08634001 0.5448222 -0.83409494 
0.27630872 0.8657468 -0.41729617 
-0.08709178 0.9235964 -0.3733426 
-0.010977412 0.74443877 -0.6676006 
0.62275535 0.09288175 -0.77688396 
0.7384622 0.6454593 0.19507922 
0.54653287 0.7256307 0.41804552 
0.9016876 0.41875932 -0.1077031 
0.69998556 0.5140204 0.49578568 
-0.59122676 -0.21475017 0.77738875 
-0.483357 -0.27438086 0.8313129 
-0.7638379 -0.63376564 0.12203627 
-0.63479984 -0.14674543 0.75861394 
-0.1897593 0.46768466 0.86328596 
-0.06236019 -0.10941414 0.99203825 
-0.38311917 -0.1101044 0.91711336 
-0.38351586 0.04031024 0.92265415 
-0.8783093 0.31016368 0.36382887 
-0.68878263 0.5600144 0.46039382 
-0.7461497 0.19003883 0.63807994 
-0.47090974 0.8818477 0.024266414 
-0.13771376 0.8558777 -0.49850622 
0.12655717 0.55078644 -0.8249956 
-0.4529665 0.865186 -0.2151158 
-0.23538466 0.36334524 -0.9014291 
-0.0009337219 -0.42296267 -0.9061466 
0.2749407 -0.23623988 -0.9319863 
0.8307731 0.036510944 -0.5554126 
0.63709414 0.107274905 -0.76328444 
0.8389828 0.29944462 0.4543576 
0.50432175 0.6834241 0.52781737 
0.37024015 0.77269644 0.5156185 
-0.6804478 0.6700284 0.296737 
-0.55642617 0.05928666 -0.8287793 
-0.3498304 0.75779325 -0.55078864 
-0.1843421 0.4813262 -0.8569383 
-0.7169574 0.64078677 -0.274526 
0.0691675 0.9926589 -0.09921857 
-0.39952782 0.8158366 0.4180766 
-0.39735967 0.8876096 0.23292595 
0.14784414 0.94639313 0.28719714 
-0.59470445 0.67608947 0.43500534 
-0.6895873 0.7240389 0.015397412 
-0.28031754 0.59328187 -0.7546117 
0.72867364 0.13814342 -0.670784 
-0.76520437 0.628644 0.13881321 
-0.5946598 0.49599484 -0.6327472 
0.25300568 0.4476395 -0.85767543 
0.25630495 -0.5651805 -0.7841421 
0.7044025 -0.69335586 -0.15190366 
0.45013952 0.19078621 0.87233895 
-0.385278 0.5995787 0.70147437 
-0.6387641 0.31850812 0.7003807 
0.34062815 -0.3742969 0.8624815 
-0.8545255 0.50318456 0.12880813 
0.386622 0.90585995 0.17303541 
-0.05924921 0.81208897 -0.580518 
0.5011775 0.80745536 -0.3111865 
0.56360537 0.696838 -0.44358286 
0.49061543 0.67451787 -0.55165404 
0.5653832 -0.1409119 -0.8127027 
0.8732965 -0.4203794 -0.24624056 
0.7154952 0.47410342 0.51312053 
0.21605107 0.82985 0.5144617 
0.29084745 0.74974775 0.59437877 
0.1253116 0.9723831 0.19689603 
0.10300715 0.90614474 -0.41023338 
-0.0551321 -0.03175984 -0.9979739 
0.27729017 0.569536 -0.7737822 
0.30505085 0.71435547 -0.62979394 
0.1619531 0.97613055 0.14470787 
-0.17002334 0.84468603 0.50754064 
-0.011053915 0.5872301 0.80934453 
0.9835862 0.07857634 0.16243178 
0.87864923 0.3097372 0.36337095 
0.72625893 0.57310605 0.37960166 
0.6155671 0.40740442 0.6746102 
-0.13606746 0.80531996 0.5770143 
0.36728308 0.46624267 0.8048112 
0.6741209 0.35812163 0.6459953 
-0.64681196 0.19702673 0.73675966 
-0.47049314 0.64405465 0.6031831 
-0.24629529 0.92105705 0.30165 
-0.61410534 0.68147093 -0.3980856 
0.5055238 0.8583985 -0.08716482 
0.21519941 0.95136184 0.22045375 
0.26126438 0.9611383 -0.089186504 
0.29866272 0.9542187 -0.016348392 
0.5411286 0.6170827 0.5713045 
0.34445205 0.85839283 0.38015088 
-0.3629575 0.5072927 -0.78161114 
-0.2877052 0.6167132 -0.7327282 
0.22531137 0.9667638 -0.12084145 
0.45324114 0.7911448 0.41068524 
-0.4284878 0.7277377 0.5355334 
-0.34548065 0.3768598 0.85942996 
-0.012796307 -0.5166434 0.856105 
-0.35064843 0.22806942 0.90831167 
0.4108722 0.30813593 0.85804224 
-0.6372656 0.21490113 0.7400744 
-0.81213677 -0.463879 0.35390705 
-0.9122467 -0.022249935 0.40903664 
0.020081637 0.90486544 0.42522386 
0.04367088 0.34039146 0.9392691 
0.12818912 0.4343242 0.89158857 
0.4234928 0.84907657 0.31578958 
-0.013722004 0.9255781 0.37830818 
0.39948183 0.4213296 0.8141841 
-0.19412646 0.647791 0.73666936 
-0.31263065 0.6731137 0.670209 
-0.7118363 0.5555073 0.42976838 
-0.8066398 0.36614114 0.4639752 
-0.5798215 0.8026241 -0.14000572 
-0.65607 0.754251 -0.026031364 
-0.7518721 0.42383435 -0.50502735 
0.4464944 0.83704895 0.316215 
0.4954733 0.45928824 0.7372656 
-0.2623784 0.8885059 0.37645033 
0.17542507 0.97548395 0.13288006 
-0.54053164 0.39570868 0.74245554 
-0.86802804 0.19095047 0.4583289 
-0.49192163 0.510463 0.7052947 
-0.16235337 0.599066 0.78406715 
-0.53049326 0.8222461 0.20612715 
-0.34832874 0.88453406 -0.31026876 
0.30192176 0.9398053 -0.16002867 
-0.39761156 0.33190492 -0.85542053 
0.3046337 -0.2580826 -0.9168379 
0.17546344 0.42197743 -0.8894648 
0.54706836 0.21360481 -0.80937576 
0.35260305 0.3265148 -0.8769603 
0.98163927 0.19074668 0.00011399558 
0.12165694 0.94023675 0.3180479 
0.8096907 0.47527656 0.34425747 
0.81270504 0.45114353 0.3687549 
0.6690753 0.03973777 0.74213153 
0.7382485 0.66564184 -0.10913352 
0.29098874 0.110357195 0.9503404 
0.3275644 -0.5864203 0.7408191 
-0.3863102 -0.1900465 0.90257794 
-0.5984229 0.49166977 0.6325748 
-0.7688902 0.14216861 -0.6233747 
0.104943305 0.9520851 0.28726444 
-0.42944875 0.74536157 0.50991166 
0.2674249 0.88046235 0.39149705 
-0.79348016 0.03417938 0.6076356 
-0.06342373 0.37969217 0.9229362 
-0.6112833 0.59399897 0.5229705 
-0.09919275 0.7842962 -0.61240536 
0.08052019 0.8009909 -0.59323704 
-0.13951892 0.6718738 -0.72740644 
-0.19179766 0.8314693 -0.521414 
-0.48045713 0.8616819 -0.16329488 
0.41432184 0.8959473 0.16004986 
0.5122536 0.7861695 -0.3457364 
0.2778835 0.945896 -0.16751565 
0.46632656 0.87713903 -0.11474605 
0.84725845 0.5235656 -0.08962312 
0.72884184 0.68468064 0.0014129307 
0.1712485 0.17417124 0.96971047 
0.61878425 -0.2290421 0.75142914 
0.27723768 -0.0058616986 0.96078354 
0.13483408 -0.23376872 0.96289766 
-0.19162433 0.27821848 0.9412091 
0.08183765 0.1359593 0.98732865 
-0.5009122 0.37949425 0.7778631 
-0.5179864 0.5310878 0.670549 
-0.87524897 0.38239542 0.29616407 
-0.4654872 0.78453195 0.40967226 
-0.6824297 0.7297415 -0.042037435 
-0.69166815 0.5068881 0.5144508 
-0.6515882 0.15675265 0.74220043 
-0.13564008 0.017836709 -0.99059767 
-0.12628435 -0.21236257 -0.9689967 
0.36900115 0.57274735 -0.73198277 
-0.27463648 0.9094491 -0.31221333 
-0.29678366 0.9480866 0.11424231 
0.2562522 0.936923 -0.23771857 
0.644908 0.7629519 -0.044698592 
0.027097048 0.98983043 -0.13964762 
0.9651173 0.20063505 -0.16820921 
0.7003482 0.692807 -0.17184578 
0.7026069 0.6505503 -0.28831902 
0.9456303 -0.16885163 -0.27797928 
0.092238456 0.72466904 -0.682896 
0.35386384 0.76134855 -0.5432577 
0.11164807 0.9569104 -0.26806194 
0.43222708 0.834387 0.34202072 
-0.042942017 0.9953154 0.08662199 
-0.43584716 0.8436097 -0.31362408 
-0.27854806 0.9596281 -0.0390522 
-0.3151874 0.75443524 0.5757469 
-0.92569053 -0.012053325 0.37808976 
-0.97686565 0.21202546 0.027907845 
-0.68582976 0.669661 0.28494158 
-0.5145264 0.7894893 0.3346179 
-0.4882728 0.36172563 0.7941941 
-0.34203362 0.51915014 0.78326005 
-0.55488545 0.6628431 0.5027337 
-0.7432692 0.5806079 0.33233333 
-0.79821664 0.11088424 0.59207684 
0.56118053 -0.82372975 -0.080905125 
0.5365693 -0.84348047 -0.02518262 
0.80646974 -0.5040873 0.3090352 
0.78407997 -0.17041565 0.5968057 
0.56495684 -0.80854535 -0.16455457 
0.799 -0.2402638 0.5512463 
0.5806795 0.5140343 0.63133216 
-0.013714916 0.5751665 0.81792146 
0.19494201 0.32209668 0.92641854 
-0.038194466 0.5989388 0.7998835 
-0.6373656 0.67825 0.36570778 
-0.21038371 0.74658054 0.63115466 
0.45335034 0.1159715 0.8837557 
0.0012588467 0.014357575 0.99989617 
0.23277521 -0.30895728 0.9221504 
0.14947832 0.058735747 0.987019 
0.7221993 -0.0147497635 0.6915278 
-0.45167008 0.41049755 0.7921401 
-0.3710779 0.4330293 0.82145417 
0.052110944 0.17141823 0.9838193 
0.95587254 0.29190877 0.033122513 
0.9053213 -0.005273491 0.42469478 
0.9808671 -0.12677947 0.14773892 
0.8597559 -0.43293992 0.27089256 
0.6054251 0.48980024 0.6273407 
0.31880012 0.029612785 0.94735926 
-0.061625827 0.16295743 0.98470664 
-0.34087566 0.92768216 0.15234688 
-0.37112048 0.89140505 0.26012802 
-0.95931906 0.19727585 0.20196342 
-0.50284934 0.551866 0.6652718 
0.3674788 0.45571926 0.8107277 
0.50351244 0.2924338 0.81299305 
-0.30575818 0.25496662 0.91733533 
0.36307937 0.86627424 0.3431362 
0.79827875 0.42640844 0.42535487 
0.058697533 0.6023281 0.7960877 
0.229944 0.6579774 0.7170715 
0.23287247 -0.058061406 0.97077256 
-0.48545 -0.21744859 0.8467906 
-0.7984707 -0.14982386 0.583093 
-0.53325105 -0.5670332 0.6277872 
-0.8045395 -0.532448 0.26308793 
-0.823774 0.16242932 0.54315126 
-0.08397164 -0.1354082 0.9872252 
0.2257354 -0.6579855 0.71840006 
0.24635085 0.44608212 0.86041975 
-0.18807064 0.46846157 0.86323416 
-0.42588645 0.5352559 0.72946686 
-0.79983413 0.547864 0.24517421 
-0.6391549 0.6939908 0.33144814 
0.013253924 0.8707286 0.49158534 
-0.24830857 0.8188521 -0.51751727 
-0.41054735 0.8855648 -0.21731563 
-0.809062 0.45207778 -0.37555882 
-0.028246326 0.86582774 -0.49954438 
0.49368924 0.8030244 -0.3338004 
-0.0028568595 0.94001836 0.34111223 
-0.38445643 0.7927476 0.4730164 
-0.115874946 0.99189365 -0.05215472 
-0.028696962 0.5502247 0.83452344 
0.13720308 -0.42345738 0.89546597 
0.70925474 0.025745241 0.7044821 
0.20053774 -0.50859785 0.83732486 
0.64695233 -0.65418935 0.39177683 
0.32431304 -0.851522 0.41198453 
0.3038438 -0.44331732 0.84329635 
-0.04758486 -0.3698384 0.92787683 
-0.5821446 0.044784494 0.8118511 
-0.113790974 -0.16691755 0.9793825 
0.35112235 0.27334613 0.8955418 
-0.29119593 -0.12160509 0.94890314 
-0.29280108 0.04796395 0.95496964 
-0.4898983 -0.0770663 0.86836666 
-0.114999205 -0.05370739 0.99191266 
-0.47312334 0.63684475 0.60875535 
-0.2601228 0.9648181 0.038240377 
-0.6549764 0.71529776 0.24362884 
-0.49493778 0.8684637 -0.02841795 
-0.396527 0.62208235 -0.67511475 
-0.730456 0.14934766 -0.66643035 
0.4470696 0.2417562 -0.86121017 
0.42185554 0.53163344 -0.7344412 
0.63713497 0.2742905 -0.72029424 
0.5769335 0.4024946 0.7107362 
-0.12546167 0.82790947 0.5466492 
-0.29906994 0.24812666 0.9214068 
-0.07660541 0.9964424 -0.035132453 
-0.37363395 0.8642547 0.33684027 
-0.5207772 0.53911066 -0.66192967 
-0.8439452 0.45900333 0.27761942 
-0.69014364 0.6993979 -0.18586104 
-0.9064445 0.42219487 -0.010484448 
-0.28604215 0.899194 0.33110443 
0.027235162 -0.1708381 0.9849227 
-0.41163215 0.7030284 0.5799225 
-0.926937 0.24418859 0.28488588 
-0.8798996 -0.01461087 -0.47493505 
-0.058213416 0.43492 -0.8985855 
0.2736029 0.427321 -0.86170655 
-0.20981345 0.47043297 -0.8571297 
-0.07711665 0.6408543 -0.7637794 
-0.5765097 0.5863778 -0.5690323 
0.18607952 0.74920607 -0.6356609 
0.8543942 0.36665434 -0.36820558 
0.25677645 0.49142998 0.83220345 
-0.120078586 -0.05646442 0.9911574 
0.1774307 -0.14633292 0.9731932 
0.4124233 0.22146928 0.88366187 
-0.16720076 0.71236247 0.6816038 
0.46169126 0.7079088 0.534515 
0.70786375 0.63862354 0.30180958 
0.6579296 0.63457924 -0.4055095 
0.18176866 0.88311815 -0.4325074 
0.075457685 0.67835146 -0.7308526 
0.5947363 -0.6063945 -0.5278016 
0.92178947 -0.16212605 0.35216382 
0.84599805 0.45732954 0.27411127 
0.17179391 0.90576917 0.38738763 
-0.19356214 0.8125486 0.5498167 
-0.04020319 0.9607864 0.27435976 
0.07999231 0.82816195 -0.55475134 
0.3472425 0.8893621 -0.29741845 
0.4042464 0.908742 -0.10379269 
0.65943575 0.42360687 -0.6210489 
0.69105434 0.71663404 -0.09423171 
-0.3718488 0.9255293 0.07158299 
-0.42661622 0.71086174 0.5591728 
0.49975392 0.38827422 0.7742669 
0.6831752 0.54763997 0.48307583 
0.26825926 0.78081715 0.56423545 
0.14706665 0.18841861 0.9710149 
0.028179977 0.20160872 0.9790607 
0.38246894 0.060346194 0.9219956 
0.60376304 0.32121018 0.729585 
-0.9010871 0.4308763 -0.04886329 
0.23834576 0.961381 -0.13761456 
0.72436696 0.4450006 0.52656156 
0.3718846 0.8035254 0.4648106 
-0.19264267 0.9137194 0.35777894 
0.24310648 0.78272676 0.5729207 
0.9402843 0.34007376 0.014671949 
0.77074295 0.40933862 0.48825932 
-0.15069236 0.7085532 0.68937963 
-0.45128495 0.88988936 -0.06662586 
0.18117164 0.95952165 -0.21562731 
-0.8310157 0.54907256 0.08906428 
-0.53249365 0.30478603 0.7896557 
-0.026097938 0.8611915 0.5076102 
-0.09204621 0.9818593 -0.16577026 
-0.8488586 0.2419634 0.46999258 
-0.44331038 -0.24187188 0.8631188 
-0.6815116 -0.25904596 0.68442476 
-0.46996504 -0.2033662 0.8589383 
-0.59265804 -0.17989233 0.7851084 
-0.39430588 -0.55623066 0.7315261 
-0.49006274 0.5220855 0.6980439 
-0.61511636 0.09440466 0.78276414 
-0.35470554 0.031439185 0.9344493 
-0.32747775 0.74020666 0.5872415 
-0.0006218467 0.82909095 0.55911356 
-0.04718072 0.7851317 0.6175293 
-0.12204103 -0.1363317 0.9831174 
0.19237769 0.53356814 0.82358724 
-0.75479704 0.6484823 0.098752685 
-0.535149 0.6754303 0.5073555 
-0.5645656 0.7420788 0.3613652 
-0.4667013 0.80804 0.35952902 
-0.8571947 0.37266448 0.35544127 
-0.8171914 0.53442466 0.21584369 
-0.15177381 0.97637075 0.15383443 
0.25959146 0.94428194 0.20234573 
0.026806816 0.7704163 0.6369774 
0.02412157 0.7497576 0.6612728 
-0.3672759 0.69528615 0.61780715 
-0.18160045 0.7097297 0.68066525 
-0.5604481 0.45370016 0.69285935 
-0.6778128 0.64151895 -0.35919818 
-0.49756998 0.82804066 -0.25840452 
-0.39382756 0.9082258 -0.1415127 
0.5072488 0.52941865 -0.6800107 
0.73146945 0.4605913 -0.50280035 
0.35002592 -0.4984799 -0.79309505 
-0.38130227 0.46475208 -0.7991335 
0.60984856 0.27290282 -0.744049 
0.7542513 0.6146088 -0.23099992 
0.8647021 0.31141675 -0.39409375 
0.53735244 0.79285806 0.28745195 
0.2352879 0.10845718 0.9658554 
-0.20446174 0.43164837 0.8785642 
0.9850129 0.13457619 0.107884586 
0.5100049 0.6225789 0.5935408 
0.8711653 -0.4121533 0.26683488 
0.7756569 0.14326589 0.61467993 
0.087878086 0.27379718 0.9577644 
0.13931188 0.61792576 0.7737958 
-0.27925673 0.91515917 0.29068774 
-0.007258779 0.89509076 0.4458251 
-0.5630457 0.63365227 0.53053224 
-0.13314342 0.937827 0.3205517 
-0.31071636 0.93279153 -0.18263431 
-0.5433396 0.81618875 0.19651462 
-0.7601271 0.6444979 -0.08263908 
-0.64969987 0.7124652 -0.26511022 
-0.45694408 0.80773234 -0.3725192 
-0.28546807 0.9549956 0.08056939 
-0.4363685 0.8208175 -0.36856648 
-0.43690968 0.76575804 -0.471937 
-0.113902375 0.9262567 -0.35927007 
-0.25809643 0.91481894 -0.31063268 
-0.48409873 0.8609058 0.15649195 
0.00089247455 0.97131413 0.23779868 
0.47842622 0.87801605 0.014009764 
0.34013456 0.7403822 0.57977813 
-0.20040472 0.778389 0.59493583 
0.2131463 0.12833218 0.96855545 
-0.60505676 -0.24236158 0.7583979 
0.16774641 -0.5684442 0.8054393 
0.32482132 -0.53297746 0.78129774 
-0.30875754 -0.04485352 0.95008266 
-0.15026274 0.13949624 0.97875535 
-0.30914792 0.017843055 0.9508467 
-0.62217224 0.7651563 0.16564259 
-0.47258782 0.31243458 0.8240421 
-0.520507 0.7212439 0.45703366 
-0.8562304 0.5164487 -0.012260224 
-0.8246503 0.16003804 0.542531 
-0.7136884 0.6921676 -0.10748475 
0.15207018 0.42885122 -0.89048386 
0.090363376 0.7181909 -0.68995386 
0.40956265 0.85470015 0.31897694 
0.14217623 0.86171484 0.48706624 
-0.28688854 0.78957134 0.5424686 
0.14026481 0.9735205 -0.18050934 
0.4505698 0.84151864 -0.2980489 
0.98742807 0.1410373 0.07137387 
0.97625047 0.17627548 0.12594457 
-0.084271625 0.93491817 0.34471214 
0.27290556 0.83184147 0.48328286 
-0.41391048 0.89816046 -0.14827682 
0.78218246 0.41940632 0.4607483 
0.7633804 0.5067669 0.4005467 
0.80680525 0.36265507 0.466419 
-0.26208812 0.44369277 0.8569987 
-0.3948285 0.9068875 0.14719225 
-0.5744883 0.48479557 0.6594972 
-0.9328016 0.14546625 0.32972842 
-0.9454887 -0.31145287 0.09512307 
-0.93197036 0.1290873 0.338774 
-0.99004793 0.13354951 0.044382725 
-0.63699615 0.7299337 0.24785656 
-0.8901112 0.42392787 0.16729364 
-0.46765345 0.86317617 0.19033433 
-0.85638386 0.40429282 0.32117608 
-0.87900585 -0.14185764 0.45521998 
-0.9280253 -0.37247583 0.0055581727 
0.20672883 -0.8493025 0.48574546 
0.7367797 -0.65462106 0.16919531 
0.09993342 -0.90402883 -0.41562614 
0.5607098 -0.809567 0.17379807 
0.7148029 -0.52183783 -0.4655556 
0.24172105 -0.13942727 0.9602765 
0.62438357 0.07948625 0.77706313 
0.11984631 -0.15142961 0.9811758 
-0.038325254 0.10324377 0.9939175 
0.5811995 -0.47590747 0.6600904 
-0.2535263 0.38972133 0.8853484 
0.030928094 0.031258464 0.99903274 
-0.49052176 0.17781422 0.8530947 
-0.07615248 0.2412318 0.9674751 
-0.3630958 -0.6513348 0.66627663 
-0.28907543 -0.15503396 0.9446692 
-0.29452205 0.5792183 0.7601071 
-0.466132 -0.40179828 0.7882127 
-0.3811412 -0.19455725 0.9038136 
0.21058524 -0.7566779 0.61894464 
0.9284955 -0.15320897 -0.338265 
0.9264502 -0.3764174 -0.00036135744 
0.935457 -0.2609959 0.23833063 
0.5015004 -0.41572043 0.7587317 
0.52145064 -0.38742772 0.76025593 
0.51209456 0.39082512 0.7648627 
0.37234715 0.38203105 0.8458191 
0.40334913 0.786545 0.46760717 
-0.08448817 0.7892994 0.6081679 
0.10800996 0.85910344 0.5002753 
-0.48377055 0.24250782 0.84092575 
-0.18680514 0.5261529 0.8296187 
-0.25374842 0.28359783 0.9247616 
-0.08146024 0.3730967 0.92420954 
0.101940155 0.7174013 0.68916154 
-0.34462255 -0.2909554 0.8925135 
-0.2654625 0.24708132 0.93192303 
-0.68119854 0.098376565 0.7254589 
0.747172 -0.5701778 0.3415134 
-0.3545203 -0.47412422 0.8059291 
-0.76856136 -0.5428458 0.33857358 
-0.6353879 -0.3621048 0.6820282 
-0.7438538 -0.6573047 0.12096373 
-0.6887085 -0.6430938 0.33483 
-0.4188737 -0.89228636 -0.16843401 
-0.19602795 -0.6300683 0.75139016 
0.31274402 -0.052107647 0.94840705 
0.10047674 0.08982166 0.9908766 
-0.3952342 -0.07893898 0.91518223 
-0.24722824 0.31096777 0.91770214 
-0.47645453 0.39251715 0.7867156 
-0.3279468 0.9440732 0.03430301 
-0.14476046 0.7315785 -0.6662112 
0.18820466 0.8853998 -0.42502505 
-0.6632624 0.6821893 -0.30773506 
0.58040124 0.81291926 -0.04792465 
0.6842817 0.7046472 0.1876989 
0.91458213 0.3489638 0.2043619 
0.9360627 0.1749001 0.3052813 
0.35877064 0.34467477 0.8674578 
0.7706106 0.33672306 0.5410887 
0.31414184 0.43401638 0.8443605 
0.39023083 0.282314 0.87636673 
0.26885664 -0.90435 0.33146212 
0.06449825 -0.85461026 0.5152487 
0.48056984 -0.8403516 0.25072283 
0.2487404 -0.3282926 0.9112367 
0.19246504 -0.71041846 0.6769512 
-0.15633188 -0.25159073 0.9551244 
-0.36085355 0.1343921 0.92288876 
0.04843041 0.2483959 0.9674472 
0.26865435 -0.2770552 0.92253196 
-0.30257988 0.28550643 0.9093578 
-0.33230165 0.23011063 0.91467196 
-0.2970146 0.6162459 0.72939926 
-0.38618648 0.095634975 0.9174498 
-0.28851432 0.39241138 0.87336874 
-0.806978 0.5905669 0.0041541792 
-0.99443746 0.033962984 -0.09970375 
-0.81144106 0.33146474 -0.48134682 
-0.77599293 0.051732738 -0.6286165 
0.001063256 0.9141007 -0.4054858 
0.5383149 0.6450303 -0.54235876 
0.90201116 0.07241271 -0.42559642 
0.8127383 -0.4147777 0.40916482 
0.12454181 0.18145187 0.97548175 
-0.28119132 -0.0013178713 0.9596509 
-0.49553016 0.74948746 0.438997 
-0.32379106 0.7866863 0.52562726 
-0.4751128 0.79877865 0.36908057 
-0.29965845 0.6236916 0.7219513 
-0.51283795 0.65643555 0.55325377 
-0.5668673 0.7818306 0.25961968 
-0.436404 0.61109483 0.6603899 
-0.3429283 0.22465727 0.9121017 
-0.26121655 0.65335464 0.7105587 
-0.68971175 0.7058955 0.16127388 
-0.5077849 0.705991 -0.49369135 
0.19179761 0.93411165 -0.30108005 
-0.48357847 0.5016348 -0.7172966 
0.2550237 0.29865474 -0.91965663 
-0.3921922 0.14501232 -0.9083814 
-0.38325816 0.18761484 -0.90438586 
0.8262063 0.29386243 -0.48065376 
0.9524468 0.13555539 0.27289173 
0.2137684 0.38325298 0.89856565 
-0.41054723 0.12169445 0.9036822 
-0.5189827 -0.27794516 0.8083338 
-0.3732674 -0.28970468 0.8813301 
-0.11476155 0.035782248 0.99274844 
0.842648 -0.21205683 0.49495074 
0.8037485 0.34612724 0.48392603 
0.112673394 0.99362594 -0.003486479 
0.9699593 0.23485282 -0.06342787 
0.9337864 0.31913683 0.16184808 
0.6968145 0.23596989 -0.67732406 
0.7664372 -0.33368123 0.5488452 
0.6359811 0.496713 0.5905965 
0.16765738 0.8350644 0.52398324 
-0.26912403 0.963081 0.006877901 
-0.077588305 0.8970105 0.43514624 
0.65026784 0.7560654 -0.0742755 
0.45415208 0.66862667 0.58879906 
-0.13043202 0.76776284 0.6273179 
-0.06736956 0.87746006 0.4748949 
-0.45901906 0.3521568 0.8156515 
-0.73077816 0.24180038 0.6383541 
-0.23923372 0.89836395 0.36838797 
0.039397355 0.41341957 0.90968794 
0.40399733 0.42927042 0.8077828 
-0.3473916 -0.16311233 0.9234249 
-0.3704775 -0.6925958 0.6189165 
-0.22803251 -0.5539329 0.8007243 
0.51544565 -0.35886088 0.77816105 
0.38437873 0.48603308 0.78487253 
-0.16746688 0.42192888 0.8910281 
0.630854 0.7445678 0.21827076 
0.6063407 0.77594227 0.17396736 
-0.20839433 0.5463041 0.81124824 
0.10204842 0.48469114 0.8687121 
-0.084111065 0.5852992 0.806443 
0.2656464 0.8720587 0.41103023 
0.39365423 0.567631 0.7230708 
0.18848021 0.7539581 0.62930316 
-0.028137652 0.7479425 0.6631668 
0.20074499 0.8820345 0.42628258 
-0.43588635 0.55125976 0.71141815 
-0.78441936 0.56555164 0.25463262 
-0.64471215 0.20766938 0.73567635 
-0.8664549 -0.19884415 0.45794857 
-0.8783307 -0.41317612 0.24045964 
-0.18050037 -0.6758627 0.7145833 
-0.2224934 -0.1964257 0.95494175 
-0.64219 -0.345726 0.68415326 
0.112042755 -0.18958433 0.9754508 
-0.48763308 -0.32353088 0.8108895 
-0.00030064982 0.41507417 0.9097876 
0.19010767 0.26943082 0.9440689 
-0.31649765 -0.17553826 0.93221 
0.2158866 0.61626285 0.7573725 
0.6300426 0.26450163 0.73012686 
0.40819225 0.43760985 0.8011721 
0.39938295 -0.25551158 0.8804585 
0.5468589 0.44028315 0.7121068 
0.24348488 0.8246943 0.5104847 
-0.39162385 0.8481065 0.356856 
-0.71831864 0.66067237 0.2180146 
-0.029275086 0.9667713 0.25396112 
-0.104864165 0.72078305 0.68518275 
0.12701742 0.5257138 0.84112525 
0.19279802 0.67061424 0.7163139 
0.27055314 0.64528745 0.71442646 
0.008043365 0.7524482 0.6586024 
0.032329362 0.65149224 0.7579662 
-0.40141967 0.6061554 0.6866134 
-0.22226411 0.32338795 0.9197929 
-0.9580145 -0.1151947 0.2625614 
-0.9090358 0.4117676 0.064041495 
-0.7557516 0.54280716 -0.36633295 
-0.9101347 0.34491354 -0.2295423 
-0.8130638 0.5809893 -0.037133228 
0.39087272 0.5037554 -0.7703564 
0.24319252 0.07012887 -0.9674396 
0.38811076 0.403703 -0.828489 
0.71563494 0.6970854 -0.04403092 
-0.23874079 0.96413153 -0.11598805 
0.63144296 0.72223496 0.28223494 
0.4854612 0.79502857 0.36367163 
0.6752876 0.6184409 0.40189248 
0.34310192 0.431953 0.834085 
0.7255105 0.4748534 0.49814546 
0.4627409 0.4021568 0.79002595 
0.64183825 0.384267 0.66361326 
0.28985038 0.1609203 0.94344664 
0.46879655 0.17539924 0.8657164 
-0.31156877 0.41781956 0.8534353 
-0.420207 0.5283196 0.73777 
-0.12942675 0.31380177 0.94062597 
-0.24485824 0.27637556 0.9293337 
-0.45841017 0.5567864 0.69271135 
-0.009035405 0.9144416 0.40461725 
-0.282793 0.8076467 0.5174313 
-0.8860422 0.46280184 0.027272148 
-0.37757927 0.9025202 0.2071024 
-0.39531273 0.78772974 0.4724508 
-0.023834955 0.5846117 0.81096303 
-0.23761418 0.608948 0.75678396 
-0.897481 0.4143485 0.15113993 
0.19236109 0.87050784 -0.45300493 
-0.2957561 0.93578476 0.19192524 
0.08256009 0.70555705 0.70382744 
0.8671488 0.37267032 0.33040863 
-0.06340141 0.2647966 0.9622178 
-0.17850472 0.79806566 0.5755235 
-0.26694408 0.5381627 0.7994509 
0.64496815 0.08382761 0.759598 
-0.61941147 -0.50519335 0.60092366 
-0.41376808 -0.87230694 0.26053163 
0.60108143 -0.5645117 0.56570995 
0.28955644 -0.10902982 0.95093095 
0.026280386 -0.19996722 0.97945005 
-0.0150697455 0.26626828 0.96378124 
-0.7457491 -0.012258833 0.66611415 
-0.5032211 0.34537876 0.79213774 
-0.02704636 0.043763615 0.9986758 
-0.53244686 0.42717552 0.7307677 
-0.47476146 0.21408977 -0.8536787 
-0.7607377 0.60960376 -0.22284846 
-0.6010273 0.59461737 -0.53403795 
-0.70883816 0.27086622 -0.651291 
-0.019535586 0.97924286 -0.20174694 
0.25439197 0.80744994 0.53226817 
0.026421532 0.98846227 0.14914578 
0.53803456 0.83459765 0.118176594 
0.09815374 0.9180173 0.38420057 
0.54046905 0.72029865 0.43481386 
0.7880408 0.6025802 -0.12605146 
0.69227916 0.38935015 0.6075821 
0.5702728 0.6996802 0.43039116 
0.7438473 0.46598682 -0.47911122 
0.38767195 0.37392858 0.8425485 
0.38361487 0.46195027 0.79965097 
0.27919957 0.81503254 0.50771034 
-0.025330737 0.70274144 0.71099424 
-0.23519139 0.70610183 0.6679112 
-0.9568882 0.16289325 0.24048053 
-0.78695303 0.4114504 0.45979747 
-0.87354743 0.3453233 0.34302592 
-0.006414987 0.41834658 0.9082649 
-0.25057304 0.7389645 0.6254156 
-0.715283 0.65341586 -0.2478265 
-0.58809966 0.80309105 -0.09583206 
-0.7999049 0.5051798 0.3239532 
-0.9589578 0.25622532 -0.12144322 
-0.85527086 0.27786544 -0.43738154 
-0.9041132 -0.0030368895 0.42728233 
0.110536106 -0.8934976 -0.43525162 
0.8767847 -0.48025164 -0.024641266 
0.6638036 -0.5091381 0.5478533 
0.40232804 -0.6288651 0.6653276 
0.9416284 -0.077927426 -0.32751104 
0.95791227 -0.25296316 0.13569738 
0.6414152 -0.3290353 0.69305295 
-0.061802164 -0.25619167 0.9646483 
-0.26198322 -0.049041137 0.9638256 
-0.19678803 -0.79492056 0.5739128 
-0.48567638 0.078543626 0.87060285 
-0.6399312 -0.05183437 0.7666821 
-0.21523939 0.703302 0.6775236 
-0.14908439 0.77798176 0.61034286 
-0.19741614 -0.18955962 0.96181816 
-0.22095218 0.24540322 0.9439054 
-0.44395107 0.5287324 0.7234291 
-0.6716583 -0.4250745 0.6067841 
-0.81715053 -0.23822245 0.5248953 
0.50647426 -0.72935563 -0.45991775 
0.21851894 -0.83969903 -0.497147 
0.64992124 -0.62684333 0.4297324 
0.9102801 -0.40336448 -0.09320498 
0.6001892 -0.7445297 0.2923156 
-0.5208425 -0.23647976 0.8202442 
0.16048042 0.88821447 0.4304895 
0.80055463 0.277061 0.53136575 
0.44615528 0.2251829 0.86616284 
0.49154297 0.036115404 0.87010413 
0.09870983 0.7602845 0.64204663 
-0.2691537 0.8479309 0.45669404 
0.046138205 0.72939944 0.68253046 
0.010959215 0.77277386 0.6345869 
-0.4885109 0.6005245 0.63303035 
-0.65493464 0.17320561 0.73556817 
-0.40535384 -0.27823693 0.8707884 
-0.27006644 -0.7313307 0.62627435 
-0.9859365 -0.016070317 -0.16634601 
0.15228653 -0.96713674 -0.20360595 
-0.4026469 -0.87378705 0.27271193 
-0.9035531 -0.42803407 -0.01945871 
-0.9525886 -0.2959757 0.07052127 
-0.90949434 -0.4095834 0.07114547 
-0.4810563 -0.7412776 0.4680732 
0.34001052 -0.89849764 0.2776595 
-0.4981848 -0.8647779 -0.06301791 
0.059492875 -0.646317 0.76074636 
0.15088542 -0.31192076 0.9380506 
0.5755124 -0.2303195 0.78468996 
0.10135422 0.28193527 0.95406497 
0.150426 0.5026853 0.8512812 
-0.5827025 0.43983498 0.6833762 
-0.8718979 0.48089108 0.09240177 
-0.23269744 0.8357728 0.4973288 
-0.53075534 0.6802291 0.5055563 
-0.57099926 0.7861073 0.23663294 
-0.007943226 0.84422064 0.53593713 
0.24460651 0.31510386 0.91699356 
0.027221857 0.32544664 0.94516855 
0.018852634 0.30062306 0.9535567 
0.046170242 -0.108821586 0.9929886 
0.039217167 -0.43530893 0.89942664 
-0.05970364 -0.45614544 0.88790023 
0.38986203 -0.9019105 0.18591703 
0.38468206 -0.6790591 0.62521887 
0.06883973 -0.9885723 -0.13411202 
0.25390837 -0.8070224 0.5331469 
0.39270616 -0.695914 0.6012368 
0.48992604 -0.36726457 0.79062593 
-0.3024928 -0.297106 0.90566343 
-0.43245047 -0.050906036 0.90021956 
-0.41091216 0.08061903 0.90810347 
-0.45265648 -0.43254894 0.7797458 
-0.6412905 0.51876116 0.56536126 
-0.789642 0.2251305 0.5707731 
-0.92724586 0.25465158 0.2745318 
-0.23837866 0.17787945 0.9547432 
-0.6813893 0.35673812 0.6390983 
-0.4901805 0.2260944 0.8417865 
-0.84454775 0.50770247 0.17022748 
-0.0049311845 0.9431417 -0.33235464 
0.054321982 0.9982416 -0.023727661 
0.11652349 0.8564082 -0.5029787 
0.70846605 0.70390224 0.050967213 
0.33101287 0.8052831 0.49188358 
-0.37952304 0.7690332 0.51434433 
-0.18039624 0.96619314 0.18419568 
0.07054209 0.88426244 0.46163172 
-0.5785321 0.18336873 0.7947808 
0.42448428 0.0669351 0.9029579 
0.3360831 0.3140184 0.8879418 
-0.49351436 0.46736184 0.7334961 
-0.622079 0.78129464 0.050955776 
-0.2978791 0.53155833 0.7929148 
-0.06009014 0.33062556 0.94184715 
-0.1463217 0.6886552 0.7101718 
-0.5673824 0.632144 0.52770376 
-0.7621478 0.64170766 -0.085686035 
-0.24422738 0.96423674 0.102959625 
-0.1813443 0.8000918 -0.57181054 
-0.07273009 0.93738186 -0.34062532 