# OOMMF: rectangular mesh v1.0
# Segment count: 1
# Begin: Segment
# Begin: Header
# Desc: Time (s) :  2.2599999999999956e-07
# Title: m
# meshtype: rectangular
# meshunit: m
# xbase: 2e-09
# ybase: 2e-09
# zbase: 5e-10
# xstepsize: 4e-09
# ystepsize: 4e-09
# zstepsize: 1e-09
# xmin: 0
# ymin: 0
# zmin: 0
# xmax: 1.024e-06
# ymax: 1.024e-06
# zmax: 1e-09
# xnodes: 256
# ynodes: 256
# znodes: 1
# ValueRangeMinMag: 1e-08
# ValueRangeMaxMag: 1
# valueunit: 
# valuemultiplier: 1
# End: Header
# Begin: Data Text
-0.5726126 0.7266508 0.3795965 
-0.88378 0.31359065 0.34726647 
-0.59226525 0.63232255 -0.4993898 
-0.06355783 0.8693974 -0.4900088 
-0.55543387 0.7042854 0.44212607 
-0.6109247 0.76233774 -0.21357001 
-0.23895338 0.2601427 -0.93553567 
-0.31410128 0.6929553 -0.6489633 
-0.1450298 0.987182 -0.06661918 
0.13561843 0.9847889 -0.10862086 
-0.5111594 0.85473883 0.090209335 
-0.27995658 0.9435459 -0.17704715 
-0.32626867 0.90924686 0.25849372 
-0.012997271 0.9917743 -0.12733768 
0.61868423 0.7845528 0.04131435 
-0.5412154 0.52551824 0.65644234 
0.24375723 0.54334533 0.803342 
-0.19545002 0.9795769 0.047208477 
0.2523466 0.9360922 -0.24505648 
-0.43474805 0.8685044 0.23810536 
0.6086292 0.54776776 0.5740392 
0.12962428 -0.012016466 0.99149036 
0.09082985 -0.030163852 0.99540955 
0.55291694 0.8321756 -0.042030342 
-0.81192476 0.47464532 0.33983842 
-0.22079045 -0.10526962 0.96962357 
0.0109367175 0.25451782 0.96700627 
-0.8994738 -0.027853917 0.43608624 
-0.4968763 -0.35876313 0.7901918 
-0.873642 -0.030338634 0.48562273 
-0.8036596 -0.10981661 -0.58486897 
-0.43631962 -0.71645606 -0.5443492 
-0.80825156 0.4377205 -0.39386562 
0.27181977 -0.82393503 -0.49723768 
0.78257483 -0.49081612 -0.38298318 
0.33888245 -0.9394707 0.05053216 
-0.21127461 -0.7600207 0.6145989 
0.5960587 -0.5995126 0.5341336 
0.74006003 0.60846555 -0.28649753 
0.5823528 0.37300134 0.72231245 
0.65869826 0.45056397 0.602585 
-0.26705113 0.91682124 0.29685444 
-0.1373862 0.6672631 0.73204166 
0.4673004 0.4052586 0.78574556 
0.28512824 0.75198996 0.5943174 
0.6010244 0.44673866 0.66271734 
-0.57320535 0.45790353 0.67952925 
-0.67714876 0.25218502 0.6912831 
-0.9155248 0.38723105 0.108934104 
-0.8900373 -0.27249423 -0.36548665 
-0.53240705 0.7521573 -0.38833243 
-0.3196236 0.5956889 -0.7368823 
-0.052242823 0.6661213 -0.7440115 
0.30585033 0.5052662 -0.806946 
0.3642302 0.48199624 0.796879 
0.034413777 0.033575684 0.9988436 
-0.33899578 0.12505005 0.93244004 
-0.5393147 0.021612091 0.84182703 
-0.040438224 0.82326615 0.56621337 
-0.15897886 0.62607193 0.76338696 
0.5040354 0.17405212 0.84596354 
0.50868714 -0.19622187 0.83829254 
-0.23584206 0.63752335 0.7334457 
-0.067735836 0.69487935 0.7159292 
-0.69175786 0.6349097 0.34403598 
-0.7875528 -0.57302225 -0.22672945 
-0.21253663 0.7779133 0.5913369 
-0.17556919 0.7218544 0.66940403 
0.14199796 0.66457784 0.7336027 
-0.69889694 0.64738774 -0.3040268 
-0.61570054 0.45621732 0.6424786 
-0.95111346 0.27278504 -0.14481547 
-0.92078507 0.08443227 -0.38082284 
0.09581716 0.99514097 -0.02266447 
0.15014672 0.8956606 0.4186264 
0.009715799 -5.617871e-05 0.9999528 
-0.43467388 0.75010383 0.49840048 
0.012479198 0.87939864 0.47592247 
-0.16447653 0.575122 -0.80136263 
-0.6223444 0.6860335 0.37688938 
-0.30211914 0.8407025 0.4493811 
-0.6893582 0.71511376 0.11574861 
-0.42936355 0.89518523 0.11954326 
0.14532319 0.9880746 0.050890855 
-0.46265405 0.881485 0.09452748 
-0.8531386 0.47092223 -0.22447029 
-0.81553394 0.4794675 -0.3240605 
0.68108565 -0.26178116 -0.6838077 
0.8872372 0.23365235 0.39776486 
0.82234913 0.13621314 0.55243826 
0.62905276 -0.18690312 0.7545595 
0.115288556 -0.9830678 -0.14242968 
0.1639601 -0.51126593 0.84363747 
-0.67398465 -0.111856185 0.730228 
-0.40555125 -0.28346056 0.86901003 
-0.4322414 -0.35556328 0.8286991 
-0.5243366 0.015828483 0.85136396 
-0.11671161 0.74004585 0.66235226 
-0.5155101 0.3690223 0.7733511 
-0.3726715 0.46706128 0.80185395 
-0.5313616 0.8349782 0.14306049 
0.7540469 0.5937828 0.28077608 
-0.008077898 0.80622363 0.59155583 
-0.8626703 0.27331066 0.42556003 
0.10138998 0.638524 0.762894 
-0.097945705 0.2393815 0.96597266 
0.007159655 0.71003014 0.70413494 
-0.6130582 0.68814695 -0.38808945 
-0.45301443 0.84687376 -0.27853724 
-0.5719641 0.5402216 -0.6172665 
-0.6180022 -0.031483352 0.7855458 
-0.7217235 0.25054756 0.645245 
-0.5696991 0.5769747 0.58527184 
-0.94050103 -0.21903646 0.2597708 
-0.8887146 -0.4521197 -0.075987324 
-0.62104076 -0.107336454 -0.7763939 
0.16506033 0.4964947 -0.852202 
0.013089666 0.8876957 -0.4602445 
-0.18718162 0.9454714 -0.26654622 
-0.6119955 0.20483111 -0.7638754 
-0.7470205 0.3117528 -0.5871718 
0.01028163 0.9137403 -0.40616867 
-0.83358634 0.24376959 -0.49569166 
-0.08667686 0.80120575 -0.5920781 
0.3546519 0.5491743 -0.75672305 
0.20618308 0.439685 -0.8741658 
0.47076327 0.46555617 -0.7494261 
0.43080273 0.76984185 -0.47090608 
0.28507444 0.5193803 0.80559087 
-0.7588221 0.54355925 0.3587931 
-0.4052089 0.9134332 -0.038021572 
-0.4574282 0.8754103 -0.15625769 
-0.45709324 0.6101027 0.6471789 
0.39269024 0.91697073 0.070421234 
0.75160116 0.5228375 0.40216494 
0.34898844 0.8827376 0.3146133 
0.17686835 0.8614881 0.47597894 
0.02933034 0.802961 0.5953095 
-0.49143687 0.8679502 0.07177924 
0.019389078 0.98570424 -0.1673657 
-0.8539133 0.51390624 0.08205196 
-0.28212357 0.77691245 0.56286174 
-0.32126597 0.045732394 0.94588417 
-0.924746 0.38050732 0.007688774 
0.057948418 0.9467831 -0.31661305 
-0.19642578 0.8622638 -0.46681708 
0.7658058 0.60980016 0.20416988 
0.04374979 0.8453724 0.53238285 
-0.49216363 0.857058 -0.15240267 
0.36415932 0.84680074 -0.38770685 
0.5060743 0.8504401 -0.14366835 
0.80206674 0.59531075 0.047898177 
-0.023384998 0.3679061 0.9295688 
0.85653186 0.28375256 0.43108913 
0.81680685 0.56338215 -0.12420641 
0.49579522 0.86407465 0.08696043 
0.64338446 0.1047632 0.75834113 
-0.16456649 0.9394947 0.30044553 
0.4402234 0.7280767 0.52545965 
-0.24755098 0.62012243 0.74442375 
-0.6624091 0.7186735 0.21147695 
-0.47742596 0.7681303 -0.42666194 
-0.76685756 0.34855047 -0.5389269 
-0.34785134 -0.12930925 -0.9285896 
0.38468552 0.107116215 -0.9168114 
0.4737722 0.7282813 -0.4951225 
0.975722 0.15177642 0.15789403 
0.7024174 0.7079818 0.07329102 
0.25107104 0.9523208 0.17334461 
0.67529947 0.7176671 0.17007251 
0.03781543 0.9992653 0.0062378626 
0.4640374 0.87018925 -0.1656499 
0.6914644 0.7133491 0.11406186 
0.6833486 0.49097046 0.54035425 
0.856322 0.47174773 0.21015878 
0.8129747 0.29547143 0.50176567 
0.63635975 0.10872445 0.76369196 
0.53814775 0.6964132 0.47476906 
-0.1467847 0.8995374 0.41144463 
-0.37859458 0.73157483 0.5669783 
-0.5410375 0.09197108 0.8359545 
0.17215991 0.9848151 0.022362985 
0.46539277 0.87176496 0.15308708 
0.59702796 0.6551707 0.4629354 
0.19100848 0.91151685 0.36421534 
-0.6816379 0.6119717 -0.4010742 
-0.7190789 0.6259994 -0.30174568 
-0.16738436 0.85707146 -0.4872486 
-0.39909875 0.73910326 0.5426293 
0.6619163 0.7459273 0.073887154 
0.46591884 0.7758072 0.4254915 
0.7723901 0.24040267 0.5878947 
-0.42975727 0.86636126 0.2544152 
-0.6222898 0.5894194 -0.5151119 
0.25764132 0.9114197 -0.32083508 
0.42876646 0.68695986 0.58672446 
0.39829546 0.9148129 -0.066918194 
-0.4803573 0.8400679 0.25207713 
0.6614077 0.6618757 0.35278934 
-0.102231555 0.9507461 0.29262716 
0.12907022 0.98858565 -0.07771271 
0.45399004 0.8298775 -0.32434002 
0.24979433 0.7889661 -0.5613691 
0.7791347 0.60984534 0.14504407 
0.8045387 0.5530172 0.21653974 
0.27550223 0.92489463 -0.2620467 
0.12706588 0.77371204 -0.6206641 
-0.020155048 0.7383249 -0.67414415 
0.10293228 0.9396793 0.32620195 
-0.2323996 0.7189173 0.65509415 
-0.008018155 0.999034 -0.043207966 
-0.01053632 0.9281579 -0.3720376 
-0.1052494 0.28201938 0.9536182 
-0.70028573 0.69886625 0.14555377 
0.017944314 0.16032355 0.98690146 
-0.10899932 0.13258897 0.98515964 
-0.18279953 0.38750714 0.9035611 
-0.5990782 0.5097238 0.6174845 
-0.30560276 0.6205535 0.72216374 
-0.4817746 0.79888105 -0.3601146 
-0.739206 0.51389724 -0.4352979 
-0.6744755 0.6794556 -0.2888303 
-0.34796968 0.1767619 -0.92069125 
-0.12826477 0.32555738 -0.9367821 
-0.43910855 0.32382286 -0.8380468 
-0.7579473 0.6523106 0.0025999928 
-0.4942453 0.7464002 -0.445655 
-0.22944443 0.5679882 -0.790408 
0.1454822 0.5042986 -0.8511861 
0.87338024 0.4734658 -0.11417969 
0.72861326 0.2857193 0.6224847 
0.6377027 0.76582724 0.08272924 
-0.38138226 0.40120968 0.8328136 
0.13196188 -0.0028929068 0.99125063 
-0.58687174 0.20294026 0.78383464 
-0.4788477 0.8761072 0.05604494 
-0.30485037 0.60710615 0.73381776 
0.18851796 0.49571148 -0.8477801 
0.71613824 0.66713125 0.20513886 
0.9095968 -0.08997512 0.4056332 
0.55497974 0.03469355 0.8311401 
0.93888307 0.30543008 -0.15878035 
0.7451833 0.46209738 0.48079935 
0.9863887 0.04597284 -0.1578734 
0.82096624 0.05997325 0.5678183 
0.17748119 0.45827398 0.8709107 
0.09271842 0.88627684 0.45378062 
0.3264841 0.56148267 0.76035875 
0.723057 -0.16643149 0.67043954 
-0.42692578 -0.11545064 0.8968867 
-0.5588153 -0.21156587 0.8018512 
-0.98990333 -0.0026188598 0.14172049 
-0.99815387 0.051770914 -0.031759057 
-0.4545565 0.7439188 0.4898606 
-0.75448364 0.4895284 0.4371689 
-0.82356066 0.33001104 0.46134663 
0.6743235 0.03081651 0.73779285 
-0.022120938 0.9021465 0.43086252 
-0.30895042 0.8462494 0.43406406 
0.054081555 0.80730426 0.58765215 
-0.76999867 0.596299 0.22700152 
-0.52878004 0.841805 0.10842595 
-0.10827849 0.99311537 -0.044696484 
-0.56982744 0.6451767 0.5089634 
-0.011735628 0.88918626 0.45739502 
-0.2225175 0.97355855 0.051668942 
-0.96356344 0.2657509 -0.030366637 
0.26563925 0.87466854 0.4054513 
-0.47243416 0.7101201 0.52204937 
-0.4875626 0.7870394 0.3779575 
-0.028132416 0.9993114 0.024192402 
0.2335082 0.7110672 0.6632175 
0.08466704 0.93440795 0.34599623 
-0.11406753 0.7282477 0.6757543 
-0.8249015 0.5647564 -0.02424269 
-0.24876462 0.95638186 -0.15313399 
0.20408674 0.14797148 0.96770513 
-0.26995048 0.0113193635 0.96280766 
0.4950913 -0.18615255 0.8486649 
0.57579875 0.054366093 0.815782 
0.05976918 0.8253105 0.5615071 
-0.6628182 -0.168401 0.729598 
-0.9149516 0.06725747 0.3979197 
-0.47675171 0.44667307 0.7570937 
-0.74811727 -0.3104439 0.58646846 
-0.89287764 -0.040792514 0.44844803 
-0.9380444 -0.22763392 -0.26125747 
-0.62984675 -0.26105607 -0.7315346 
0.09846201 -0.33942986 -0.9354639 
0.5937212 -0.5689579 -0.5690185 
0.9243247 -0.25670412 -0.28235957 
0.8105912 -0.5818929 0.06589797 
0.48200297 -0.86434096 0.1434853 
0.8354478 -0.13574837 0.5325406 
0.60096484 0.7957298 0.0752027 
0.034241565 0.87217706 0.48799044 
-0.5541187 0.51596117 0.6532508 
-0.19742808 0.8715841 0.44873518 
0.04228837 0.6632407 0.7472105 
-0.38387984 0.1320112 0.9138979 
-0.4181346 0.062862955 0.9062074 
0.75498086 0.08096262 0.6507296 
0.15698048 0.6452475 0.7476716 
-0.68294847 -0.29579505 0.66789716 
-0.2892893 0.13027897 0.94833493 
-0.8203156 0.0342984 0.5708818 
-0.9472249 -0.16006142 0.27775046 
-0.6637885 0.4378718 -0.6063441 
-0.42520896 0.5054836 -0.75078875 
0.730996 0.68040544 -0.051897373 
0.7675849 0.38816795 0.5100382 
0.8071886 -0.021797208 0.58989114 
0.8290786 0.055702478 0.5563507 
-0.27527687 -0.05765872 0.95963436 
-0.35730672 0.22482322 0.90652436 
-0.23770304 -0.33964363 0.9100218 
-0.07986874 -0.5505219 0.83099145 
0.3629396 0.11269 0.9249735 
-0.42469287 0.29624712 0.85549617 
-0.44242245 0.04069537 0.895883 
-0.6848088 0.1278667 0.717417 
-0.82184947 0.53992385 0.18178447 
-0.5086843 0.5075528 0.6954355 
-0.2857329 0.25863415 0.9227487 
-0.4346043 0.19398575 0.8794821 
-0.35553882 0.8018039 0.48031515 
0.090350516 0.62891203 0.77220887 
-0.24751174 0.62994117 0.73614687 
-0.86497074 0.48859465 -0.11445929 
-0.5402238 0.78563404 0.30155858 
-0.09428067 0.90490085 0.41504902 
0.010087172 0.6148408 0.7885868 
-0.060004406 -0.055291303 0.99666566 
0.2462116 0.47814015 0.84306705 
0.11569861 0.36951953 0.92199194 
-0.12708382 0.53756076 0.8335936 
-0.41171265 0.41893056 0.8093145 
-0.8315421 0.5263215 -0.17754851 
-0.59320825 0.6841551 0.4243063 
-0.14460044 0.34746605 0.92647624 
-0.9185263 0.3259612 0.22373801 
-0.8028788 0.58510524 0.11418241 
-0.8739012 0.47260872 0.11374402 
0.46302983 0.57685274 -0.6729371 
0.5493105 0.8178196 -0.17154954 
0.8662574 -0.2531698 -0.43070066 
0.9506182 -0.2972671 -0.08920437 
0.92680055 -0.12555875 -0.3539431 
-0.46287885 -0.35204226 0.81351674 
-0.27741805 0.23217808 0.93227285 
-0.19823702 -0.21066125 0.95724815 
-0.8082343 -0.24481776 0.53555745 
-0.8421896 0.019718891 0.5388208 
-0.4415296 0.2605803 0.8585741 
-0.74593896 0.43698508 0.5026124 
-0.6992802 0.71443635 -0.024248447 
0.15646511 0.9872828 -0.0281317 
0.31743002 0.7395405 0.5935639 
-0.4161162 0.90574884 0.08041436 
-0.39775145 0.2686024 0.87729514 
-0.20100014 0.5950821 0.7781237 
-0.42427853 0.6989514 0.57572097 
-0.47262114 0.87745714 0.081843525 
-0.702533 0.69607735 0.14806631 
0.06450208 0.9721996 0.22509459 
-0.6886451 0.4792209 0.5441647 
-0.68375015 0.47345242 0.5552734 
-0.5536773 0.21914227 0.8033792 
-0.7640667 0.35088027 0.5413733 
-0.96413094 0.11155224 -0.24084784 
-0.8214861 -0.4296916 -0.3748675 
-0.4083708 -0.21210773 -0.8878309 
-0.24820608 0.63286036 -0.7334041 
-0.80728346 0.35763982 -0.46945414 
-0.3578147 0.8904011 -0.28134412 
-0.3892829 0.84067214 -0.37646973 
-0.40404928 0.7987129 -0.44587213 
-0.53824353 0.81171703 -0.22673637 
-0.73019594 0.6737813 -0.11328193 
-0.11421094 0.9431034 -0.31226906 
0.110439725 0.77701986 -0.61971235 
0.5249196 0.6059545 -0.5977279 
-0.008403774 0.97466004 -0.22353387 
0.61540276 0.77013326 0.16785209 
0.19429499 0.37905124 0.90474844 
-0.09527361 0.9258838 0.36559835 
0.04322199 0.98207635 0.18346131 
-0.16011022 0.51448315 0.84242034 
0.15511948 0.611143 0.7761716 
0.38345584 0.3520699 0.85381985 
0.38575003 0.5999982 0.7008561 
0.14700218 0.9881222 -0.044775452 
0.8024169 0.5656288 0.19023956 
-0.0062094545 0.9292316 0.36944562 
-0.28730896 0.6787397 0.6758446 
0.07915677 0.5828423 0.8087207 
-0.3379614 0.9219093 0.1893818 
-0.43515053 0.84507596 0.3106295 
-0.50829303 0.7890979 0.3449099 
-0.6194092 0.61742157 -0.48489475 
-0.11055882 0.69982255 -0.705709 
-0.08940808 0.8603519 -0.5017976 
0.57015294 0.81374454 0.11289632 
0.8140234 0.55291176 -0.17791769 
0.008318913 0.9998768 0.01331338 
-0.106405474 0.98277575 0.1510952 
0.2646075 0.8905003 -0.37012452 
0.106571384 0.94791603 0.30016294 
0.713457 0.5620009 0.4184904 
0.81900096 0.047387905 0.571832 
0.7991614 0.46783656 0.37745205 
0.70396906 0.6333123 0.32147044 
0.17002842 0.49689096 0.85099334 
0.26534864 0.6540535 0.7083814 
0.36578915 0.29816785 0.88164294 
-0.70127624 0.3206916 0.63668567 
-0.69154835 0.6796166 -0.24470848 
-0.47937855 0.81867856 0.31616697 
-0.8960625 0.25623176 -0.36251518 
-0.607698 0.66560626 -0.43321067 
0.6482122 0.76145864 -0.0013891497 
0.43757954 0.89070934 -0.12312973 
0.44908983 0.78126436 -0.43352574 
0.43399784 0.90090764 0.003380377 
-0.35329983 0.8615672 0.36452878 
0.44397298 0.85693306 0.26182798 
0.29424024 0.93389404 -0.20313703 
0.026411127 0.93246347 0.36029753 
0.070403695 0.9673036 -0.243654 
0.5064619 0.6888508 0.51863366 
-0.092101365 0.42834958 0.8989072 
-0.22584903 0.6376843 0.73644483 
-0.81553894 0.5380408 -0.21309225 
-0.4548364 0.8596384 0.23269203 
0.09984927 0.8140813 0.572103 
-0.49835387 0.7728567 0.3928562 
-0.5581531 0.6590181 0.5041432 
-0.3443814 0.8237363 0.45039988 
-0.12980829 0.9679884 -0.21482196 
0.2710056 0.8628544 0.42665955 
0.05675015 0.64261353 0.7640859 
-0.59571135 0.7928822 0.12831871 
-0.9064301 0.4197305 0.047018316 
-0.34434515 0.75160646 -0.56259596 
0.40048593 0.63888925 0.6568345 
0.46641314 0.7184329 0.51605535 
0.14944045 0.29302174 0.9443547 
-0.3038875 0.95168674 0.04409887 
-0.43714893 0.75027394 0.49597374 
-0.32981 0.8774099 -0.34839234 
-0.08021638 0.94104105 -0.3286444 
0.5932227 0.80447096 0.030222092 
-0.038469277 0.9856956 0.16408628 
0.38556424 0.5437035 0.7454708 
-0.23250465 0.6350084 0.7366859 
-0.016620772 0.7126289 0.7013444 
-0.23804006 0.7995832 0.5513654 
-0.42306954 0.46397954 0.77829 
0.0079999855 0.9283537 0.371612 
0.17729151 0.9716185 0.15660545 
0.66253877 0.74875957 0.020038636 
-0.29632232 0.9344479 -0.19748503 
-0.421769 0.66169804 -0.6198925 
0.008883549 0.9860055 0.16647626 
0.6879356 0.56980646 0.44951665 
0.1677453 0.2995373 0.9392226 
-0.008517656 0.60107607 0.7991465 
0.33996198 0.8697393 0.35774222 
0.30336428 0.752599 0.5844357 
0.54049975 0.3104594 0.78196865 
0.48604172 -0.65902346 0.5739787 
0.36104083 -0.63923025 0.678995 
-0.103045255 0.5478166 0.8302281 
-0.33959073 0.07771661 0.9373571 
-0.13199426 0.6315626 0.7640067 
-0.39160466 0.7996792 0.45514724 
-0.30242997 0.6997948 0.6471657 
-0.69796556 0.60611874 -0.38139766 
-0.4081566 0.9128752 0.008200735 
-0.4652572 0.8680397 -0.17332864 
-0.7141804 0.69130355 0.10975326 
-0.94669497 0.08237863 -0.31141993 
-0.07902563 0.14144221 -0.9867873 
-0.06658745 0.80671936 -0.5871714 
0.40759033 0.84247726 -0.3522814 
0.8880938 0.45962274 -0.0060379724 
0.53917706 0.36906815 0.75701845 
0.7064823 0.23645514 0.66706204 
-0.6409322 0.22300619 0.73448914 
-0.6598572 0.05716813 0.7492131 
-0.58391124 0.2065411 0.7851041 
-0.87597084 0.48092574 -0.037223205 
0.073161915 0.9619746 0.26315826 
0.14042547 0.98984367 0.02213974 
0.6251391 0.7748004 0.09426338 
0.7328556 0.5517914 0.39805642 
0.95783174 -0.040738977 -0.28442731 
0.7202437 0.64774066 0.24835686 
0.17040285 0.66132694 0.7304859 
-0.045047987 0.99895513 -0.0077077397 
0.19522929 0.66156507 0.72402847 
0.4982282 0.77356905 0.39161184 
0.10922307 0.87081724 0.47932002 
-0.31547 0.30691808 0.897931 
0.051240217 -0.08655571 0.9949285 
0.204923 0.21750142 0.95430595 
-0.4539737 0.49390382 0.7415976 
-0.74164236 0.42915726 0.515549 
-0.88140494 0.18674298 0.43388063 
-0.9285232 0.1318037 0.3470916 
-0.8761599 0.45876914 0.14790091 
-0.87923706 0.27310002 -0.3903315 
0.64812404 -0.49794948 0.57617843 
0.43720067 0.55817246 0.7051945 
-0.18754964 0.26779848 0.9450446 
0.47744668 0.19647788 0.85641176 
-0.52762324 0.22605644 0.8188482 
-0.59217507 0.49100277 0.6389405 
-0.72190905 0.13612561 0.67846686 
0.09054127 0.866448 0.49098906 
0.13731249 0.76249534 0.63225484 
-0.31495425 0.86831164 0.3831955 
-0.4470747 0.6874152 0.57235 
-0.43655783 0.8973708 -0.06436562 
-0.54087645 0.83096963 -0.13016182 
-0.37805408 0.55005324 0.7446587 
0.0070530893 0.18603754 0.9825173 
0.14017121 0.98718673 0.076253586 
0.27315086 0.9553869 0.11235961 
-0.025035 0.8098924 0.58604413 
-0.5478852 0.8319762 -0.08739373 
-0.31463453 0.84070885 -0.4406968 
0.5853261 0.4662956 0.6632962 
-0.28778046 -0.32969564 0.899157 
-0.3171274 -0.4630179 0.82767427 
-0.3127032 0.09062954 0.9455173 
-0.37612814 0.7150399 0.5892755 
-0.52839684 0.42916563 0.73253924 
-0.9645315 -0.23783052 0.11452414 
-0.20102091 0.8127218 0.54687655 
-0.7799296 -0.046767805 0.6241175 
-0.93857247 0.3444983 -0.020066768 
-0.717571 0.44550148 -0.53536934 
-0.37634605 0.16070554 -0.91243494 
0.46240923 -0.6130247 -0.64060783 
0.6338411 -0.658019 -0.40651745 
0.71711093 -0.5435324 -0.4362619 
0.7689929 -0.09254581 -0.6325229 
0.92076844 -0.22752592 -0.31688717 
0.9884417 -0.06685353 0.13606521 
0.41895267 0.72814757 0.5424756 
-0.2070303 0.5730455 0.79294235 
-0.33116674 0.31201652 0.89049107 
-0.2554113 0.79659605 0.54790485 
-0.3135103 0.6322111 0.70853406 
-0.5078109 0.3542065 0.7852808 
-0.08214567 -0.15299186 0.98480743 
-0.0008106624 -0.059078336 0.9982531 
-0.22916509 0.36707422 0.9015209 
0.13632925 0.45622107 0.87936157 
-0.5385129 0.09859685 0.83682895 
-0.8120834 0.3347933 0.4779477 
-0.9120429 0.31822997 -0.258665 
-0.2683358 0.79131985 -0.5493714 
0.19714251 0.92749715 -0.31762224 
0.5148348 0.81521034 -0.26528737 
0.75806046 0.64227 -0.11328517 
0.95561844 0.25818256 0.14189836 
0.22285874 -0.30287823 0.92660606 
-0.061544076 -0.2166209 0.97431403 
-0.6596562 -0.36610255 0.6563709 
0.3733217 -0.46466264 0.8029443 
0.4307281 -0.5385627 0.7241709 
0.31450263 -0.21408348 0.9248007 
-0.6553023 0.237811 0.7169553 
-0.620134 -0.3887181 0.68141925 
-0.14514215 0.06654853 0.9871702 
-0.4499429 -0.22723083 0.86366516 
0.183636 -0.07867715 0.97984076 
-0.024688534 -0.37259036 0.92766744 
-0.8422143 -0.0099961385 0.5390502 
-0.42940718 0.87264246 0.23260397 
-0.43081996 0.9014267 0.042709805 
-0.15428264 0.97771245 -0.14239107 
-0.3288591 0.8889813 -0.31869137 
-0.5766499 0.6482766 -0.4972045 
-0.3706325 0.9285448 -0.020887148 
0.4030108 0.5535188 0.7288342 
-0.023132594 -0.0046369266 0.99972165 
0.739151 0.60592765 0.2941217 
-0.25895107 -0.135242 0.9563755 
0.11054752 0.24816671 0.96238905 
-0.537562 -0.081617855 0.839265 
-0.6124715 0.42194995 0.6684586 
-0.22047363 0.2987188 0.9285249 
-0.29659632 0.6286137 0.7189406 
-0.3186636 0.88959396 0.3272251 
-0.63508296 0.35649678 0.6852589 
-0.65810573 0.59381306 0.46290717 
0.107287645 0.7279277 -0.677208 
0.3435919 0.57206327 -0.744774 
0.34673032 0.57938886 -0.7376224 
0.14909661 0.8265297 -0.5427882 
0.06868723 0.99080265 -0.11658567 
-0.38931125 0.23938152 0.8894567 
-0.6967926 -0.007974673 0.71722835 
0.07844848 -0.53585285 0.840659 
-0.45249483 -0.09952013 0.88619655 
-0.30730712 0.54005384 0.7835204 
-0.24004903 0.035946164 0.97009504 
-0.69620275 0.18173471 0.69445974 
-0.7280932 0.30456752 0.61410016 
-0.48785096 0.7813237 0.38927492 
-0.26564243 0.552821 0.7898247 
-0.141005 0.10161005 0.9847807 
0.33345312 -0.037111934 0.942036 
-0.59345406 0.5828289 0.5550881 
-0.3520682 0.9033586 0.24493115 
-0.39158472 0.83883715 0.37817144 
-0.6397766 0.7228992 0.26096496 
-0.10612886 0.8807601 0.4615175 
-0.8247249 0.27477065 0.49429753 
-0.7214123 -0.10780486 0.6840632 
-0.87219715 -0.3613445 0.3297004 
-0.5292482 0.5504539 0.64567566 
-0.9623208 0.27190953 0.0019756486 
-0.92872286 -0.23052381 -0.29040092 
-0.5852007 0.3447368 -0.7339596 
0.55247104 0.26283005 -0.79100955 
-0.49062628 0.71798444 -0.49374518 
-0.34639463 0.93608695 0.06125407 
-0.40713695 0.9127801 0.03274308 
0.14683078 0.95740306 0.24863651 
-0.64760053 0.7618356 0.014840604 
-0.996935 0.07512229 -0.021848863 
-0.7385464 0.47673008 -0.4767366 
-0.10226382 0.81130874 -0.5756043 
0.38418022 0.7391347 -0.5532499 
0.2229086 0.97057354 0.09109762 
0.14163241 0.74470615 0.6521909 
0.18758921 0.97486246 0.12022269 
0.26450223 0.31810302 0.91041154 
-0.7515697 0.46305275 0.46981412 
-0.19852115 0.5103572 0.8367348 
-0.49481803 0.3405633 0.79948217 
-0.03365959 0.9634962 0.26559767 
0.60994804 0.79103637 0.047169663 
0.75959384 0.649409 -0.035850115 
0.6258889 0.6773348 0.38662744 
0.6111608 0.35391748 0.70797247 
0.08908465 0.52219194 0.84816253 
-0.13645174 0.41417533 0.899911 
0.037570663 0.72930896 0.6831522 
0.21955174 0.8236031 0.5229485 
-0.2884937 0.8446773 0.45087865 
-0.26243988 0.9242932 -0.27714133 
0.03236606 0.99789673 0.056166455 
-0.13509187 0.98790544 -0.07611243 
0.0046351897 -0.6231971 0.7820512 
0.7719616 0.084142245 0.6300757 
0.52475977 0.83513093 0.16487479 
0.5811981 0.77657074 0.24320124 
0.29514995 0.84653366 0.44302064 
0.31302646 0.8252567 0.47007015 
0.19421668 0.68141747 0.7056559 
-0.1271916 0.39221817 0.9110364 
0.1516064 -0.004459982 0.988431 
0.7659312 -0.25425282 0.5905125 
0.25675663 -0.2357662 0.9372782 
-0.14344402 0.15624647 0.9772466 
0.18993917 -0.007888919 0.98176426 
0.12008503 0.031615496 0.9922601 
-0.7178693 0.3827582 0.58151513 
-0.65317386 -0.6625453 0.3666029 
-0.9487794 -0.30250424 -0.091152735 
-0.3642395 -0.3908132 0.845337 
-0.13807037 0.44650558 0.88406414 
0.59318596 0.6448252 0.48200712 
0.4578704 0.5102344 0.7280217 
0.2158959 0.9539087 0.20844021 
0.07455867 0.9579665 0.27702206 
-0.2563401 0.5901468 0.7655172 
-0.0605187 0.87971044 0.4716431 
-0.026486026 0.9099236 0.4139293 
0.23750007 0.86105555 0.44964114 
0.8872316 0.3532625 0.2966916 
0.38353515 0.67787373 0.6272065 
-0.39109167 0.6289493 0.67191523 
-0.13416374 0.7956757 0.59067786 
0.2926331 0.14200728 0.94562143 
0.87449884 0.014877682 0.4847996 
0.36078173 0.07495053 0.92963386 
0.0952739 0.42697063 0.8992325 
-0.5840631 0.60306793 0.54330415 
-0.69250107 0.6802399 0.24024144 
0.027825266 0.97173816 0.23441575 
-0.16810116 0.47876093 0.8617019 
0.18134569 0.97860944 0.097145826 
0.23166679 0.31563175 0.92016697 
-0.2923361 0.7417075 0.60366356 
0.5884729 0.20654453 0.7816898 
0.31615284 0.12824495 0.9400003 
0.18909462 0.3960374 0.8985532 
0.40035194 0.8897067 0.21940933 
-0.83587915 0.54675627 0.048617758 
0.22298174 0.9722668 -0.07054369 
0.2079771 0.96214855 -0.17611304 
0.67567796 0.5138925 -0.5285583 
0.77527905 0.6138443 -0.14878686 
0.38444155 0.3000026 0.8730424 
0.72393614 0.5099346 0.46463242 
0.18411231 0.14564934 0.97205406 
0.67518526 0.33047447 0.6594783 
0.28367284 0.8169164 0.5021726 
-0.16755769 0.37700364 0.91092956 
0.59136015 0.79043335 0.15971357 
-0.06291466 0.90187955 0.4273818 
-0.8510829 0.5209831 0.06507219 
-0.20054619 0.84464157 -0.4963486 
0.013377749 0.9834038 0.18093656 
0.6880522 0.71367234 0.13136216 
-0.27809554 0.26507178 0.923255 
-0.38162208 0.53843755 0.75129855 
0.4652188 0.7795779 0.41932076 
0.43097216 0.7116076 0.55486727 
0.10901182 0.3886195 0.91492695 
-0.038459495 -0.24093588 0.9697787 
-0.89374566 -0.27084208 0.3575798 
0.53954583 0.31926477 0.7790766 
0.1416332 0.22948846 0.9629513 
0.18248948 0.6054321 0.7746933 
-0.14336628 0.90728045 0.3953333 
-0.23867215 0.9198405 0.31133437 
-0.32359058 0.8714423 0.3686157 
-0.16536893 0.98442894 0.059604853 
-0.39437282 0.80496323 -0.44328803 
-0.66132313 0.6968592 0.27755913 
-0.46310768 0.8201473 -0.33599097 
0.02868508 0.6794127 -0.7331954 
0.5397743 0.8306528 -0.13660102 
0.21339558 0.9768151 -0.017165305 
0.4574284 0.87719816 0.14588647 
0.75744253 0.41301057 0.5056711 
0.18224084 0.54515475 0.8182876 
-0.37800607 0.47339043 0.79562116 
-0.67245036 0.48992756 0.55478066 
-0.8267684 0.5043057 0.24925841 
-0.8740176 0.485894 0.00067468896 
-0.32690573 0.72505546 0.6061578 
0.19151545 0.64359355 0.741019 
0.50998765 0.72659755 0.46040052 
0.38429782 0.9196437 0.08105985 
0.809743 0.58644277 -0.020029262 
0.98902684 0.101890676 0.10697802 
0.68864536 0.5024374 0.52280426 
0.9658051 0.13788551 0.21956341 
0.59591657 0.5899208 0.5448641 
0.4790328 0.8158533 0.32389972 
0.4775661 0.687992 0.54644096 
0.10563926 0.7366393 0.6679842 
0.008315638 0.4676128 0.8838944 
-0.25758675 0.68052846 0.68595207 
-0.46324363 -0.24078275 0.8528946 
-0.29145122 0.45529708 0.8412852 
-0.7204338 -0.0065111653 0.6934932 
-0.5935064 0.626536 0.505176 
-0.9294331 -0.18620943 -0.31855977 
-0.921844 -0.10278391 -0.37368312 
0.98426044 0.16726379 -0.05704604 
0.3089702 0.13166313 0.9419142 
0.2068498 0.36328173 0.90842706 
0.24356447 -0.4747277 0.84576 
-0.54858685 -0.6787089 0.48826912 
-0.17460166 -0.45888054 0.8711734 
-0.35754287 -0.37545112 0.85510206 
-0.8845734 0.34548962 0.31331587 
-0.37538266 0.72864574 0.5728554 
0.1620576 0.9434099 0.28933558 
0.121085964 0.79404765 0.5956733 
0.010999873 0.9300594 0.36724475 
-0.45942742 0.8793468 -0.12520283 
0.020813672 0.67719233 0.7355116 
0.10864625 0.17489709 0.97857404 
0.10785574 0.9870263 -0.11893892 
0.25945953 0.708592 0.6561846 
0.25524297 0.5037241 0.82529575 
-0.10242158 0.99451923 -0.021009699 
0.18710732 0.95880955 0.21371785 
0.6596581 0.48091927 0.5775534 
-0.24074595 0.5549666 0.79627484 
0.017230745 0.7222584 0.6914087 
-0.31212303 0.14490321 0.9389262 
0.14011598 0.14210585 0.9798845 
-0.8153383 -0.3241356 0.47974944 
-0.74260414 -0.0665446 0.6664165 
-0.5896168 0.27228454 0.76040345 
-0.96345454 -0.26637435 -0.028287658 
-0.9837355 0.06773383 -0.16636278 
-0.48710248 0.74747115 -0.45168364 
-0.16785671 0.6820164 -0.71181315 
0.36761668 0.4579308 -0.809418 
0.7412333 0.33075932 -0.584099 
0.83949745 -0.2169373 0.498179 
0.72993857 0.1754932 -0.6605996 
0.77722543 0.21346124 -0.5919079 
0.86107194 0.19723393 -0.46867245 
0.93811697 0.34449393 -0.03550386 
0.61272264 -0.15054694 0.7758265 
0.30519766 0.57895696 0.7560842 
-0.5626683 0.31199944 0.76554596 
-0.41070813 -0.07125741 0.9089781 
-0.27620846 0.6565405 0.70189995 
0.14694902 0.7690537 0.6220631 
0.26821822 0.54789126 0.79238516 
0.16306137 0.45710883 0.87433547 
-0.123387665 0.81110907 0.57173216 
-0.68635184 0.7263819 0.035925135 
0.004171973 0.9375099 0.34793377 
0.2988714 0.83829075 -0.45600945 
0.33412212 0.5556678 -0.76131195 
0.18189542 0.94901085 -0.2574733 
0.35574096 0.9343923 0.018963512 
0.8804165 0.4333677 0.19250757 
0.5596063 0.6844571 0.46728933 
-0.15251626 0.24927112 0.95634866 
-0.018784022 -0.1563624 0.9875211 
0.0074077803 -0.15075386 0.98854357 
0.6954853 -0.107919015 0.71038985 
0.11867538 -0.41828406 0.9005302 
-0.2597854 -0.9441361 0.20277756 
0.014534103 -0.99969673 -0.019881964 
0.5965691 -0.5213941 0.6101258 
0.045334928 -0.6581274 0.7515404 
-0.86687785 0.12702695 0.48206547 
0.041438807 -0.49353448 0.8687385 
0.18291172 -0.32391733 0.9282354 
-0.48171917 -0.25801942 0.83748 
-0.68322873 0.5342771 0.4977414 
-0.6966076 0.63348854 0.33679393 
-0.598499 0.784231 0.16364823 
-0.7902278 0.5614789 0.2455233 
-0.8524055 0.29900476 -0.4289535 
-0.30663326 0.9397294 0.15127692 
-0.054318022 0.6665101 0.7435146 
0.5256755 0.4885753 0.69639045 
-0.4088177 0.81385946 0.4129176 
0.4895067 0.3317131 0.8064426 
0.6814065 -0.19328004 0.7059236 
0.5304586 0.11493729 0.8398828 
0.5865234 0.2359164 0.77481204 
-0.25523925 0.18566911 0.94888353 
0.3468535 0.8646529 0.36341196 
-0.67556083 0.43631 0.59434944 
-0.6369579 0.6933579 0.33695623 
-0.29083237 0.9427343 -0.16330533 
0.08400335 0.59568876 -0.7988107 
0.4756268 0.8467756 -0.23822297 
0.46514463 0.73422766 -0.49452028 
0.5911334 0.70700514 0.3882075 
0.5054486 0.3489316 0.78915685 
-0.45851514 0.032307982 0.8880992 
-0.092937775 -0.15726897 0.98317295 
-0.34338897 -0.36891386 0.8637051 
-0.67165124 -0.53165036 0.5159772 
-0.54812855 -0.40168706 0.73362297 
0.69997644 -0.028693624 0.7135893 
-0.2633589 0.58908826 0.7639483 
-0.10387597 0.3923873 0.91391575 
0.507125 0.20156424 0.83797145 