# OOMMF: rectangular mesh v1.0
# Segment count: 1
# Begin: Segment
# Begin: Header
# Desc: Time (s) :  2.4999999999999957e-07
# Title: m
# meshtype: rectangular
# meshunit: m
# xbase: 2e-09
# ybase: 2e-09
# zbase: 5e-10
# xstepsize: 4e-09
# ystepsize: 4e-09
# zstepsize: 1e-09
# xmin: 0
# ymin: 0
# zmin: 0
# xmax: 1.024e-06
# ymax: 1.024e-06
# zmax: 1e-09
# xnodes: 256
# ynodes: 256
# znodes: 1
# ValueRangeMinMag: 1e-08
# ValueRangeMaxMag: 1
# valueunit: 
# valuemultiplier: 1
# End: Header
# Begin: Data Text
0.36930418 0.539031 0.75700724 
0.2919566 0.8173513 0.4966872 
0.23311825 0.9096987 0.34366277 
-0.540209 0.74208283 0.39684674 
0.23107472 0.73186535 0.6410754 
0.042659596 0.96216315 0.26911414 
0.49368846 0.80229497 0.33555108 
0.38626465 0.89826 0.20959152 
0.6100672 0.43048832 0.6652051 
-0.31953412 0.69670874 0.6422577 
-0.29435834 0.50685143 0.810219 
0.40014163 0.383093 0.83254224 
0.2924826 0.7643408 0.5746626 
-0.68392 0.69688857 0.2158698 
-0.88034844 0.38069218 -0.2829488 
-0.7104517 0.7036876 0.009068437 
-0.64922833 0.7421915 -0.1662962 
-0.11731154 0.50020325 -0.85792476 
0.21451564 0.8169937 -0.53526103 
0.6636078 0.7416352 -0.09799029 
-0.4498501 0.24294038 -0.85942703 
-0.23103373 0.34570742 -0.9094559 
-0.48171282 -0.6133072 -0.625945 
-0.24560285 0.22284035 -0.94340956 
0.41207385 0.10685194 -0.9048635 
0.89535826 0.4366505 -0.08757928 
0.6953538 0.70650214 0.13167325 
-0.36430487 0.8530208 0.37368107 
-0.60619533 0.7263261 -0.32400268 
0.1737535 0.96312743 -0.20541525 
0.11316197 0.43322197 -0.89415497 
-0.47676408 0.33554947 -0.8124669 
-0.046572756 0.43015322 -0.90155375 
0.832947 -0.2841227 -0.47484073 
0.9280231 0.35784084 0.1035522 
0.93413794 -0.15135376 -0.32323146 
0.8091693 -0.32699147 -0.48818198 
0.9571364 0.2874433 -0.035586696 
0.08004475 0.0806736 0.99352133 
0.06105189 0.44233888 0.89476764 
-0.15750009 0.62362695 0.7656914 
0.046453148 0.15128726 0.9873978 
0.086100295 0.6515986 0.75366175 
-0.6688459 0.6165995 0.41527128 
-0.51041394 0.77314377 0.37646592 
-0.13834536 0.8039707 -0.57835263 
-0.5882047 0.63698345 -0.49826434 
-0.07546083 0.99265134 -0.094599865 
0.22525497 0.6910682 0.68679327 
0.22801912 0.21906722 0.9486922 
0.07996924 0.23525123 0.9686392 
0.81508124 -0.17543359 0.5521464 
-0.47134456 0.42016456 0.77543294 
-0.22978398 0.4598443 0.8577544 
-0.081717074 0.8512545 0.5183513 
-0.18779899 0.27272093 0.9435862 
-0.3727383 0.74997604 0.546445 
-0.85997784 0.40665177 0.3083385 
-0.14678368 0.43367672 -0.8890327 
0.01691316 0.159681 -0.9870238 
0.26964033 -0.24445726 -0.93141544 
0.31419718 -0.93034464 -0.18904799 
0.40655532 -0.8878022 -0.21568519 
-0.4211076 -0.0011334363 0.9070101 
-0.40051407 0.38183913 0.8329391 
0.20589864 0.24088272 0.9484626 
-0.2329244 0.18885183 0.95398176 
-0.4761017 0.062116686 0.87719375 
-0.73841745 0.09635627 0.6674243 
-0.3539898 0.60111326 0.7164874 
-0.5338602 0.839442 0.10163894 
-0.2121956 0.8425783 0.49501002 
-0.70572376 0.51270324 0.48896763 
-0.74335593 0.60531664 0.28462923 
-0.5812432 0.014639559 -0.81359816 
0.72167253 -0.28001976 -0.63307005 
0.97128993 -0.23106663 -0.05660575 
0.22535768 -0.8025994 0.5523117 
-0.21107204 -0.35308164 0.91147244 
-0.26557866 0.5194992 0.81215066 
-0.21197222 0.5989314 -0.7722363 
-0.34705666 0.62894297 -0.69568855 
0.575655 -0.24700673 -0.7794928 
0.9746575 -0.19730629 0.105418704 
0.5248231 0.83998466 0.13779199 
0.45001727 0.8360398 -0.31388208 
0.59461534 0.7970284 0.10572747 
-0.0022950214 0.75577235 0.6548304 
0.070249304 0.9500178 0.30418938 
-0.20888646 0.9503286 0.23074257 
-0.3558176 0.7198762 -0.5959632 
-0.5094066 0.860297 -0.019847114 
-0.30036765 0.12362077 -0.94577867 
-0.38408765 0.58122796 -0.7173916 
-0.050298847 0.09029535 -0.9946441 
0.73677474 0.67561877 -0.02650042 
0.9860647 0.0006145146 0.16636136 
0.84493524 -0.3310297 0.42012364 
0.65509117 -0.45796528 0.60093546 
0.1994586 -0.47925687 0.8547101 
-0.3562846 0.5396838 0.76275986 
0.2913611 0.2456286 0.9245406 
-0.482166 0.68248147 0.5493041 
-0.46982223 0.43668398 0.76718587 
0.41727823 0.90050894 0.12232183 
-0.1688862 0.78448224 0.5967119 
-0.989726 0.10511614 0.09691869 
0.3595476 0.91052085 0.20415083 
0.32182053 0.8851576 0.33604726 
0.20855682 0.47626355 0.8542114 
-0.56282204 0.82574695 0.037060622 
-0.40852207 0.8351282 -0.36833498 
-0.32522276 0.88895065 -0.32248572 
-0.11216618 0.6378142 -0.7619789 
0.20663548 0.6082249 -0.76639694 
0.34985664 0.8495286 0.39484364 
0.843319 0.5312243 0.08132564 
0.98383826 -0.0726436 0.16366202 
0.81001085 0.29748133 0.5053586 
0.38364094 0.3555547 0.85229135 
0.069340095 0.010507161 0.9975378 
-0.36955577 -0.09755794 0.9240731 
-0.09736946 0.4335671 0.89584535 
-0.33827952 0.69211644 0.6376064 
-0.28756973 0.81820315 0.49784258 
0.18074723 0.25154483 -0.9508185 
0.6648445 0.7093888 -0.23398583 
0.5706695 0.70486134 -0.42131567 
0.9784022 0.19675334 0.06338314 
0.83763057 0.3603676 -0.4105001 
-0.39497 0.6516773 -0.6475457 
0.18474598 0.9815405 -0.049470782 
-0.26711115 0.9515871 0.15209796 
-0.4575495 0.60002345 0.65621674 
-0.4120336 0.34372005 0.8438512 
-0.37880915 0.5152406 0.7687853 
0.007673665 0.8874786 0.46078506 
-0.21287236 0.9740388 -0.07703183 
-0.2823675 0.28043985 0.91739964 
-0.009881287 0.91276515 0.40836522 
0.037737597 0.7346495 0.67739654 
-0.6634795 0.28791946 0.69057757 
-0.45712352 0.74283594 0.4891145 
-0.6232981 0.67349386 0.39737335 
-0.825204 -0.47263494 -0.30928087 
-0.85700315 0.49266824 0.15107453 
-0.5807287 0.8140668 -0.0070276167 
-0.996572 0.039273098 0.07281336 
-0.041018993 -0.21445453 -0.97587234 
-0.1716032 -0.6381763 -0.750522 
0.10058142 -0.8116986 -0.575351 
0.47501907 -0.55189776 0.6853947 
0.41724387 0.006553738 0.90877104 
0.4405597 -0.45910746 0.77144516 
0.6714434 -0.2695162 0.6903078 
0.7107239 -0.3687991 0.59904826 
0.6653977 -0.09572507 0.74032605 
-0.12674381 0.17230274 0.9768561 
0.16466711 -0.08135822 0.9829882 
-0.36140373 -0.16247456 0.9181446 
-0.61524755 0.5389259 0.57535154 
-0.36273623 0.62745565 0.6890007 
0.12988043 0.2144808 0.96805435 
-0.19228464 0.88025326 0.43379802 
0.056151357 0.9573866 0.28329816 
-0.07630891 0.9526604 0.2943047 
0.48827535 0.70422494 0.5154168 
0.105468675 0.64807713 0.75423634 
0.03607289 0.9278657 0.37116584 
-0.33930522 0.85369134 0.39507368 
0.51506907 0.57066613 0.6395656 
0.3153124 0.94699967 -0.061398137 
0.23617068 0.8911336 0.3874332 
0.022719204 0.990153 0.13813318 
-0.095539354 0.9933608 -0.06408207 
0.6908306 0.71410656 0.11315929 
0.12374702 0.99091405 -0.05268776 
-0.7073443 -0.13872261 0.69312346 
-0.615918 -0.04618215 0.78645563 
0.24166729 0.12398596 0.96240556 
0.013826046 0.2679464 0.9633347 
0.14346227 0.16317356 0.9761112 
-0.30270773 0.46759257 0.83049697 
-0.2344233 -0.8553291 0.46201503 
0.5395645 -0.40227166 0.7396267 
0.364357 0.36915183 0.8549684 
-0.5485884 0.61285776 0.5687322 
-0.54515773 0.82180005 0.16567397 
-0.14810511 0.54872984 0.822776 
0.074844226 0.716376 0.69368863 
-0.27703077 0.5351103 0.798067 
-0.9012954 0.24550559 -0.3569223 
-0.9457727 0.019263992 0.32425752 
-0.9452598 -0.19879484 0.25877544 
-0.8043052 -0.59365326 -0.02586637 
-0.6756032 0.3800376 -0.6317688 
-0.15763316 0.8615563 -0.4825688 
0.025427442 0.2802507 -0.95959 
0.05988485 0.2599698 -0.96375805 
0.037151445 0.19094703 -0.9808971 
0.06479053 -0.18610588 -0.98039114 
0.2584811 -0.07351038 -0.9632154 
0.103592455 -0.0593093 -0.99284995 
0.31663537 0.3714523 -0.8727917 
0.35800242 0.6464586 0.6737399 
-0.11234265 0.499922 0.85875326 
-0.37673837 -0.5832392 0.71965295 
-0.54320437 -0.18871197 0.818118 
-0.2970354 -0.40230507 0.86597955 
0.010431493 0.052314673 0.9985762 
-0.5077507 0.018226331 0.86131126 
-0.974765 0.058299415 -0.21548663 
-0.9936153 0.034373425 -0.10745717 
0.05988 0.31565467 -0.94698286 
0.22591671 0.32585213 -0.91803163 
-0.073671535 0.8551795 -0.5130697 
0.6393761 0.76423645 -0.08450431 
0.25438917 0.5938381 0.7633103 
-0.31546515 0.035608176 0.94826883 
-0.09095374 0.9700352 -0.22529837 
-0.5521196 0.7823583 -0.28823504 
-0.1361573 0.95606935 0.25960115 
-0.5061522 0.7119502 0.4867617 
0.14649111 0.92101336 0.360936 
0.500864 0.855982 0.12817954 
0.35156527 0.7165651 -0.6024421 
-0.2962735 0.95425445 0.040256713 
-0.753842 0.2722765 0.5979865 
-0.72326654 0.65702665 -0.21260662 
-0.16658714 0.5519336 0.817079 
-0.8479306 0.17608671 0.5000071 
-0.67442477 0.46665177 0.5721777 
-0.97619545 -0.14983678 0.15681644 
-0.93796355 0.33173138 0.100890055 
-0.6443013 0.6198879 -0.44790053 
-0.7101717 0.703524 -0.026649324 
-0.7788122 0.5293225 -0.33655494 
-0.9844228 0.16163138 0.06918936 
-0.068973236 0.3225821 -0.94402516 
-0.48869726 0.38095224 -0.78488874 
-0.22262168 0.5998955 -0.7684822 
-0.06724564 0.92552215 -0.37267536 
0.14142129 -0.15062524 -0.97842324 
-0.43660727 0.8771228 -0.20007415 
-0.24471068 0.65702313 -0.713048 
0.3226194 0.3549759 -0.8774445 
0.72306746 0.34038842 0.6010901 
0.118087545 0.3810849 0.91696763 
0.5319619 0.19808988 0.8232721 
0.32016167 -0.34486502 0.8823631 
-0.36190388 -0.3946214 0.84457064 
0.09327844 0.30004373 0.949354 
-0.30564618 0.079753116 0.94879925 
-0.5242585 0.39959344 0.75198275 
-0.5261145 0.7332423 -0.43076587 
-0.02873135 0.8282387 -0.5596383 
0.29992762 -0.004147037 0.95395297 
0.08585009 0.3047725 0.94854814 
-0.28449827 0.55354846 0.7827163 
-0.23032267 0.74217284 0.6293894 
0.06387571 0.37615326 0.9243532 
0.74983263 0.5078733 0.42404705 
0.37647614 0.9249792 0.051763274 
0.15385059 0.97079355 0.18409206 
0.039689604 0.889455 0.45529607 
0.3570208 0.50276905 0.787248 
0.5962812 0.32543305 0.73385435 
0.43598005 0.648448 0.62404865 
0.45960298 0.5979992 0.6566293 
-0.23225111 0.67462647 0.7006701 
-0.5504383 0.8286372 0.10187266 
-0.36905134 0.40574807 0.8361636 
-0.9823606 -0.11047551 0.15087396 
-0.83075225 0.23577906 0.5042411 
-0.84790975 0.5293504 0.02893623 
-0.6412837 0.48313645 -0.5960994 
-0.5924255 0.36336464 -0.7190259 
-0.08161252 0.5403247 -0.8374895 
0.12580688 0.8326797 -0.5392747 
0.44796208 0.48178816 -0.7531336 
0.8197087 0.41107216 -0.39887005 
0.7477068 0.385308 0.5408072 
0.5055891 0.3016483 0.80832416 
-0.11080851 0.6889939 0.7162465 
-0.6387321 0.6531661 0.40668827 
-0.43972492 0.6150659 -0.65447384 
-0.15124561 0.6737938 -0.723275 
-0.13177085 0.7707191 -0.62340075 
0.1093912 0.8111584 -0.57450485 
0.9392402 0.28972903 -0.18407893 
0.7390755 0.5602594 0.37400126 
0.4724143 0.8805254 0.038726028 
0.35506082 0.92930496 -0.10160869 
0.633658 0.7402366 0.22478299 
-0.15411015 0.05001202 0.98678714 
-0.7016651 0.5024233 0.5052099 
-0.47127774 0.6986204 0.5383558 
-0.2612136 -0.16160634 0.95165694 
-0.48664236 0.17458098 0.85597944 
-0.7098728 0.656906 0.25407714 
0.30777916 0.5426002 0.7815734 
0.21645282 0.9239344 0.315426 
0.24896868 0.5347742 0.8074845 
0.36405 0.5475952 0.7533971 
0.7503405 0.547881 0.3698859 
0.18028125 0.5869097 0.7893261 
0.19755429 0.09547897 0.9756311 
0.75825053 0.2632855 0.5964368 
-0.3849431 0.32573062 0.8635499 
0.11897869 0.4674575 0.87597245 
-0.18214053 0.53274983 0.8264397 
-0.28721368 0.42232755 0.8597371 
-0.6310539 0.20668757 0.74769735 
-0.94465685 0.094009005 -0.31430218 
-0.24177356 0.7521953 -0.61298287 
-0.61573684 0.23991893 -0.7505378 
0.1578807 0.18919201 -0.96916467 
-0.2874171 -0.85651124 -0.4286957 
0.26063377 -0.60049653 -0.7559591 
0.006123564 -0.32881522 0.9443745 
0.18575543 -0.22049195 0.95753765 
0.16022192 -0.49267164 0.85533834 
-0.29845253 -0.041551337 0.95351964 
-0.48301634 -0.118152976 0.86760306 
-0.61019176 0.5586766 -0.5617353 
-0.9170161 0.39589286 -0.048481856 
-0.5804509 0.65063894 -0.48963842 
-0.6145628 0.76580465 0.18935663 
-0.7204734 0.16674599 0.6731373 
-0.7116069 0.69898576 -0.07095437 
-0.23869742 0.74707246 -0.62040824 
0.38734722 0.4237183 -0.8187948 
0.86915314 -0.49450704 0.0059844553 
0.48689795 0.15337309 0.8598879 
-0.281335 -0.108139984 0.95349693 
-0.4576313 0.49044475 0.7416453 
-0.6556963 0.75236773 -0.06328816 
-0.5957283 0.65873474 -0.45953932 
-0.064876266 0.051782683 -0.9965489 
0.96106225 0.27224383 -0.0473569 
0.6622337 0.70702636 0.24811335 
0.43038148 0.6923696 0.57913405 
-0.2017089 0.24221124 0.9490244 
0.105082974 0.6960616 0.71025056 
-0.35124493 0.33786532 0.8731976 
-0.7800897 0.5173769 0.3518259 
-0.5635731 0.73546624 0.3761313 
-0.7563493 0.6408056 0.13154423 
-0.49560118 0.7685661 -0.4045807 
-0.1559035 0.6532299 -0.74093515 
0.6667585 0.7444165 0.035739914 
0.512184 0.8324159 0.21154523 
0.7733062 0.2026169 0.6007862 
0.4500318 0.09424657 0.8880254 
0.25563982 -0.50911313 0.82185894 
0.15315019 0.43274745 0.8884113 
-0.3614421 -0.49903017 0.78760934 
-0.68698335 -0.09960908 0.7198138 
-0.6589313 0.65356916 0.37236655 
-0.22887425 0.85324186 0.4686095 
0.55061847 0.5586805 0.6202382 
0.36189035 0.57602787 0.7329579 
-0.19091581 0.9457734 -0.2627999 
0.664483 0.6903533 0.28613773 
-0.021444976 0.9431978 -0.33153883 
-0.36111346 0.81984615 0.4443528 
-0.16944191 0.6037615 0.778949 
-0.57507837 -0.06593274 0.8154372 
0.23315331 0.8890874 -0.39390746 
-0.49082774 0.7477255 -0.4472078 
-0.43559432 0.7759175 -0.4563 
0.45277306 0.58824563 0.6700475 
0.034769032 -0.41357777 0.90980464 
0.19058964 0.17005144 0.96682894 
0.57816184 -0.4956382 0.64812946 
0.48094058 0.2774919 0.8316818 
0.25243902 0.17735223 0.9512207 
-0.1255438 0.22796203 0.9655424 
-0.2327546 0.7109454 0.6636128 
-0.47044954 0.7968855 0.3790131 
-0.54422253 0.73221016 0.4095 
-0.03645871 0.9056936 -0.42236227 
0.3337188 0.8412416 0.42537558 
0.6587993 0.66107917 0.35910708 
-0.40184832 0.57824916 0.71003234 
0.21528414 0.8047894 0.55314255 
-0.78963 0.5808547 0.19771756 
-0.52627313 0.7244372 0.44522735 
-0.5066272 0.8143827 0.2830367 
0.110007055 0.22990204 0.9669765 
-0.63941103 -0.10842339 0.76118195 
-0.59622186 0.21929549 0.77228826 
-0.9764839 0.16932388 0.13344961 
-0.7478517 0.6638657 -0.00046413182 
-0.6529714 0.7406308 0.1584126 
0.405414 0.8923207 0.19850318 
0.30235067 0.6696302 0.6783653 
-0.2437155 0.4589919 0.854359 
-0.27388975 0.23895551 0.9316033 
0.79315877 0.34266946 0.503465 
0.1691641 0.71828926 0.674866 
-0.6066879 0.687369 0.39931655 
-0.91593343 0.4012618 -0.0074081775 
-0.972859 0.188363 0.13440566 
-0.019292697 -0.054042168 -0.9983523 
0.24723479 -0.7164604 -0.6523492 
0.10298462 -0.96911687 0.22406887 
0.28062418 -0.9305443 0.23523913 
0.18750627 0.16351154 0.96855843 
0.47595578 -0.85793024 0.19344766 
0.17272276 -0.8001402 0.5744064 
0.10359939 -0.8597583 0.5000829 
0.2668698 -0.15990607 0.9503739 
0.4234198 -0.15969685 0.89174694 
0.22483683 -0.2525857 0.9410893 
0.30403736 0.4616733 0.8333182 
-0.45708883 -0.3040881 0.83582324 
-0.40965724 0.2624376 0.87367475 
-0.31865102 -0.18192422 0.93025 
-0.4042386 0.5453703 0.7342769 
-0.54007757 0.6296064 0.5584909 
0.097624965 0.8485022 0.52010906 
-0.40428206 0.71974987 0.5643725 
0.29450452 0.955089 0.032745685 
0.053627666 0.64551777 0.7618602 
0.4772867 0.8522878 0.21401636 
0.7622186 0.36322486 0.53580827 
0.9672702 -0.2124152 0.13880962 
0.30230284 0.65085876 0.6964165 
0.59079677 0.77490276 0.22468871 
0.466897 0.8705085 0.15563436 
0.5217724 0.8458078 -0.111187674 
0.13427866 0.9888855 0.06383285 
-0.17031425 -0.62645584 0.7606222 
-0.19394925 -0.07978542 0.97776175 
0.12708537 0.6180454 0.77580225 
-0.5181972 0.20164897 0.8311496 
-0.6289492 0.033985063 0.7767033 
-0.23845789 0.29273427 0.925983 
-0.45141286 -0.20412827 0.8686531 
-0.2529964 -0.14826363 0.95603913 
0.13687919 0.352583 0.9257156 
-0.47073048 0.7307477 0.49438912 
-0.5325174 0.8382201 0.11752609 
-0.5751468 0.5551245 0.60086846 
-0.47745666 0.33468515 0.8124168 
-0.43009284 0.23612335 0.8713587 
-0.80420935 0.537889 0.25282955 
0.055074688 0.7354048 0.6753863 
-0.78780377 0.33646616 0.5159028 
-0.97217816 -0.226952 0.057988126 
-0.59539723 0.5465164 -0.588916 
-0.40625584 0.911109 -0.06954543 
-0.45832738 -0.28544077 -0.8417004 
0.01683996 -0.02647493 -0.99950767 
0.7065409 -0.037886165 -0.70665735 
0.12713204 0.6178453 -0.775954 
0.40366533 0.07577214 -0.9117636 
-0.40813625 0.21634482 -0.88691586 
0.8202255 0.44002658 0.36552286 
0.88333154 0.12125649 0.45279387 
0.70150304 0.49165356 0.51591706 
0.20676897 -0.29871637 0.9316733 
0.2813868 0.12375292 0.95158124 
0.4027093 -0.22040795 0.888395 
0.20865402 -0.11508825 0.97119427 
-0.18178147 0.09662805 0.9785799 
-0.89276594 0.2704766 0.3602937 
-0.32629406 0.7377095 0.59103036 
-0.5650945 0.7375155 -0.3697826 
0.057266314 0.8375158 -0.54340416 
0.51245606 0.81231725 -0.27844146 
0.28129092 0.70851713 -0.64720863 
-0.0268203 0.95115036 0.30756092 
-0.07509316 0.9212879 0.381562 
0.6160264 0.7876927 0.0071878564 
0.21756199 0.48199534 0.8487327 
0.06383686 0.72383213 0.68701667 
-0.04850096 0.8169688 0.57463884 
-0.59764576 0.61201894 0.517931 
-0.4416273 0.4405125 0.78160995 
-0.21308257 0.79262793 -0.571259 
0.123116255 0.96914196 -0.2135562 
-0.251504 0.7918414 0.5565367 
0.007688533 0.6520464 0.7581401 
-0.39989126 0.8310494 0.3865798 
-0.8624699 0.50608736 -0.004626477 
-0.88423675 0.40507358 -0.23246698 
-0.40751132 0.42519796 -0.80817163 
-0.9345434 0.26415527 -0.23843366 
-0.7985871 0.47295183 -0.37225714 
-0.1841963 0.98112845 0.058810312 
-0.58957267 0.34986734 -0.7280089 
-0.47812003 0.4290176 -0.7663845 
-0.57888085 0.4952139 -0.6478119 
0.39136982 0.46622062 -0.7933902 
0.6202992 0.7217779 -0.30702716 
0.35628814 0.9158551 -0.18511656 
0.26475382 0.5151698 -0.8151722 
-0.069474734 0.97862166 -0.1935796 
-0.04484802 0.77842385 -0.62613505 
0.6976505 0.68130124 -0.22161342 
0.48092708 0.22587658 0.84716517 
0.63001996 0.2503203 0.73512906 
0.6125404 0.20374161 0.76373005 
0.31374392 0.39704973 0.8625059 
-0.142232 -0.44408515 0.8846234 
0.42889005 0.097966395 0.89802897 
-0.47737545 -0.25449824 0.8410371 
-0.66356766 -0.36883715 0.65087414 
-0.6778761 0.32861722 0.6576434 
-0.038060434 0.766378 0.64126146 
0.44102874 0.42789912 0.78892094 
-0.08168352 0.31189772 0.946598 
0.2855787 -0.12056356 0.95074147 
0.55459154 0.3572514 0.75153166 
-0.10806629 -0.13671325 0.9846986 
0.20512415 0.61453265 0.761757 
0.4353334 -0.01248302 0.9001828 
-0.12125003 0.7490623 0.65130967 
-0.41380823 0.5715296 0.7086019 
0.18597324 0.2665289 0.9457148 
0.07824013 0.21788578 0.9728332 
-0.37355402 0.28606296 0.88239753 
-0.28157696 0.77749825 0.5623264 
-0.5237343 0.054072093 0.8501639 
-0.30391997 0.42012438 0.85506034 
-0.698137 0.36879006 0.6136764 
-0.43639377 0.7703519 0.46488568 
-0.9733892 -0.1027046 0.20485432 
-0.9869692 0.16090795 0.0007922649 
-0.9260163 0.24995823 -0.28286877 
-0.52487516 0.82884955 -0.19368704 
-0.7049109 0.36964834 -0.6053601 
0.36440083 0.89678824 -0.2509638 
0.24733183 0.7210479 -0.647238 
0.5437634 0.8132757 0.20713328 
0.6021342 0.79592586 0.062741034 
0.26571774 0.6814209 0.68195283 
0.047725856 0.49551216 0.8672889 
-0.43865025 0.89337254 -0.09732219 
-0.6395843 0.76742846 0.044560846 
-0.23574552 0.96149963 -0.14121793 
-0.20598839 0.90744555 -0.3662122 
0.06376827 0.9932823 -0.096560776 
0.037255213 0.9207784 0.38830298 
0.8357267 0.24605663 0.4909351 
0.7284185 0.043033496 0.68377966 
0.6175054 0.7339406 0.28287524 
-0.33568546 0.09608668 0.93706065 
0.44933185 0.04164327 0.8923938 
0.26006094 0.3316194 0.90686107 
-0.18587634 0.4854252 0.8542906 
-0.20495434 0.60005534 0.77325773 
-0.4328203 -0.22049707 0.87409824 
-0.3456933 -0.35951537 0.86674386 
-0.21245903 0.20047143 0.95638514 
-0.25104997 0.7576946 0.6023893 
-0.11362009 0.7093399 0.6956489 
0.20408444 0.25191003 0.94598675 
0.22415143 0.6622224 0.71499497 
-0.20620294 0.23967753 0.9487018 
-0.10962115 0.52799624 0.84214205 
-0.19623873 0.21277803 0.95719165 
0.11905837 0.07069446 0.99036735 
0.23023172 0.3688949 0.9005054 
-0.11892339 0.41996557 0.8997145 
-0.72552484 0.5196886 0.45115122 
-0.52016187 0.8526479 -0.049225073 
-0.9915209 -0.009635503 -0.12959017 
-0.8234616 0.07917125 0.5618213 
-0.96917576 0.24427176 0.03209041 
-0.59479237 -0.14907223 -0.7899365 
0.12800336 -0.33979982 -0.9317464 
0.78742975 -0.29124779 -0.5432579 
0.74737793 0.44441906 0.49388057 
0.83809066 0.072952785 0.54063106 
0.40636522 0.72314835 0.5585015 
-0.110687904 0.9930157 0.04084197 
-0.5556133 0.7248532 0.40728593 
-0.059598852 0.9849563 -0.16220067 
-0.3207342 0.94693613 0.021014605 
-0.4851785 0.72069925 0.49517113 
-0.73177785 0.52433 0.435407 
-0.9553598 0.21836546 0.19900794 
-0.07971413 0.9181201 0.38820252 
0.6486219 0.6568258 0.38453797 
0.34552568 0.9364125 -0.061185133 
0.19941036 0.6796108 0.70594954 
0.54885525 0.8334618 0.06402742 
0.22087742 0.9750267 0.023157476 
0.12595327 0.74841434 0.65116185 
-0.041149747 0.97167796 -0.2326985 
-0.089445174 0.57413626 -0.81385934 
-0.31242675 0.3593909 -0.8793337 
0.74771345 0.44815373 0.48998252 
0.909274 0.40651822 0.08924043 
0.89393735 0.039462823 0.44645134 
0.48720333 0.5266736 0.69659746 
-0.10585063 0.5836628 0.8050673 
-0.8640133 0.43069476 0.2607359 
-0.9712538 -0.069158964 -0.22777858 
-0.97937566 -0.18588041 0.07919512 
-0.8290662 0.4086744 0.381621 
-0.5804408 0.808228 0.09927678 
-0.46192196 0.78130037 0.41975927 
-0.16554417 0.9437177 -0.28634283 
0.723403 0.68625253 -0.07580063 
0.6539902 0.5322994 0.53754455 
-0.3020362 -0.1347719 0.9437218 
-0.24301228 -0.28640383 0.9267783 
-0.5439726 0.1727233 0.82113373 
-0.044474356 -0.057961054 0.99732774 
-0.5285174 -0.11143611 0.8415768 
-0.7390172 0.4870427 0.46544933 
-0.3836713 0.8558531 0.34686 
0.06069805 0.95076877 0.30389926 
-0.7346759 0.6128448 0.2909858 
-0.010978453 0.9971389 -0.07478954 
0.10764246 0.9704329 -0.21603988 
0.09281176 0.9933081 -0.06873876 
-0.08482365 0.9493033 0.3027014 
0.33678725 0.92935055 0.15126753 
0.0008154789 0.5701632 0.8215311 
-0.2782564 0.8427582 0.46079496 
-0.28419703 0.690779 0.66487336 
0.32845482 0.93793124 -0.11136658 
0.89549565 0.18065809 0.40675572 
0.74601036 0.36704817 0.55564755 
0.23366342 0.6250878 0.7447595 
0.8801783 0.20516784 0.4280097 
0.41495985 0.15638803 0.8962985 
-0.15066524 -0.31911352 0.93566376 
-0.25062978 0.77992004 0.57350624 
0.15094784 0.70655936 0.69136727 
-0.6695545 0.47563705 0.57049656 
-0.27234778 0.64663434 0.7125242 
-0.014139905 0.6098722 0.79237366 
-0.7785237 0.0147104645 0.62744284 
0.33258605 0.6225836 0.7083616 
0.055812236 0.63332075 0.77187425 
-0.42164782 0.3049863 0.85393006 
-0.7805363 0.35827643 0.5122511 
-0.38328537 0.8027263 0.4568619 
0.29964188 0.37503234 0.87724876 
-0.25185528 0.38876817 0.88624394 
-0.3215273 0.39453942 0.8607897 
-0.20677325 -0.022038793 0.97814065 
-0.47692356 0.6865082 0.548863 
-0.39833805 0.8127771 0.42511204 
-0.55043554 0.4844738 0.6799308 
0.07826974 0.6566823 0.7500949 
0.083734795 0.6956476 0.7134865 
-0.41013113 0.35038927 0.84203327 
-0.30267 -0.26336655 0.91598535 
-0.019298218 -0.09616206 0.9951787 
-0.09876537 0.2315124 0.96780545 
-0.057767957 0.8407363 0.53835446 
-0.70169026 0.4218657 0.5741604 
-0.898783 -0.14932242 0.41217962 
-0.96621084 -0.2513263 0.057199873 
-0.6902377 -0.37147075 -0.62095207 
-0.38586155 -0.8748164 -0.2929287 
-0.41509342 -0.88102967 -0.22690184 
-0.49716178 -0.66923714 -0.5522246 
0.6870461 -0.7264455 0.01564347 
0.70841914 -0.12615217 0.6944264 
0.28676447 -0.70360684 0.6501567 
-0.21785985 -0.41367733 0.88397294 
-0.5694499 -0.36273667 0.7376646 
0.27102932 -0.12510121 0.95440704 
-0.37256047 0.18957604 0.908438 
-0.43055528 -0.22558494 0.8739186 
-0.42342407 0.06645683 0.9034908 
-0.8255469 0.13765939 0.54728633 
-0.21233642 -0.10113301 0.97194934 
-0.24197167 0.29912084 0.9230258 
0.12882088 0.82600415 0.5487462 
0.27651283 0.8311779 0.48237336 
0.21492407 0.71973217 0.66014653 
-0.35515192 0.23880683 0.9037911 
0.15757725 0.42316464 0.892245 
0.5214078 0.3709207 0.7684738 
0.49172765 0.5079667 0.7072297 
0.029549235 0.43441093 0.90023 
0.8164389 0.44356173 0.36970338 
0.99533343 0.06462951 0.071655475 
0.56356853 -0.32333148 0.7601627 
0.5621395 0.7146049 0.41634008 
0.16602863 -0.058595713 0.9843785 
-0.26713744 0.1378812 0.9537434 
-0.8599742 0.4818251 0.16819319 
0.016642135 0.75263894 0.65822303 
0.118374705 0.67984587 0.72373825 
-0.26652402 0.3114274 0.9121283 
-0.27604935 0.7511358 0.5996598 
-0.14867578 0.2338791 0.960831 
-0.32487753 0.00029643602 0.945756 
-0.09860918 0.45844966 0.8832329 
-0.34987646 0.9253543 -0.14596608 
-0.08970058 0.96590626 0.24285571 
-0.43747637 -0.3360462 0.8340789 
-0.6941824 0.20917964 0.6887342 
-0.3051595 0.88832694 -0.34315133 
-0.3561845 0.5415919 0.7614532 
-0.27235833 0.9166071 0.2926645 
-0.49039608 0.86720425 0.08642004 
-0.29602614 0.95355886 -0.05562375 
-0.5089295 0.82503045 -0.2455924 
-0.7183712 0.09198057 -0.68955237 
-0.48735073 0.6117434 -0.6231046 
-0.14235793 0.05531874 -0.98826826 
0.50384504 -0.07622824 -0.860424 
0.23605594 -0.6559697 -0.71692497 
0.25191796 -0.53692454 -0.8051394 
0.7711842 -0.46134967 0.43867025 
0.33182088 -0.7333251 0.59340477 
0.85602725 0.24856946 0.45324448 
0.7155865 0.12185025 0.6878143 
0.6093007 -0.20925589 0.76482993 
-0.28221676 0.13594565 0.9496698 
-0.02682215 0.237565 0.9710013 
-0.07158221 0.1056381 0.9918249 
-0.34305602 -0.27722734 0.8974729 
-0.7608551 0.5774085 -0.29614043 
-0.10822134 0.99259126 0.055235013 
-0.39604753 0.9160697 -0.06294996 
-0.049410257 0.95596415 -0.28929436 
0.73152536 0.5494191 -0.4037442 
0.45332718 0.7030039 0.5479783 
0.44882262 0.8809848 -0.14974661 
0.8192815 0.49390897 0.29125908 
0.6965458 0.693361 0.18459308 
-0.07425708 0.56463414 0.82199407 
-0.9057274 0.39866498 -0.14395915 
-0.7981949 0.5287089 0.28870717 
-0.44766507 0.813899 0.37035722 
-0.46569917 0.78022945 -0.4175719 
-0.5000454 0.86295724 -0.072522126 
-0.1451108 0.59479284 0.79067343 
-0.21263143 0.32997146 0.9197319 
-0.65238625 0.69452703 0.3033553 
-0.4507597 0.7936819 0.40851524 
-0.6451255 0.69499856 -0.31747475 
-0.4614643 0.6577276 -0.595353 
-0.8490759 0.51224047 -0.12915075 
-0.6211373 0.42246008 -0.6600878 
-0.43409088 0.88809144 -0.1511913 
-0.75518334 0.60255885 0.25811023 
-0.8419243 0.16135496 -0.5149059 
-0.45005062 0.74410576 -0.49372172 
-0.14713192 0.9344683 0.32422423 
-0.27226624 0.9445021 -0.1838122 
0.2016311 0.9715287 -0.12440651 
0.34942266 0.54640585 -0.76114684 
0.25729167 0.95978504 0.11231104 
0.4675226 0.79707354 0.38222575 
0.5971322 0.73764765 -0.31513366 
0.29440975 0.87568974 0.3827408 
0.3208914 -0.14879039 0.93535566 
-0.024382954 0.512327 0.85844433 
0.16719432 0.40559527 0.8986316 
0.04360393 -0.4469051 0.8935181 
-0.1821609 0.102795854 0.9778806 
0.1406471 -0.6662939 0.73230517 
0.044776205 -0.62803435 0.7768964 
-0.32979435 -0.12928946 0.9351577 
-0.06390354 0.5725012 0.8174098 
0.6348146 -0.06045192 0.77029604 
0.7609304 -0.006332984 0.64880264 
0.11594735 -0.06820665 0.9909108 
-0.099909626 0.2714642 0.9572488 
0.30971244 -0.060034104 0.9489332 
0.10776596 0.7860774 0.60866165 
0.65175873 0.24222448 0.7187058 
0.47836006 0.6750955 0.5616207 
0.31456503 0.7097317 0.63034105 
0.35537365 0.32373318 0.8768731 
0.2163313 -0.42005333 0.8813377 
0.07266629 0.10020313 0.99231 
-0.34550345 -0.2537763 0.90345174 
-0.94060683 -0.24866611 0.23113632 
-0.9525828 -0.046983663 0.30063057 
-0.81482893 -0.39631584 0.4230695 
-0.6602687 0.22551511 0.7163716 
-0.646043 0.74529076 0.16483381 
-0.9108873 0.32687423 -0.25186852 
-0.93819314 0.3431905 0.044876553 
-0.95049083 0.19893898 -0.23872665 
-0.5729577 -0.07239549 -0.8163814 
0.09320576 0.75040305 -0.65437603 
0.71775913 -0.15618394 -0.6785489 
0.3572342 0.07588458 0.9309271 
0.064312674 0.12382493 0.99021786 
-0.11077487 -0.17659493 0.9780303 
-0.52986425 0.28302616 0.7994624 
-0.67696387 0.66364497 0.3182692 
-0.35782024 0.2125685 0.9092741 
-0.29382667 0.9494689 0.11033932 
-0.4193944 0.830816 -0.3658595 
-0.42106763 0.64211965 0.6406126 
-0.26967052 0.8986703 0.34593272 
0.3102264 0.8116036 0.49503443 
0.6265073 -0.2558264 0.7362347 
0.38569602 -0.0548162 0.9209961 
-0.44876853 0.36043847 0.81773525 
-0.06855372 -0.30182585 0.9508952 
0.07107143 -0.15554209 0.9852693 
-0.16898014 -0.028690144 0.9852019 
-0.2686171 0.71303403 0.6476322 
0.037860487 0.3298445 0.9432758 
-0.12668414 -0.0891686 0.98792726 
-0.5196902 -0.096746884 0.84885925 
-0.14443249 0.38137174 0.9130689 
0.39207786 -0.3123219 0.8652919 
-0.026425676 0.47684258 0.8785914 
0.12673244 -0.23144823 0.9645573 
0.23413588 0.2105505 0.94913065 
-0.50895864 -0.5889887 0.6277368 
-0.2177548 -0.6571136 0.72165406 
-0.06862702 -0.12426153 0.9898735 
-0.6957936 -0.24036404 0.67682815 
-0.03375084 0.42475894 0.9046771 
-0.6521594 0.07668385 0.7541935 
-0.3828437 -0.0008431885 0.92381275 
-0.88682175 0.4364418 -0.15187441 
-0.9045931 0.4013552 0.14361563 
-0.46658027 0.8535162 0.23197654 
-0.77899104 0.11953374 -0.61553615 
0.5848056 -0.54736835 -0.5986572 
0.28419125 -0.08464181 -0.95502424 
0.9739069 0.08169903 -0.2117326 
0.76610684 0.33981428 0.54553324 
0.29216596 0.3571137 0.8871916 
0.6704308 0.5215318 0.52775675 
0.08260248 0.89481914 0.4387203 
0.36908793 0.7355184 0.5681433 
-0.57503265 0.3116687 0.75643903 
0.0143165765 0.3791748 0.92521435 
-0.41830993 0.5169989 0.7468125 
-0.45315787 0.7298568 0.51181734 
-0.33214933 0.93937945 -0.08510607 
-0.13330981 0.954145 -0.26802245 
0.1696889 0.7097632 0.6836972 
0.3730746 0.62011623 0.69012403 
0.38760045 0.84952366 0.35787624 
0.50743866 0.38323763 0.771774 
-0.51727796 0.5676598 0.64045763 
-0.43295017 0.90053105 -0.03997544 
-0.8639286 0.37887084 -0.33178952 
-0.24362671 0.13918035 -0.9598307 
0.54224336 0.4848591 -0.68620974 
0.9426115 0.28358144 -0.17625295 
0.8730764 0.48572156 0.04257093 
0.83817095 0.3541321 0.41480112 
0.003552258 0.8452715 0.5343254 
-0.70965093 0.40573022 0.57600224 
-0.9807029 0.018927071 0.19458595 
-0.7636454 -0.28703466 0.5783224 
-0.6687792 0.5876942 0.455357 
-0.41883513 0.88547957 0.20125389 
-0.0016942793 0.70827097 0.70593864 
0.29234034 0.86736387 0.4027617 
0.36460268 0.2868372 0.8858834 
0.46973005 0.6617416 0.5843387 
-0.054264918 -0.17163722 0.98366463 
0.078853376 0.28707126 0.95465827 
-0.5674364 -0.5483691 0.6142534 
-0.7472774 -0.26059428 0.6112832 
-0.682448 0.60664463 0.40773395 