# OOMMF: rectangular mesh v1.0
# Segment count: 1
# Begin: Segment
# Begin: Header
# Desc: Time (s) :  2.619999999999996e-07
# Title: m
# meshtype: rectangular
# meshunit: m
# xbase: 2e-09
# ybase: 2e-09
# zbase: 5e-10
# xstepsize: 4e-09
# ystepsize: 4e-09
# zstepsize: 1e-09
# xmin: 0
# ymin: 0
# zmin: 0
# xmax: 1.024e-06
# ymax: 1.024e-06
# zmax: 1e-09
# xnodes: 256
# ynodes: 256
# znodes: 1
# ValueRangeMinMag: 1e-08
# ValueRangeMaxMag: 1
# valueunit: 
# valuemultiplier: 1
# End: Header
# Begin: Data Text
0.41392118 0.45730716 0.78710836 
-0.0035296357 0.31162757 0.9501978 
0.695619 0.46398437 0.54848236 
0.0326185 0.35355958 0.9348432 
-0.6669961 0.5576709 0.49408436 
-0.49109524 0.7759005 -0.39598492 
0.056651223 0.8745994 -0.4815252 
0.77498156 0.6278973 0.07175409 
0.019671887 0.744813 -0.6669833 
-0.19129823 0.9678968 -0.16303615 
0.08027173 0.97396624 -0.21200511 
0.061827537 0.43709433 -0.8972881 
-0.031680934 0.21472558 -0.9761605 
-0.14745803 0.7628949 -0.62948203 
-0.19586329 0.7051849 -0.68143374 
0.45032856 0.54574007 -0.7066626 
-0.5006914 0.7825408 -0.37005162 
-0.19182628 0.9595047 -0.20628507 
0.05497445 0.9958627 0.07235515 
0.17881936 0.9820727 -0.059640124 
-0.2063881 0.97581303 -0.07206202 
-0.07838063 0.7851447 -0.61433256 
-0.79321986 0.2324011 -0.56284297 
0.07515537 0.748435 -0.6589361 
-0.2777591 0.07482127 -0.95773256 
0.014109337 -0.54674596 -0.8371797 
0.514795 -0.1420889 -0.8454566 
0.42475757 -0.8166417 -0.39073965 
0.7351691 -0.6740727 0.071780756 
0.30433157 -0.8337825 0.46063998 
0.5531119 -0.75946957 -0.34245178 
0.5359067 0.1866443 0.82338816 
0.6598001 -0.1283417 0.7404001 
-0.12864506 -0.18453424 0.97437036 
-0.32091606 0.7902156 0.5220844 
-0.20509231 0.9568386 0.2059054 
-0.00023874606 0.77030385 0.637677 
-0.61003345 0.6124117 0.5028033 
-0.7471096 0.6646859 0.0044778865 
-0.5774358 -0.2809119 -0.7665876 
0.33815575 0.71708256 -0.60946155 
0.415592 0.23948218 -0.87745744 
-0.035235528 0.08481622 -0.9957735 
0.8047394 -0.26702738 -0.5301801 
0.8269528 0.4517082 0.33482677 
0.4100995 0.52644235 0.74476635 
0.6751969 0.2670675 0.687593 
0.6086459 0.46510664 0.64282656 
0.73716354 0.5678459 0.36625278 
0.62902707 0.7740962 -0.07141503 
-0.16051474 0.6054704 0.779513 
-0.15737273 0.46001622 0.8738529 
0.7240221 0.436802 0.53385025 
-0.14659566 0.9797041 0.13671051 
-0.23528586 0.93330306 0.27126738 
-0.07361883 0.9955981 -0.058006167 
0.45161825 0.7615338 0.4648733 
0.14053276 0.8131523 0.56483084 
-0.8171762 0.2628323 0.512974 
-0.21493039 0.36791122 0.90468025 
-0.42922562 0.71405196 0.55307794 
-0.38580632 0.36811903 0.8459562 
0.02570364 0.25151417 0.96751225 
-0.34509453 0.6085129 0.71457815 
-0.4861632 0.017261242 0.87369764 
0.26391008 0.6888697 0.67513704 
0.027976114 0.9800605 0.19672038 
0.21095406 0.38345054 0.8991463 
-0.9123916 0.31981117 -0.25546506 
-0.3841466 0.88620216 -0.25899288 
-0.12036015 0.70199025 -0.70194244 
0.24002232 0.89381105 -0.37880227 
-0.23158248 0.9256432 -0.2992561 
-0.16226488 0.9365929 -0.31058645 
0.015358666 -0.1012813 -0.99473935 
0.4849372 -0.5036219 -0.7149832 
0.640981 -0.41462898 -0.64593047 
0.42184824 -0.068074115 -0.9041073 
0.9888248 -0.109078854 -0.10162411 
0.68615264 -0.31387848 -0.65625834 
0.3770832 0.41753545 0.826724 
-0.08882772 0.53467286 0.8403776 
0.6861206 0.7241847 -0.06924657 
0.22193095 0.97495437 -0.014516621 
-0.5199935 0.60108113 -0.60688406 
-0.5059347 0.8615683 -0.041595444 
0.57809323 0.8148478 0.04279275 
0.4990082 0.82103366 0.2772987 
-0.49648038 0.85541123 0.14757694 
0.006545624 0.8570962 -0.5151149 
0.4733403 0.8562258 0.20694566 
0.45853323 0.8886688 -0.0038796952 
0.8432746 0.38346556 0.37661952 
0.3916779 0.85997146 0.3271659 
-0.2593504 0.79873794 -0.54291356 
-0.6835419 0.6484868 -0.33501557 
0.14549537 0.6760348 -0.7223628 
0.39700404 0.7011713 -0.59223866 
-0.25870344 0.8666576 -0.42658776 
0.5030976 0.009368173 -0.8641789 
0.72640127 -0.01100366 -0.6871828 
0.80804366 0.42327383 -0.40976197 
0.54727316 0.7242075 -0.41954213 
0.8260002 0.5636687 0.0011242704 
-0.09408849 0.606332 -0.7896258 
0.8926282 0.44936067 -0.035914473 
0.6805951 0.13458116 0.7201932 
0.11096271 0.68146944 0.72338563 
-0.9836697 0.02469569 0.17828074 
-0.40548107 0.91131365 -0.07136239 
0.0857747 0.8625312 -0.49868095 
0.13617295 0.98851573 0.065525465 
0.3211603 0.8829862 0.34233263 
-0.6493501 0.5345266 -0.5409489 
-0.17257473 0.8124493 -0.556906 
0.43016005 0.54454273 -0.7200247 
0.93944955 0.34212524 0.019619247 
0.9246247 0.28232047 0.2556648 
-0.03806916 0.9582262 0.28346667 
0.0718541 0.95620507 -0.28374076 
0.220139 0.89594316 -0.38577813 
0.80564785 0.57988703 0.12108958 
0.6104509 0.22953205 0.7580665 
0.039330576 0.041490193 0.99836457 
-0.50109357 0.86539274 -0.0007901768 
-0.004652562 0.9655797 0.2600658 
0.7502275 -0.14654312 0.64473546 
0.879091 0.16196416 0.4482931 
0.3322399 -0.9188577 -0.21287869 
-0.1752442 -0.98277175 0.058729205 
0.42738998 -0.8143019 0.39274728 
0.35496038 0.1316337 0.92556787 
-0.015253896 0.48573825 0.87397116 
0.20117629 0.226549 0.95299727 
0.22319235 0.9295153 0.29357558 
-0.33387977 0.9138109 0.23124442 
-0.39221096 0.8094543 0.43698308 
-0.48131448 0.7506709 0.45258093 
-0.7910151 0.31677902 0.52339876 
-0.20771222 -0.58887637 0.7810765 
-0.08199409 -0.08352493 0.9931267 
0.34893674 -0.68957824 0.63460624 
-0.3606183 -0.93160015 0.045559604 
-0.608406 -0.7919793 -0.05109708 
-0.65188277 -0.758319 0.0010740687 
-0.8208153 -0.3338143 0.46349797 
-0.80435646 -0.3179607 0.50190794 
-0.17585018 -0.78641325 -0.5921409 
-0.29111812 -0.68570036 -0.66713214 
0.528592 -0.7837317 -0.32612157 
0.27328563 -0.79108167 -0.54727024 
0.12757063 -0.9795819 -0.15538712 
0.15587857 -0.09834421 -0.98286843 
0.08195875 -0.7510744 -0.6551107 
-0.12257429 0.17088221 -0.9776374 
-0.26676866 0.059610967 -0.9619154 
0.13685097 0.6212579 -0.77156365 
0.83183867 0.4450862 -0.33157635 
-0.30541104 0.8622651 0.40400866 
-0.20700113 0.80033165 -0.5626897 
-0.17795044 0.3157907 -0.9319925 
0.44843304 0.54149204 -0.71112186 
-0.053734012 -0.028395437 -0.9981515 
0.28538308 0.259013 -0.9227508 
0.84849197 0.52917695 -0.005755928 
-0.009300795 0.7947098 0.60691845 
0.023221072 0.9363017 0.35042816 
0.0809286 0.97551596 -0.20449749 
0.4375372 0.8172576 -0.37503517 
0.554603 0.74904835 -0.36241168 
0.46491787 0.80455816 -0.3695099 
-0.26613808 0.72707844 0.6328724 
-0.106384784 0.9797675 -0.1695225 
0.47018182 0.8299698 -0.30013183 
0.33678246 0.09011918 -0.93726 
0.9551167 0.2584341 -0.14478941 
0.8426646 -0.43875873 -0.31210107 
0.86421365 0.4105083 -0.29089138 
0.656854 0.7408845 0.14011818 
-0.16577564 0.8253363 0.5397577 
-0.8918345 0.29175088 0.3457062 
-0.010827043 0.64810497 0.7614741 
0.15004872 0.9854868 -0.07938004 
0.52263486 0.7095312 0.47267154 
0.12784497 0.9605906 0.24682288 
-0.17223419 0.57896525 -0.7969534 
-0.6692257 0.7162218 0.19789732 
-0.6238636 0.4143559 -0.66264886 
-0.59960777 0.71934545 -0.35073176 
-0.4250465 0.90418845 -0.042173784 
-0.4572857 0.88753605 -0.056300208 
-0.35115343 0.67956257 -0.64411646 
0.13263726 0.95911837 -0.24999873 
0.45160404 0.8704019 -0.196098 
0.74765444 0.3238652 -0.57976216 
-0.03680553 0.693857 0.71917164 
-0.53878504 0.77505636 0.33014902 
-0.115728766 0.6910521 -0.7134801 
0.37262666 0.5520843 -0.7458903 
-0.15287974 0.9020677 0.40361077 
-0.20644751 0.9453581 0.25234407 
0.7381778 0.6650504 -0.113144405 
0.2781748 0.82546 0.4911563 
-0.19719768 0.9315361 0.3055385 
-0.74848086 0.5602313 0.3548483 
-0.4744316 0.8802652 -0.006933979 
-0.39040783 0.90578717 0.16471641 
-0.42051995 0.88637674 0.1936478 
0.021401139 0.935364 -0.35303846 
-0.29157326 0.7272287 -0.62138844 
-0.22748415 0.5978388 -0.768661 
-0.20390165 0.4654637 -0.8612594 
0.11465465 0.6610025 -0.7415726 
-0.52028173 0.48436993 -0.7033439 
-0.47458538 0.5876364 -0.6553261 
-0.27660075 -0.2207673 -0.9352828 
0.102918506 0.92947036 -0.3542493 
0.2592881 0.94799036 0.1846188 
0.1672753 0.9743041 0.15083309 
-0.027422737 0.98100305 -0.19204444 
-0.27776006 0.8847817 -0.37418008 
0.32365507 0.86144716 -0.3913518 
-0.14110143 0.7453515 -0.6515686 
0.015956672 0.97170395 -0.23566282 
0.10795636 0.6681581 -0.7361455 
0.732705 0.27565247 -0.6222211 
0.70432174 -0.11043873 -0.7012377 
0.6224202 -0.33831677 -0.7057867 
0.8791568 -0.44569963 -0.1686271 
0.89007115 -0.4505449 0.069157645 
0.7318005 -0.63472575 0.24817589 
0.18564269 -0.29715276 0.9366093 
-0.15361291 -0.98670363 -0.053095944 
0.43577746 -0.8805764 0.18623501 
0.62079954 -0.5717129 -0.53642565 
0.6813192 -0.40044114 -0.6127407 
0.9621213 0.08913117 -0.2576397 
0.8890833 0.43406928 0.14530942 
0.7050877 0.6074788 -0.36581537 
0.6384684 0.45773306 0.6187396 
0.111044705 0.015331017 0.9936972 
-0.52716935 0.43738693 0.7285501 
-0.4740587 0.47500265 0.7413778 
-0.7446691 0.34620363 0.57062334 
-0.1341857 -0.64570427 -0.751705 
0.62826663 -0.41235527 -0.65973043 
0.5684975 -0.43301323 -0.6995072 
0.5420783 0.4095898 0.73374885 
-0.5797209 0.7574669 0.30027932 
-0.18386407 0.49035957 0.8519046 
-0.094380595 0.5436701 0.8339755 
-0.055672977 0.12615393 0.9904472 
-0.13116328 -0.18527947 0.9738931 
0.46500826 0.48045945 0.74359 
-0.56555444 0.81554335 0.12262696 
-0.570333 -0.022601478 -0.8211026 
0.0041933577 0.6818419 0.7314876 
0.15226372 0.057039022 0.98669267 
0.37937275 0.17546004 0.90845484 
0.32006457 -0.050568685 0.94604516 
0.3639121 0.11706832 0.9240471 
0.17874232 0.80545497 0.5650607 
-0.030072108 0.7423211 0.6693693 
-0.06726452 0.6237026 0.77876216 
0.10678279 0.6888607 0.7169857 
-0.45569882 0.4466631 0.7699551 
-0.08205787 0.94735944 0.30947813 
0.3045212 0.7501839 -0.58693355 
-0.35284668 0.7485739 -0.5613702 
0.009518919 0.9999523 0.0021996247 
0.03540343 0.88927114 -0.45600808 
0.03092777 0.9004486 -0.43386167 
-0.3318578 0.9270524 -0.17448305 
-0.80202353 0.51802456 -0.29733622 
-0.20348752 0.9560399 -0.21114151 
-0.076573946 0.98948675 -0.12268826 
0.102008075 0.9873659 0.121256076 
-0.72244954 0.68488777 0.094844535 
-0.6869821 0.34835207 -0.6377355 
-0.07924672 0.8883122 -0.45235088 
-0.30381167 0.08851991 -0.94861096 
-0.293941 0.22709529 -0.92845386 
0.20052874 -0.06902773 -0.977253 
0.30129513 -0.64169914 -0.70529675 
0.6251519 -0.7804557 0.008605767 
0.845399 -0.5288664 0.0748395 
0.5121643 -0.19392455 -0.8367085 
0.893537 -0.4274936 -0.13726218 
0.95291144 -0.19679108 0.23072341 
0.29084417 -0.090950586 0.95243776 
0.7894098 0.08385781 0.6081118 
-0.29339388 0.1443392 0.9450324 
0.06991368 0.6184711 0.78269136 
-0.51197404 0.53411096 0.6727616 
-0.9345171 0.35584307 0.007327468 
-0.6767161 0.6648558 -0.31626302 
0.106361985 0.4158328 -0.90320003 
-0.037235852 0.94694895 -0.31921977 
-0.2728459 0.8978 -0.34570244 
0.34442264 -0.31893975 -0.88297826 
0.9985853 0.029842965 0.0440119 
0.9567129 0.260013 0.13074295 
0.8261101 -0.31471804 0.46743414 
0.24604037 -0.08894458 0.9651699 
0.36883566 0.92947316 0.006319773 
0.6445434 0.35336488 0.6780096 
-0.46630988 0.65999705 0.58903235 
-0.69090843 0.71951294 0.07033316 
-0.10331327 0.7921956 0.6014586 
0.14420697 0.76241785 0.6308117 
0.19640383 0.8571882 0.47608188 
-0.08977991 0.7196318 0.68852717 
0.13505825 0.9841647 -0.114800245 
-0.5549257 0.682611 0.4754995 
-0.6784946 0.6498835 0.34248576 
-0.4656247 0.618229 0.6332351 
0.089976884 0.5352145 0.8399105 
-0.04897266 0.6316981 0.7736661 
-0.19200298 0.011828394 0.9813231 
0.6189649 -0.033850703 0.78468883 
0.24049257 0.66449016 0.70754236 
0.13532075 0.8933502 0.42850164 
-0.08540255 0.7582744 0.6463177 
0.10750387 0.19508922 0.9748759 
-0.5424691 0.24930768 0.8022301 
-0.52793413 0.6740129 0.516713 
-0.0095316395 0.9808842 -0.19435868 
-0.0045622513 0.7084669 -0.7057294 
0.24499936 0.803993 -0.5418216 
-0.04499787 0.833097 -0.5512936 
0.47694826 0.5799244 -0.6604605 
0.20072898 0.6597628 -0.7241692 
0.71671355 0.41726455 -0.55875933 
0.75201017 0.58666015 -0.30051723 
0.7278404 0.5962442 0.33873463 
0.65622246 0.6389397 0.40140793 
0.28418726 0.3909193 0.87545407 
0.39169112 0.29773182 0.8705941 
0.7954707 0.42532343 0.43165553 
0.115200184 0.6397132 0.75993156 
0.39766634 0.905234 0.14971 
0.29370272 0.94941527 -0.111127704 
0.23737928 0.76672995 0.5964699 
-0.13006513 0.52917534 0.83848464 
-0.34341514 0.92022496 0.18775554 
0.21825609 0.53714436 0.81476396 
0.33148184 0.61246437 0.7176401 
-0.15745573 0.6728962 0.72278523 
0.26772907 0.14900617 0.95190257 
-0.10302799 0.20335922 0.9736685 
-0.090438955 0.99190384 0.08915027 
-0.022098355 0.9957745 -0.089133896 
0.106261365 0.9629154 -0.24799663 
-0.4498021 0.88908505 0.084888436 
-0.38928184 0.732283 -0.55876774 
-0.10669651 0.5138738 -0.85120475 
0.782171 0.35937747 -0.5089758 
0.70246136 0.62179303 -0.34629694 
0.47065637 0.8818732 -0.027970493 
0.9560109 0.13157442 -0.26216695 
0.37715802 0.90927595 -0.17598054 
0.6835785 0.61566097 -0.39202297 
0.60696065 0.5217498 0.5994798 
0.036812708 0.68484324 0.72775996 
-0.601372 0.644149 0.47267738 
-0.7547789 0.6082195 0.24571878 
0.21776517 0.9690005 0.116689086 
-0.060017552 0.57577556 0.815402 
-0.13285957 0.56134033 0.8168509 
-0.45892206 0.74506104 0.48401937 
0.4508437 0.72981083 0.5139224 
0.044581354 0.9979312 -0.04632315 
0.040940285 0.9890803 -0.14157729 
0.28379035 0.85145694 -0.44100368 
0.26968616 0.8310529 0.4864367 
-0.095835485 0.8356577 0.540825 
-0.15403464 0.476469 0.8655927 
0.09046416 0.5667321 0.81892055 
0.24468671 0.49704742 0.8325097 
-0.54882723 0.8340695 0.055828966 
-0.26254603 0.39916226 0.8784869 
-0.6008519 -0.14140627 0.7867537 
-0.79669726 -0.59236306 -0.11991477 
-0.20368882 -0.8722023 0.444718 
0.24839196 -0.6186295 -0.74538517 
0.5997343 -0.7382712 -0.30866575 
0.5632708 -0.60851544 0.55895895 
0.6542357 0.21085717 0.72630227 
-0.054307245 0.008414416 0.99848884 
-0.36346593 0.09971717 0.92625535 
0.77281195 -0.024501627 0.634162 
0.1824867 0.85995114 0.47663686 
-0.20382184 0.4806689 0.85288584 
0.14712553 0.69759303 0.7012262 
-0.9206727 0.19449887 0.33842587 
-0.39778793 -0.85492826 0.33296007 
-0.57815444 -0.35131374 0.73642117 
-0.8985856 -0.0046399054 0.43877378 
-0.66003627 -0.7357591 -0.15169303 
-0.79588455 -0.6002606 -0.07908823 
-0.60643864 -0.7904092 -0.08651934 
-0.22900632 -0.48585713 -0.8435041 
0.36676425 -0.6043047 -0.70731884 
0.10070222 -0.6229228 -0.7757747 
0.2445647 -0.8213212 -0.51538295 
0.55446064 -0.80987597 0.19150612 
0.22042009 -0.69761723 -0.6817222 
0.28029153 -0.77269757 -0.5695395 
0.34090358 -0.301569 -0.8904161 
-0.15940218 -0.2826587 -0.9458832 
0.024529366 0.43239933 -0.90134853 
0.58615273 0.712989 -0.3848011 
0.053477455 0.9958124 -0.07414765 
0.32555234 0.6169286 -0.7165298 
0.09100545 0.89077324 -0.4452428 
0.3703373 0.90475446 -0.21040356 
-0.16007969 0.8866063 -0.43393993 
0.63970053 0.76830226 0.022249639 
0.020641731 0.9952782 -0.09484381 
-0.16775057 0.6946956 -0.6994697 
0.13093683 0.9718607 0.19581234 
-0.21724376 0.9584019 0.18512425 
-0.48599836 0.85807955 0.16584697 
-0.55595356 -0.13895766 -0.819516 
0.68431157 0.07055812 -0.7257681 
0.8875294 0.35037664 0.2992121 
0.71032065 0.6484126 0.27387175 
0.40603077 0.40664595 0.8183998 
0.06906492 0.9191497 0.38780665 
0.19587092 0.84718174 0.4938802 
0.6173829 0.68402827 -0.38851488 
0.939158 0.21103813 0.27100778 
0.85448426 -0.16900335 0.49121737 
0.5344492 0.8451568 0.00860223 
0.64030856 0.6204575 0.45281076 
0.013153922 0.51939267 0.85443443 
-0.94735426 0.28711337 0.14172491 
-0.44254333 0.8294189 -0.34091038 
-0.061068032 0.83920443 0.5403765 
0.35181126 0.8276681 0.43725783 
-0.082716264 0.9846939 0.15341447 
-0.56475526 0.81815267 0.1080643 
-0.7565778 0.48789662 0.4353701 
-0.97151715 0.13103853 -0.19744222 
-0.7074687 0.70628273 0.025548382 
-0.7543833 0.62780225 -0.1917556 
-0.08175387 0.9052637 -0.4169102 
-0.10100305 0.887927 -0.44875854 
-0.5200597 0.7598919 -0.39000285 
0.24007447 0.63715935 -0.7323881 
0.30907974 0.8826194 0.3541929 
-0.217991 0.53421694 0.81675714 
-0.6081908 0.7831787 0.12936461 
0.35483366 0.87085336 -0.3401583 
0.5200841 0.6596635 -0.5425465 
0.32100642 0.9232285 -0.21119706 
0.027339635 0.7551553 0.6549757 
0.59847176 0.7356107 0.317346 
0.33548203 0.89710486 0.28749734 
-0.048283726 0.7224863 0.6896972 
-0.6933864 0.6723986 0.25902778 
-0.15762486 0.9864556 -0.045384713 
-0.3292589 0.94289815 -0.05031638 
0.26702473 0.96292895 -0.03828509 
-0.39272484 0.8400434 0.37429172 
0.25057912 0.11785967 -0.960895 
-0.5229744 0.59857285 -0.6068018 
-0.28419128 0.938364 -0.1967447 
0.44843125 0.7479886 -0.48930833 
0.34418723 0.8499433 -0.3989133 
0.08952246 0.916616 -0.3896164 
-0.56755924 0.5740723 -0.5901844 
-0.4481189 0.8403143 -0.30505943 
0.08378566 0.9594764 0.2690446 
-0.061047688 0.7344888 0.67586946 
-0.31091523 0.8716271 0.37894332 
-0.31042007 0.945715 -0.096241966 
0.06598673 0.8135922 0.5776796 
0.25916877 0.94002 0.22179694 
-0.2998337 0.9530155 -0.043142583 
-0.5934329 0.41125542 -0.6918861 
0.30714458 0.5936503 -0.7438022 
0.76487964 0.04037595 -0.64290655 
0.5153848 0.369732 -0.7730956 
0.73787934 -0.42958418 -0.52056855 
0.9310879 -0.3592176 -0.06354538 
0.8746434 -0.3761176 0.30583414 
0.86668915 -0.4669164 -0.17561023 
0.3027456 -0.95283043 -0.021429973 
0.45605734 -0.8014684 -0.38685918 
0.428582 -0.36989626 -0.8243144 
0.78457594 -0.039322514 -0.61878467 
0.83640015 -0.47319865 -0.27661878 
0.99299353 0.09071124 0.07573216 
0.58902085 0.78681564 0.1843245 
0.5954645 0.22500765 0.77122873 
0.46551982 0.49414152 0.7342449 
-0.75113255 0.1326201 0.64669293 
-0.69897264 0.32351443 0.6377897 
-0.9107271 0.25590968 -0.32417044 
0.18666534 0.22384067 -0.9565832 
0.6468166 0.08155033 -0.75827295 
0.9692212 0.110608205 -0.21994604 
0.22485863 -0.554653 0.8011234 
0.19853108 0.4976538 0.84434956 
0.19692354 0.39343658 0.89801383 
0.11035479 0.13238391 0.9850362 
-0.11053151 -0.10217404 0.98860675 
0.26905185 0.20944194 0.94007725 
0.16775091 0.38640738 0.9069449 
0.08984091 0.46646678 0.8799645 
-0.6284194 0.38413602 0.6764087 
0.44389495 0.39975348 0.8019692 
0.31138694 -0.18243243 0.9326074 
-0.0016188311 0.19596672 0.9806093 
0.60603094 -0.05303644 0.793671 
0.19978566 -0.011733383 0.9797694 
-0.026935741 -0.11606009 0.9928769 
-0.068094246 0.66084033 0.74743116 
-0.01827492 0.7684806 0.63961226 
0.6526986 0.4878071 0.57968 
-0.31670576 -0.03001668 0.94804883 
0.13098454 0.8496867 0.51076 
-0.20025648 0.8703614 0.44985372 
-0.092546076 0.78543776 0.61198264 
-0.21288067 0.9281823 0.3052203 
-0.90139157 0.4291026 -0.058001697 
0.13077211 0.9794404 -0.15360759 
-0.21750428 0.91391486 0.34271207 
-0.6585444 0.7444639 -0.109967194 
-0.7702337 0.5528554 0.31794843 
-0.022208765 0.9885007 0.14957635 
-0.18557015 0.7520956 0.63238907 
-0.29628676 0.7804576 0.5505452 
-0.4108298 0.8838894 -0.2235141 
-0.29146004 0.900903 -0.3215973 
-0.2509694 0.6358137 -0.72990096 
-0.49863696 -0.18676877 -0.8464506 
-0.2710847 0.0016025741 -0.9625542 
-0.0029219228 0.52136344 -0.85332984 
0.5848638 -0.05837114 -0.8090285 
0.79923916 -0.3167423 -0.5107751 
0.5712291 0.43881175 -0.69364375 
0.95485574 0.020895865 -0.296334 
0.99236965 -0.11781996 -0.03634678 
0.4609928 0.016373554 0.88725287 
0.37920776 0.79019743 0.48144546 
-0.709829 0.31037956 0.6323033 
-0.23473659 -0.28632987 0.9289316 
-0.5803251 0.30979565 0.75315976 
-0.9571158 -0.050049264 0.28534973 
-0.569951 0.630588 -0.5267967 
-0.6835734 0.5659728 -0.4608713 
-0.07090967 0.98845625 0.13388826 
0.017368143 0.9680125 -0.2503002 
0.73113555 0.4875816 -0.47718462 
0.86296576 0.4404946 0.2474965 
0.8827751 0.46245164 0.082743675 
0.41176978 -0.17215204 0.8948795 
0.0353471 0.32027325 0.9466655 
0.4119411 0.61748165 0.67009026 
0.052592117 0.68101823 0.73037547 
0.21807978 0.30044904 0.92853206 
-0.3431639 0.74217653 0.5756844 
-0.29627407 0.6554456 0.6947034 
0.33894178 0.14619811 0.9293787 
0.4848911 0.3295705 0.8101013 
0.7792044 0.5784553 0.241309 
-0.20651221 0.6959975 0.6877065 
0.29159042 0.52688557 0.7983525 
-0.19959715 0.9063059 0.37251925 
0.1255877 0.47120956 0.8730345 
0.5462583 -0.0053647384 0.8375997 
-0.6104626 0.0975072 0.7860202 
0.20280157 0.17017604 0.96431935 
0.28132692 0.5203479 0.8062837 
0.40856293 0.33731997 0.8481106 
0.54289144 0.18462962 0.81925625 
0.30422032 -0.30836472 0.90131086 
-0.12905708 -0.35276604 0.92676884 
0.20164987 -0.0048066447 0.9794459 
-0.005464733 0.7884873 0.61502695 
-0.08496166 0.684507 -0.72403854 
0.20014572 0.73321486 -0.64987516 
0.3153675 0.94721895 -0.057616603 
0.20589454 0.9713671 -0.11854671 
-0.3902371 0.8829316 0.26104945 
0.5577285 0.82038504 0.12612413 
0.9729901 -0.21525055 0.08341204 
0.8750087 -0.20932029 0.43651453 
0.56171644 0.34501356 0.7519578 
0.100922056 0.6417318 0.7602599 
-0.43805432 0.63914204 0.6321439 
0.2609452 -0.030005686 0.96488726 
0.7443512 -0.02271359 0.66740197 
-0.17685826 0.7798392 0.60047644 
-0.010996541 -0.014962833 0.99982756 
-0.21559238 -0.3398408 0.9154389 
-0.15324822 0.51318896 0.8444834 
-0.041694324 0.70771855 0.70526314 
-0.5523809 0.7204002 0.41940293 
-0.23948184 0.20818993 0.94831717 
-0.14188896 0.3177609 0.9374943 
0.013698635 0.66773856 0.74426985 
-0.48157266 -0.14231065 0.8647749 
-0.43126872 0.6397468 0.6361851 
-0.49476272 0.64061064 0.58722043 
-0.16845289 0.45691338 0.8734151 
-0.82820845 0.51847595 0.21272881 
-0.9335219 0.35801348 -0.019057617 
-0.48012418 0.85306543 -0.20435321 
0.3354246 0.9288675 -0.15714848 
0.3373456 0.90018195 0.27544582 
0.9969829 -0.047772795 0.061179876 
0.98383594 -0.15308022 -0.092916496 
0.85750437 0.28486842 0.4284114 
0.3827014 -0.66654396 0.63973343 
0.13963363 0.90824395 0.39445585 
-0.17076543 0.52253896 0.8353396 
-0.8218188 0.24542066 0.51418144 
-0.13293043 0.93922246 0.31652918 
0.11236124 0.98965836 -0.089170985 
0.31215286 0.45787743 0.8324114 
0.36704618 0.7915455 0.48860303 
0.1061899 0.5043481 0.8569462 
-0.1866369 0.47267902 0.8612441 
0.45384875 0.60653603 0.65279055 
0.66407907 0.7304087 0.15969406 
0.36845633 0.61010283 0.70143753 
0.34986606 0.93612164 0.035638306 
0.2780365 0.40541914 0.870822 
-0.22040004 0.04384017 0.9744239 
0.011462392 0.14365196 0.98956186 
0.06510843 0.31316438 0.9474646 
-0.16361241 -0.38948587 0.906384 
-0.56604034 0.21715376 0.79526263 
-0.43078944 0.6577442 0.6178941 
-0.524538 -0.30237523 0.7958827 
-0.7639495 -0.45170617 0.46080658 
-0.05510265 -0.37888363 -0.9238025 
-0.058251508 -0.4567124 -0.8877052 
0.48650983 0.18684326 -0.8534623 
0.70551986 -0.2558588 0.66089183 
0.6657597 0.45158583 0.5939987 
0.5753896 -0.028919721 0.81736803 
0.2711217 -0.23863584 0.9324945 
0.0032206802 -0.069359936 0.9975865 
-0.33562165 0.6929918 0.63806 
-0.48045397 -0.003777591 0.8770119 
-0.7768573 -0.27392015 0.5669749 
-0.757255 -0.5507626 0.35103485 
-0.8672645 -0.37748575 0.32458732 
-0.7124894 -0.6201396 0.3283076 
-0.90840155 -0.21039055 0.3613066 
-0.97740406 -0.018987993 -0.21052481 
-0.99674416 0.079167336 -0.015289628 
-0.9723671 -0.083962925 -0.21783608 
-0.630652 -0.21918254 -0.7444711 
0.39015892 -0.5042229 -0.77041245 
0.793427 0.25534716 -0.5525139 
0.34997252 -0.3822612 -0.8552168 
0.1760909 -0.48726732 -0.8553143 
-0.13004658 -0.5297199 -0.8381437 
-0.047893688 -0.1912059 -0.9803809 
-0.15226433 0.41351834 -0.8976738 
-0.11004969 0.11104555 -0.9877034 
0.5041438 0.35384277 -0.78780365 
-0.08899367 0.9959506 0.012750721 
0.21649285 0.94774294 0.23433809 
-0.01405666 0.72891706 -0.6844578 
0.2637557 0.8485092 -0.4587649 
-0.3440221 0.9101728 0.23072557 
0.09189162 0.9110403 0.40194723 
0.55162185 0.82304543 -0.13531302 
-0.039007124 0.9986598 -0.034016892 
-0.5698542 0.4578228 -0.68239623 
-0.29317692 0.9560227 -0.008248083 
0.35111004 0.7714917 0.53058684 
0.104705945 0.9808088 -0.1644715 
-0.18654987 0.9032561 -0.38642934 
0.45891568 0.35448134 -0.8147021 
0.6621791 0.05679522 -0.7471902 
0.40245715 0.7163919 -0.5699219 
0.76373947 0.48202595 0.4293635 
0.23412578 0.89634013 0.3765099 
0.38492635 0.30165902 0.87225777 
0.60569704 0.28453103 0.74308366 
0.95203155 0.20063195 0.2310473 
0.7084634 0.2628611 0.6549685 
0.5669715 0.44833323 0.6910432 
0.37050113 0.83594096 0.4048848 
-0.09542917 0.83050257 0.5487793 
-0.52235377 0.84152216 -0.13779397 
-0.7471435 0.6492938 0.14210652 
-0.4204123 0.9073283 0.0029734352 
0.19371676 0.7068963 0.68027306 
0.12041177 0.2066748 0.97097194 
-0.29191324 0.67335016 0.67925423 
-0.4595712 0.7738191 0.43588823 
-0.90319186 0.37377903 -0.2110302 
-0.81530714 0.43289837 -0.38454282 
-0.8846012 0.17937724 -0.43047026 
-0.3057165 0.5675489 -0.76447743 
0.008293995 0.34095252 -0.940044 
-0.087430485 0.9631275 -0.2544434 
0.21316369 0.97209066 -0.0979856 
-0.04841602 0.9201684 0.38851795 
0.19746098 0.97250557 0.12345915 
0.29522368 0.89921194 -0.32289466 
0.58769107 0.69635266 0.4119616 
0.4014399 0.8836268 0.24093536 
0.20433065 0.9782909 -0.034580827 
0.3513846 0.9345569 -0.05596765 
-0.12037115 0.91315854 0.38942567 
-0.5363223 0.30836794 0.78566384 
-0.617861 0.74642503 0.24717917 
-0.6599062 0.7172123 -0.22389837 
-0.57543755 0.74147975 0.345079 
-0.56373906 0.8252172 -0.034854904 
-0.25349674 0.9578215 0.13534239 
-0.117898494 0.99127746 0.058897957 
-0.2498916 0.7486558 -0.61405927 
-0.19734609 0.70136756 -0.68493664 
-0.21946198 0.9756088 0.0048982585 
0.6098531 0.5920434 -0.52684337 
0.75731206 0.6438674 0.109148584 
-0.06414494 0.99689054 0.045768026 
0.13295102 0.82701004 0.54624027 
0.17298871 0.9743422 -0.14398687 
0.85936743 0.39978617 0.31883964 
0.7382323 0.22339839 0.6364796 
0.37285554 0.8608329 0.34633127 
0.060460147 0.88337356 0.46475348 
0.44661543 0.15364598 0.881435 
-0.047667053 0.99519277 0.08555355 
-0.37707084 0.92130905 0.09490666 
-0.6133498 0.7882015 -0.050402217 
-0.67545694 0.6639718 0.32077965 
0.32616633 0.9126115 -0.24648724 
0.7246198 0.6379308 -0.26071158 
0.6164924 -0.21347511 -0.7578691 
0.28905907 0.12738979 -0.9487976 
0.7603582 0.13438904 -0.63544875 
0.8933002 -0.39844745 0.20797703 
0.55941963 -0.6571719 -0.5051483 
0.023052065 -0.4108638 -0.9114053 
0.49953616 -0.25773084 -0.8270663 
0.8633253 -0.042549413 -0.50285083 
0.98443896 0.05592536 0.16659068 
0.6174004 0.40001604 0.6773507 
-0.34730792 0.8121714 0.46878022 
0.3507191 0.63620126 0.68720025 
0.5154508 0.81026113 0.27890414 
-0.24957919 0.55351573 0.7945633 
-0.6736106 0.51655316 0.5286035 
-0.022356426 0.98089135 -0.19326779 
0.19505504 0.4867636 -0.851478 
0.79235065 0.6089314 -0.03718873 
0.892388 -0.09310985 -0.4415588 
0.845172 -0.11720174 0.52148634 
0.9388087 0.29271486 0.18153882 
0.1310309 0.4409764 0.88790256 
-0.36545393 0.31840983 0.8746763 
-0.02017743 -0.008101747 0.99976367 
0.07722772 0.27337795 0.95880157 
0.20751643 0.8930687 0.39920613 
-0.33879066 0.261128 0.9038989 
-0.91304487 0.23970202 0.32998815 
-0.106636085 0.2686409 0.9573196 
0.52661335 -0.14997186 0.8367717 
0.43389565 0.31112608 0.8455383 
0.3470054 -0.790305 0.50498044 
0.9892902 -0.09109698 0.114045665 
0.9735412 0.085965484 0.21172498 
0.9366606 -0.07559568 0.3419828 
0.6696613 0.38543865 0.6348156 
0.64108837 -0.29492062 0.70853907 
0.058596067 0.15074879 0.98683405 
0.14218572 0.9154132 0.3765661 
-0.36733362 0.9289844 -0.045320492 
-0.09962381 0.98075634 0.16790552 
-0.025413305 0.70324135 0.71049684 
-0.7138713 0.43292105 0.55042464 
-0.85032845 0.52456516 -0.042107586 
-0.041593205 0.8216832 0.5684248 
-0.25139138 0.60560364 0.7550144 
-0.3275511 0.59889793 0.7307747 
0.0034455438 0.7401924 0.6723864 
0.21423498 0.9655609 0.14763336 
-0.59155476 0.65745133 0.4667127 
-0.29517725 0.946219 0.13243909 
-0.74172574 0.49853754 -0.44866848 
-0.17810571 0.61566436 -0.7676169 
-0.42710477 0.44844252 -0.7851631 
-0.12516564 0.6208647 -0.7738608 
0.5802403 0.27548128 -0.76644075 
0.72936463 0.64859164 -0.21761471 
0.9591216 0.27191782 0.07839958 
0.5394353 0.7271331 -0.42460212 
0.74980295 0.010175696 0.66158307 
0.28541127 0.4215585 0.8607142 
-0.46545956 0.49222362 0.73557013 
-0.032688554 0.2759204 0.9606245 
0.020495327 -0.024900185 0.9994799 
-0.18244669 0.60127175 0.7779367 
-0.020756122 0.25665978 0.966279 
0.2614323 0.25596628 0.93066347 
-0.4569602 0.17126463 0.87284356 
0.28376424 0.89699787 0.3389287 
0.0037613767 0.81846577 0.5745431 
-0.40783304 0.90557516 -0.11664398 
-0.039054558 0.9631856 -0.26598564 
0.50832283 0.8039622 -0.3086305 
0.62452 0.7797675 0.04401718 
0.8921389 0.2678796 0.36377025 
0.3060323 0.07618492 0.948968 
0.41670424 -0.12763524 0.90003717 
0.16738091 0.29780293 0.9398388 
0.63093334 -0.24038877 0.73765606 
0.022447096 -0.3799165 0.9247485 
-0.66289157 0.1571248 0.73204285 
0.28844678 0.92287225 -0.25515723 
0.031555694 0.67040503 0.74132407 
-0.18166368 0.94562936 0.26978388 
0.33194494 0.77950346 0.53121275 
0.17539266 0.08187429 0.9810883 
-0.015033437 0.26278415 0.9647376 
-0.5171682 0.6201369 0.58988756 
0.6885016 -0.36342958 0.6276022 
-0.10260825 -0.673468 0.7320605 
0.6563635 -0.120326884 0.7447875 
0.4302238 0.39767605 0.8104081 
0.34350806 0.11937667 0.9315318 
0.34579867 -0.32896736 0.87875134 
0.008780668 -0.44874147 0.8936185 
-0.077156805 0.023159152 0.99674994 
-0.3729487 -0.008710074 0.9278111 
0.07451233 0.49160072 0.867627 
-0.24007018 0.97067344 0.0126267485 
0.29977456 0.8491706 -0.43479246 
0.3391896 0.9405869 0.015713245 
0.022346899 0.8633755 0.50406694 
-0.40982455 0.6781189 0.61008084 
0.17707254 0.9516099 0.25116512 
0.459333 0.25485504 0.85091835 
0.85753757 -0.44106564 0.2647458 
0.6098242 0.0032428778 0.7925302 
0.20224024 0.85948485 0.46945152 
0.486504 0.12675601 0.8644344 
0.4985637 0.012165436 0.8667677 
0.8043209 0.08662337 0.58784723 
0.3843068 -0.04397674 0.92215747 
-0.0459798 -0.4368254 0.8983705 
0.3715805 0.04696344 0.92721224 
0.17588975 0.11426737 0.97775555 
-0.00029055978 0.6095556 0.79274327 
-0.17485373 0.6027399 0.7785442 
0.10772911 -0.12825549 0.9858727 
0.5699201 -0.15786047 0.8063939 
-0.096017376 -0.042402614 0.99447614 
0.12272193 -0.4746835 0.8715589 
-0.33756456 0.13194478 0.932009 
-0.77973026 0.36054 0.5118905 
0.15948865 0.939321 0.3037097 
-0.16233085 0.7773511 0.60776144 
-0.29827031 0.91678745 -0.26558557 