# OOMMF: rectangular mesh v1.0
# Segment count: 1
# Begin: Segment
# Begin: Header
# Desc: Time (s) :  2.7099999999999966e-07
# Title: m
# meshtype: rectangular
# meshunit: m
# xbase: 2e-09
# ybase: 2e-09
# zbase: 5e-10
# xstepsize: 4e-09
# ystepsize: 4e-09
# zstepsize: 1e-09
# xmin: 0
# ymin: 0
# zmin: 0
# xmax: 1.024e-06
# ymax: 1.024e-06
# zmax: 1e-09
# xnodes: 256
# ynodes: 256
# znodes: 1
# ValueRangeMinMag: 1e-08
# ValueRangeMaxMag: 1
# valueunit: 
# valuemultiplier: 1
# End: Header
# Begin: Data Text
0.47077388 -0.41016793 -0.7811109 
0.3767323 0.56601256 -0.7332821 
0.9749652 0.12754203 -0.18214296 
0.7022801 0.3414034 0.62469715 
0.8012465 0.32855636 0.5000548 
0.27942497 0.610711 0.7409142 
-0.17609635 0.64780354 0.7411753 
0.06677757 -0.78924435 0.61043775 
0.9846047 -0.11364526 0.13280979 
0.2286048 0.67329437 0.7031462 
0.3242209 0.85741824 0.3996435 
-0.12915656 0.985946 0.10596772 
-0.5969309 0.80027014 -0.056931537 
0.3073918 0.81856024 -0.48525214 
-0.15943629 0.9393746 0.30357105 
-0.7543498 0.601795 0.26229584 
-0.3279656 0.77756524 0.53649867 
0.47890094 0.60910785 -0.6321721 
0.08992207 -0.69302213 -0.7152862 
0.52624017 0.5520578 -0.646764 
0.45790127 0.84527355 0.275389 
-0.18583785 0.43094987 0.8830326 
-0.10847832 -0.101086706 0.98894596 
-0.5267604 0.6967592 0.4868779 
-0.67508227 0.4934189 0.548454 
-0.74599385 0.3716728 0.5525872 
-0.5319188 0.84679466 -0.0011375049 
-0.38300577 0.9227706 0.042438146 
-0.16244702 0.5166272 0.84065884 
-0.1591762 0.9758805 -0.1493998 
0.3513919 0.8715929 0.34183264 
-0.4411751 0.8714802 -0.2142125 
-0.28943092 0.5968364 -0.7483422 
-0.06405485 0.9699216 0.23483847 
-0.31442407 0.79051054 0.5255766 
-0.25941077 0.6794132 0.68637 
-0.08652341 0.7874851 0.6102304 
0.016464338 0.91384465 0.40573025 
0.4539702 0.871214 -0.18680818 
-0.4104304 0.48558694 0.7718499 
0.72665733 0.6362843 0.25905886 
0.1476195 0.45176917 0.87983704 
0.033763163 -0.49391553 0.86885417 
-0.7381043 0.51586515 0.43483934 
0.042458516 0.93223566 0.3593523 
0.43573838 0.21423617 0.8742053 
0.49266425 -0.5644395 0.6623368 
0.80311555 -0.5298212 0.2725709 
0.83564943 0.15029477 0.52830064 
0.6613587 0.18863283 0.72596306 
0.44515333 0.31536672 0.8380826 
-0.20940858 0.11475022 0.97107184 
0.10373841 -0.7842963 0.61165154 
0.77235186 -0.5914234 0.23171309 
0.85299844 0.4258655 0.30171543 
0.80773866 0.057122737 0.58676684 
0.55199575 0.078763425 0.8301187 
0.046307843 -0.010537533 0.9988717 
-0.19281192 0.047715627 0.9800749 
-0.7516447 0.03661406 0.6585512 
-0.5751878 0.44473508 0.6865637 
-0.9632885 -0.06996619 0.25919104 
-0.9089844 0.3400883 -0.241013 
-0.3423498 0.030409629 -0.9390803 
0.34451225 0.14900938 -0.9268806 
-0.5277101 -0.496962 -0.68887657 
0.66958493 -0.47745737 -0.568938 
0.76179725 -0.59661704 -0.2524146 
0.93187416 -0.14953658 0.3305292 
0.22626002 -0.74688125 0.6252798 
0.7409384 -0.4578851 0.4912755 
0.9330731 0.08549645 0.349378 
0.5510715 0.8337999 -0.033136953 
-0.96322936 0.2500372 -0.09833976 
0.20897263 0.11398117 0.9712564 
0.7450981 0.18353498 0.64120495 
0.9479149 0.21035208 0.23918514 
0.87720126 -0.021328172 0.47964895 
0.19341964 -0.28843743 0.9377594 
0.41187954 -0.13259266 0.90154004 
0.25305906 0.29051292 0.922802 
0.88662976 0.08061083 0.45540053 
0.90467536 0.26514924 0.33355418 
-0.20794797 0.37790275 0.9021902 
-0.6633454 0.3816817 0.6436551 
-0.5969606 0.5014057 0.62628293 
-0.7285359 -0.50373495 0.46420538 
-0.934957 -0.018738832 0.3542659 
-0.110892884 -0.29665816 0.94852346 
-0.4224799 -0.90314734 -0.076391235 
-0.37667406 -0.78628826 -0.48976254 
-0.13123542 -0.9011138 -0.4132448 
-0.084557764 -0.92609644 0.36768943 
0.9229413 -0.13924512 -0.35887358 
0.96281636 0.11541746 -0.24426098 
0.9225809 0.38573214 -0.0074285525 
0.77801114 0.58954716 -0.21710084 
0.35269412 0.7187549 -0.5991648 
0.93811786 -0.22501737 -0.2632533 
0.6678401 0.026926702 0.74381757 
-0.66994834 -0.47111034 0.5737807 
-0.16254489 -0.50519496 0.84755963 
0.14665025 -0.8898601 0.43202156 
-0.48572487 -0.4536264 0.74719113 
0.0133638745 -0.22884275 0.97337174 
-0.25964716 0.37618482 0.88942033 
-0.780636 -0.25659278 0.56988376 
0.053224053 -0.762025 0.6453566 
-0.6138447 -0.7890845 0.023248611 
-0.664692 -0.53776485 0.51864594 
-0.80297536 -0.5027862 -0.3200571 
-0.65222526 0.21243918 -0.72764826 
-0.21828339 -0.18805964 -0.9575939 
-0.4246687 0.046527836 -0.9041526 
-0.2221552 0.3549104 -0.90812206 
0.49645042 0.7105993 -0.49858376 
0.8535024 0.48967507 -0.178191 
0.33742723 0.10394315 0.93559533 
0.1606529 0.5993945 0.78416646 
0.40669456 0.7279548 0.55197954 
0.2189161 0.9332059 0.28496048 
-0.06731114 0.98617667 0.15140982 
-0.017260112 0.9822264 -0.18690492 
0.5778674 0.39853457 0.71220756 
0.38912097 0.027228912 0.9207842 
0.24882963 0.05334699 0.967077 
-0.3738821 0.78963286 0.48651013 
-0.5441983 0.47432932 0.6919972 
-0.37357375 0.8781771 0.2987434 
-0.5617359 0.53782725 0.62864506 
-0.45276877 0.86677665 0.2090421 
-0.63430303 -0.18648726 -0.75025475 
-0.015983213 0.09491807 -0.9953568 
0.6950995 0.2859355 -0.65960425 
0.21546482 0.52962345 -0.8204108 
0.31368652 0.6137578 -0.7245014 
0.67101157 0.35847577 -0.6490291 
0.7753541 0.5557394 0.29996628 
0.9459524 0.13611338 -0.29435897 
0.7917877 0.60493475 0.08441791 
0.87713534 -0.23225257 0.42034784 
0.5737636 0.4608814 0.67704034 
0.5107982 0.22384642 0.8300471 
0.2369239 0.14776954 0.96022457 
0.64548796 0.74319315 0.17609452 
0.5109372 0.8415794 -0.17517811 
0.06675062 0.99698204 -0.039638456 
0.092890166 0.95945275 -0.26612365 
-0.017425733 0.7215762 -0.6921157 
-0.4989322 0.8273502 -0.25798896 
-0.26387945 0.8614268 0.43394876 
-0.7756293 0.62447166 0.09183885 
-0.19967015 0.87916803 -0.43266103 
0.49865258 0.65981156 -0.5621337 
0.9485543 0.14434117 -0.28179857 
0.9975142 -0.023783851 -0.06633087 
0.99227154 0.10545867 -0.06538981 
0.30692926 0.9482503 0.08133763 
-0.076291114 0.9765273 0.20143075 
-0.2138656 0.6132678 -0.76037115 
0.16865431 0.5227773 -0.83561933 
-0.00851271 0.63731766 -0.7705542 
0.12314699 0.44451302 -0.88726723 
0.6266095 0.45410493 -0.6333634 
0.9527938 -0.030203538 -0.30211204 
0.64632255 0.6143176 0.45263806 
0.8041507 0.57483745 0.15133941 
0.5701894 -0.11655688 0.8132027 
0.47946003 -0.3423508 0.80803096 
0.022333167 -0.41514853 0.90947944 
-0.6476868 -0.4569938 0.60963815 
-0.9709096 -0.084813625 0.22392255 
-0.3718101 -0.05467249 -0.9266975 
0.29423755 -0.8164976 -0.49674535 
0.10979842 -0.98494756 -0.13350159 
0.5381253 -0.79445845 0.28152627 
0.7940649 -0.32372198 0.5144561 
0.33424115 -0.31174362 0.8894374 
-0.11250907 -0.56963825 0.8141585 
0.5464215 -0.42414552 -0.72216624 
0.9700958 -0.23266591 -0.06914273 
0.99300754 0.005384337 -0.11792862 
0.050927572 0.66734403 0.74300635 
0.16280282 0.48722994 0.8579641 
-0.37830073 0.68347263 0.6243027 
-0.5300182 0.66499084 0.5261824 
-0.610361 0.7813986 -0.129907 
-0.51377493 0.8457588 0.14397012 
-0.50934035 0.47339436 -0.7186587 
-0.53941697 0.69377273 -0.47718844 
-0.47233164 0.597965 -0.6475652 
0.09088851 0.8921738 -0.4424535 
0.70085704 0.174665 -0.6915863 
0.56741214 0.57622325 -0.58822644 
0.70463395 0.09735084 -0.70286125 
0.7044823 0.004125595 -0.7097096 
-0.1472055 0.87654406 0.4582587 
-0.8628443 -0.12657902 -0.4893644 
-0.26150286 -0.48653975 -0.8336039 
0.38673857 -0.40302292 -0.8294613 
0.98827916 0.15265809 -0.0001347716 
0.5068925 0.86184055 0.017057253 
0.06612697 0.9373159 -0.34214953 
-0.21607094 0.972431 -0.08770012 
0.9206246 0.3325254 0.20463909 
0.4011854 0.018324181 0.91581357 
0.7488232 0.5412357 0.3825281 
0.47295243 0.84625816 0.24528182 
0.814228 0.35164273 0.461931 
0.5493997 0.5291432 0.6466588 
0.23548204 -0.3751234 0.8965661 
0.34895945 -0.6298213 0.6939398 
-0.009882043 -0.24145094 0.9703628 
0.147571 0.24333109 0.95865154 
-0.12416452 0.8612454 0.49278766 
-0.6636372 0.16288443 0.73010576 
-0.51421255 0.8468155 -0.13597386 
-0.9408581 -0.19658189 -0.2759378 
-0.5648645 0.8235798 0.05142292 
-0.7463875 0.49037164 0.44993496 
-0.5514137 0.7619869 0.33958635 
-0.9315492 -0.14282662 0.33439025 
-0.85899615 -0.5076827 -0.06621098 
-0.7468311 -0.2568382 -0.61341465 
-0.095011815 -0.70640266 -0.70140433 
-0.21379107 -0.59937197 0.7713927 
-0.9514824 -0.21894893 0.21620074 
-0.83694977 0.00046684948 -0.5472796 
-0.75956833 0.27613306 -0.58890283 
-0.28918055 0.5382737 -0.79160357 
0.045892037 0.23057859 -0.9719709 
0.6652029 0.66381 -0.34185004 
0.50441885 0.5530895 -0.66306394 
0.9676297 0.25227857 -0.0069521996 
0.8792454 0.47569552 0.025326822 
0.58663607 0.8067082 0.07127445 
0.22750506 0.8855066 0.40511686 
0.22296253 0.8415697 0.49198407 
-0.16826491 0.90905696 0.38118556 
-0.2758593 0.8417224 -0.46411762 
-0.36316666 0.7422977 -0.56312007 
-0.35972697 0.86297417 -0.35478452 
0.56479424 0.7726869 -0.289763 
0.3408007 0.3235234 -0.88271606 
0.6207527 0.61534625 -0.48581386 
0.8726287 0.48333785 -0.07002807 
0.6042217 0.7963148 0.028266676 
0.3192338 0.93620783 -0.14698534 
0.83047223 0.4460756 -0.3336653 
0.6395966 -0.012166406 0.7686145 
0.027338115 -0.25767705 0.9658443 
0.05961555 0.24653809 0.96729785 
0.17469491 0.3227516 0.93022215 
-0.06892645 0.3319401 0.940779 
-0.78997505 0.23045549 0.5681812 
-0.89395356 -0.14588535 0.4237508 
0.7004212 -0.6847043 -0.20147018 
0.8928305 -0.22396342 -0.390761 
0.8109232 -0.36843434 0.45459843 
0.7476421 -0.22834957 0.6236087 
-0.17502318 -0.50249237 0.84668076 
0.029061997 -0.117620245 0.9926333 
-0.5196831 -0.25048646 0.8168146 
0.28141725 -0.31077364 0.90786797 
0.54269326 0.6277214 0.55807704 
-0.19926699 0.2675487 0.94271433 
-0.24874377 0.69239485 0.67728573 
-0.2638144 0.12079499 0.95698 
-0.4918717 0.70424414 0.5119594 
-0.246463 0.8899568 0.3837094 
-0.18921499 0.9751493 0.11524618 
-0.25228354 0.964233 -0.081288785 
0.16874626 0.8605342 -0.4806305 
0.5895781 0.39556023 -0.7042228 
0.92296517 0.368184 -0.112142876 
0.45264494 0.8591181 -0.23880658 
0.1416135 0.9515721 0.27286673 
-0.038810115 0.29662165 0.9542062 
0.18166918 -0.16932882 0.9686714 
-0.12081058 0.23915268 0.96343696 
-0.1085538 -0.19469 0.97483945 
-0.078577146 0.10610846 0.99124503 
-0.18929121 -0.23002203 0.9545987 
0.27450716 0.032628257 0.96103144 
-0.033065084 -0.25747418 0.96571934 
-0.30403185 0.95266074 -0.0014959384 
0.22690643 0.83327675 -0.50414604 
-0.37161937 0.92266744 0.102878295 
-0.22240447 0.6068991 0.7630267 
-0.39883828 0.91387904 0.075850956 
-0.09452561 0.9312791 0.35182992 
-0.14558093 0.9532613 -0.2647624 
0.2847453 0.7106803 -0.6433146 
0.40200704 0.89611936 0.18804377 
0.15126783 0.9740828 -0.16816859 
-0.24856532 0.61300373 0.74996114 
-0.721913 0.48080283 0.497665 
-0.7268576 0.15175168 0.66981304 
-0.7518642 0.40616998 0.51935184 
-0.8513132 0.50456446 0.14380771 
-0.8311693 0.54538715 -0.10821449 
-0.33673748 -0.8142171 0.47292554 
-0.66448116 -0.10823489 0.73942554 
0.15150036 -0.9720298 0.17945984 
0.62892467 -0.6248441 0.462627 
0.12182264 -0.062482476 0.99058324 
0.27845645 -0.46423367 0.8408028 
0.42080367 -0.6439137 0.63898313 
0.17923492 -0.30423048 0.9355847 
0.40273073 -0.10131792 0.90969384 
0.3151387 -0.17786843 0.9322288 
0.5762331 -0.44130242 0.6879009 
0.24224858 -0.26207122 0.9341491 
0.2964614 -0.14018601 0.94470024 
-0.41694552 -0.6638059 0.6209011 
-0.17989796 -0.88801044 0.42317176 
-0.89925575 -0.069021665 0.43194336 
-0.93278426 -0.18326348 0.31036744 
-0.59023833 0.08235583 -0.8030171 
-0.6089412 -0.085166045 -0.7886301 
-0.051853392 0.4584399 -0.8872114 
-0.6853869 -0.26223215 -0.67932254 
0.4381451 0.07705226 -0.8955958 
0.065279275 -0.28357202 -0.9567265 
0.67504674 -0.30518454 -0.6716952 
0.5935425 -0.62951773 -0.5014128 
0.7186398 -0.6929335 0.058310516 
0.82645124 -0.5596214 0.061662186 
0.50970787 0.7102104 0.48559153 
0.13855818 0.42072186 0.896546 
0.511429 -0.05508434 0.8575582 
0.7739159 -0.15423176 0.61422056 
0.41916966 0.13268058 0.8981608 
0.19371071 -0.27738714 0.9410274 
0.83439493 -0.47758314 0.27513552 
0.8926764 -0.2682054 0.36220828 
-0.0044720136 0.30405775 0.9526431 
0.64273787 -0.02715078 0.765605 
0.48681307 -0.007892794 0.8734706 
0.16035786 0.18467133 0.9696298 
-0.17332324 0.05927692 0.9830795 
-0.53040177 -0.5079255 0.67873824 
-0.72400665 -0.10708055 0.681431 
-0.57759637 -0.21710314 0.78692365 
-0.8862027 -0.010192554 0.46318585 
-0.9124228 -0.40924057 -0.0026446467 
-0.50522894 -0.69429576 -0.5125399 
0.22019053 -0.41878504 -0.8809853 
0.075898774 -0.9591396 -0.2725631 
0.86995333 -0.3496387 0.34775564 
0.874635 0.3733555 0.30922392 
0.9005352 0.2039093 -0.38400185 
0.837054 0.23821437 0.49253887 
0.849869 0.03539704 0.5258039 
0.47055945 -0.63638306 0.61122054 
-0.10787565 -0.39781654 0.9111009 
-0.1101619 -0.5725562 0.81243086 
-0.27248883 -0.7212391 0.63683915 
0.40421847 -0.3342896 0.85138595 
0.054286685 -0.8994613 0.43361562 
-0.24292755 0.12880102 0.96145546 
-0.47165087 -0.5164271 0.71473676 
-0.48567396 -0.4982647 0.7182292 
-0.22751296 -0.4911147 0.8408593 
-0.90162224 -0.17168829 0.3969894 
-0.6706132 -0.24897401 0.6987775 
-0.9372884 -0.1324894 0.3223926 
-0.67836696 0.7347196 -0.0023303581 
-0.55797553 0.61914134 -0.5525644 
-0.5887923 0.4696423 -0.6578448 
-0.3799484 0.77640015 -0.5028339 
0.034291852 0.2701953 -0.96219474 
0.5539091 0.83221203 0.024655588 
0.30586424 0.44291592 0.84277666 
-0.14449704 0.7699741 0.6214986 
-0.23478632 0.923459 0.30347788 
-0.026591003 0.7884732 0.6144941 
0.26994348 0.9057808 -0.32663703 
-0.22741683 0.5936449 0.7719245 
0.86162513 0.33560014 0.38075554 
-0.011199553 0.3071955 0.9515805 
0.1318845 0.44369206 0.886422 
-0.2090254 0.24105328 0.9477351 
-0.13797471 0.12686872 0.9822766 
0.07857191 -0.42143035 0.9034506 
0.5121794 0.047916334 0.8575409 
0.34121013 0.81996006 0.45960984 
0.170164 0.9402644 -0.29486793 
-0.070571065 0.015175731 -0.9973913 
0.3122992 0.54824543 -0.7758198 
0.45385727 0.53649396 -0.7114689 
0.07980199 0.77091527 -0.63191885 
0.72114426 0.45363423 -0.5236096 
0.42395487 0.822164 -0.37987977 
0.26139644 0.68140507 -0.68363667 
0.81721133 0.5761589 0.014376014 
0.8253909 0.28431568 0.48774442 
0.21448615 0.51062393 0.8326218 
0.6831372 0.2650663 0.68048775 
0.1066095 0.26152167 0.9592919 
0.18260914 0.46680912 0.86529946 
0.4648599 0.45481053 0.75963986 
-0.023347523 0.88237906 0.4699597 
0.0045631533 0.99971807 -0.023305332 
0.3440339 0.93873316 -0.020513084 
-0.5830381 0.8077685 -0.087044485 
-0.5559767 0.81094044 0.18238842 
-0.52225953 0.8503607 0.064279325 
-0.22605607 0.9721658 0.061582804 
-0.431513 0.6388366 -0.63693357 
0.617812 0.7061524 -0.34591505 
0.52356195 0.5775315 -0.6263708 
0.66409415 0.592822 0.45556688 
0.48768762 0.53888786 0.6868484 
0.46436292 0.78943783 0.40144116 
0.19900791 0.90073675 -0.38609493 
-0.0077477884 0.99518806 0.097676836 
-0.4762342 0.8366971 0.27044255 
0.3555562 0.9245715 0.13692133 
0.50268954 0.8595948 0.09165104 
0.68606496 0.7250873 0.05969402 
0.30368388 0.4385724 0.8458311 
0.22619487 -0.40019792 0.8880752 
0.3369233 -0.36444485 0.86813754 
0.35468405 -0.35705808 0.8641232 
0.35347518 -0.11294515 0.92860043 
-0.13623887 -0.6797619 0.72066826 
-0.70541656 -0.52707994 0.4738926 
-0.023551539 -0.780253 -0.6250206 
-0.07012542 -0.97409326 -0.21499993 
0.4912914 -0.798821 0.34715703 
0.22476234 -0.92417276 -0.30884758 
0.6091306 -0.77225906 0.1804878 
0.25597578 -0.80631727 0.5332249 
0.7931209 -0.55099005 0.2595558 
0.96467143 0.046799134 -0.25926617 
0.89994043 -0.25103238 -0.3564969 
0.7483966 -0.36808482 0.5517393 
0.58680993 0.469248 0.6598943 
0.47385484 -0.17541784 0.8629544 
0.8044218 0.35917312 0.47318125 
0.5861073 0.672993 0.45117474 
0.020075139 0.9933409 0.113450475 
-0.29284593 0.9325301 0.21125537 
0.02454797 0.9509166 0.30847213 
-0.60202885 0.65577865 -0.45553896 
0.0043568113 0.825361 -0.5645887 
-0.100620605 0.9946278 -0.024313705 
0.17275092 0.72970027 -0.661585 
0.21889105 0.6967179 -0.6831331 
0.23841935 0.7255307 -0.6455707 
0.7024919 0.57480067 -0.41965383 
-0.2431759 0.9362412 0.25361013 
-0.9154059 -0.08272093 -0.3939407 
0.52949315 0.25274286 -0.8097889 
0.6373907 -0.30530328 -0.70747656 
0.9849732 0.06980955 0.1579702 
0.14607432 0.7608496 0.6322739 
0.10089723 0.98084617 0.16661547 
0.31863144 0.85767233 0.40357447 
0.37955526 0.88553065 0.26790535 
0.18656552 0.7220066 0.6662581 
0.8437726 0.23284943 0.48355865 
0.5973469 0.70412594 0.38390553 
0.62785494 0.40033126 0.6674826 
0.19355915 -0.12673864 0.9728681 
-0.12911901 0.091774 0.9873733 
0.71243286 -0.19621472 0.67375016 
0.7927051 0.35833237 0.49316987 
0.2321881 0.029130409 0.9722346 
-0.20491956 0.29789728 0.932344 
-0.30881274 -0.043448843 0.95013005 
-0.90312344 0.41877377 -0.09485057 
-0.9883763 0.10113433 0.1135089 
-0.90620714 0.3315089 0.26247 
-0.8372758 0.54061145 -0.08190589 
-0.55192244 0.6237756 0.5534308 
-0.4265619 0.12748626 0.8954286 
-0.92576826 0.060643148 0.3731964 
-0.73764557 -0.12141107 -0.6641826 
-0.31103668 -0.06791848 -0.94796795 
-0.45250422 -0.6242169 -0.63686204 
-0.90830505 -0.4105404 0.08024097 
-0.52611065 0.25207555 -0.81219804 
-0.16210434 0.1035097 -0.98132974 
0.53340095 0.7493082 -0.3924547 
0.41629308 0.56720746 -0.7106165 
0.47725186 0.7772637 0.40999 
0.80524915 0.5383873 0.24842097 
0.98765534 -0.010439348 0.15629457 
0.41492358 0.5615938 0.7158568 
0.4165951 0.26980552 0.8681322 
0.5250977 0.5826098 0.6203534 
-0.49771687 0.52038693 0.6938843 
-0.8330472 -0.12829247 -0.5381204 
-0.6158695 0.7548418 -0.22565177 
-0.04865573 0.487587 -0.87171763 
0.40540743 0.38022342 -0.83130914 
0.170069 0.61185133 -0.772473 
0.048385892 0.90000427 -0.43318713 
0.41173443 0.59855956 -0.687169 
0.39384592 0.77509755 -0.49407414 
0.78913075 0.60364765 0.11349981 
0.52497274 0.6914877 0.49623418 
0.58971494 0.6151242 0.52331495 
0.26638776 0.40141565 0.8763008 
0.71964794 0.13304268 0.68147385 
-0.3986702 0.7364518 0.5465354 
-0.13564773 0.6334746 0.76178056 
-0.3086396 -0.09175497 0.9467432 
-0.9065142 -0.1058406 0.4086929 
-0.74150133 0.46408242 0.48456514 
0.90928817 -0.2698766 -0.31679925 
0.72579336 0.5447581 0.42007467 
0.873538 0.22864324 0.42971352 
0.7588428 0.5303868 0.3779516 
0.5275731 0.69520235 0.4882216 
0.1899736 -0.6115207 0.7680837 
-0.10745838 -0.54307234 0.8327817 
0.14537445 -0.42204612 0.8948426 
0.10221765 0.12156497 0.98730624 
-0.63959837 0.16062912 0.75173944 
-0.7115624 0.1813623 0.67881274 
-0.12054611 0.30527586 0.9446033 
-0.064802244 0.21348457 0.9747949 
-0.4755967 0.87636477 -0.076108836 
-0.17526887 0.9845034 -0.005839985 
0.0024345014 0.9692625 0.2460171 
-0.2579238 0.9319127 -0.2549784 
0.2773869 0.82612187 -0.49048883 
0.61824656 0.4555334 -0.64051586 
0.9061181 0.40969032 -0.1053754 
0.44823194 0.6614921 0.60126233 
0.7251349 -0.117525056 0.6785037 
0.20025408 -0.46489322 0.86242265 
0.2842885 0.0128699 0.9586525 
-0.0070845946 0.23518 0.97192603 
0.359178 -0.05606044 0.9315838 
-0.18231641 -0.25296393 0.9501421 
0.23490758 -0.527691 0.81630915 
0.37586144 0.40963918 0.8312184 
0.6168297 0.75265175 0.23029675 
-0.0013522633 0.85703593 0.5152548 
0.23705775 0.42226392 0.87492675 
-0.32001606 0.81174034 0.48853585 
-0.16362675 0.94950825 0.26769477 
-0.15095498 0.8669677 0.47495243 
0.2036199 0.9604845 -0.18975927 
0.34773272 0.7651373 -0.54189193 
0.6121319 0.75539505 0.23382242 
0.78981835 0.60668945 0.090083465 
-0.027765974 0.38845882 0.9210477 
-0.7533501 0.55775267 0.34839004 
-0.66586363 0.05597709 0.7439706 
-0.95490235 0.13414554 0.26488975 
-0.72008795 0.6298595 0.29111934 
-0.9064226 0.2629844 0.33051062 
-0.77393615 -0.5893533 -0.23170139 
-0.54932284 -0.4675458 0.6925644 
-0.29963785 -0.6659005 0.683223 
0.11191631 -0.90453684 0.41144606 
0.5125322 -0.57618 0.6366533 
0.7918491 -0.60668087 0.07009567 
0.5197802 -0.6506048 0.5536624 
0.7266097 -0.21578635 0.6522842 
0.36048144 -0.042345643 0.9318047 
0.18733585 -0.4496308 0.87334836 
0.42938045 -0.3779065 0.8202556 
0.36395386 0.31090596 0.8779949 
-0.027715623 -0.12961106 0.99117756 
-0.18216376 -0.15260968 0.971353 
-0.32614416 -0.5724689 0.7522695 
-0.8499542 -0.040356178 0.5253088 
-0.8546512 0.3061256 0.41935492 
-0.41290578 0.19156532 -0.8903997 
-0.2776046 0.8779425 -0.3900676 
0.37629864 0.9216101 -0.095047906 
-0.8668088 0.31475937 -0.38674173 
-0.67040455 0.619321 -0.4086556 
-0.18785761 -0.37464404 -0.90793794 
0.5056899 -0.24875812 -0.82607335 
0.6131703 -0.47750545 -0.6292939 
0.71278775 -0.50160944 -0.49022615 
0.95269376 -0.25309297 -0.16828123 
0.8709891 -0.21583474 0.4413541 
0.82890564 -0.24273737 0.5039782 
0.46058267 -0.113141954 0.88037634 
-0.10091549 -0.023994343 0.99460566 
0.19489536 0.5390682 0.81940305 
0.09439357 0.027729113 0.9951488 
0.81474704 -0.32457808 0.48045427 
0.46266976 -0.09632724 0.881282 
-0.082534805 -0.54743063 0.83277106 
0.12485044 -0.5541476 0.82300234 
0.18438798 -0.41787753 0.8895951 
-0.17237811 -0.21032448 0.96231467 
-0.5065854 0.51587427 0.6908293 
-0.48338428 0.14701778 0.8629747 
-0.62880987 -0.057050105 0.77546346 
-0.6927678 -0.08034401 0.7166713 
-0.9937026 0.07161654 -0.08617603 
-0.69902396 -0.42537037 -0.57482666 
-0.5855159 -0.4227676 -0.6916927 
-0.474543 -0.4720651 -0.7429425 
0.09593074 -0.1799585 -0.97898537 
0.72801167 -0.15545392 -0.6677074 
0.982993 0.1210741 -0.13807954 
0.99315983 -0.092550874 -0.071189985 
0.70583296 -0.1411009 -0.69418335 
0.77852154 -0.5649091 0.27346307 
0.1651084 -0.46508908 0.86973065 
0.3122314 -0.5881842 0.7460235 
-0.7139919 -0.606267 0.3502228 
-0.62392586 -0.72603446 -0.28912038 
-0.46110758 -0.8301167 0.3135062 
0.6328744 -0.6403637 0.43520603 
-0.2051807 -0.5765585 0.79087377 
-0.3110026 -0.3082959 0.89901674 
-0.5676082 -0.19250953 0.8004756 
-0.30190814 0.030675141 0.9528434 
-0.9399221 -0.20842272 0.27038193 
-0.51920635 0.43250802 0.7371307 
-0.6616141 0.7067256 0.25061056 
-0.8470996 0.5137534 0.13593975 
-0.33931926 0.9303903 0.13869557 
-0.7061666 0.58641386 -0.39679655 
0.14265145 0.8983002 -0.41558096 
0.3458528 0.90895766 -0.23277 
0.002610945 0.45739788 0.8892584 
-0.007415248 0.2648416 0.9642635 
0.37017855 0.9287341 0.020517109 
-0.044458732 0.9804901 0.19147532 
-0.44328108 0.89549845 0.039806385 
-0.27647683 0.92673874 0.25439352 
0.180046 0.5086801 0.84191924 
0.42998186 0.5112398 0.7441435 
0.006121528 -0.27579683 0.9611965 
0.28518212 -0.5239034 0.8026185 
0.10150907 -0.6714701 0.7340462 
-0.25449082 -0.6626807 0.70433575 
0.5159978 -0.07977173 0.85286736 
0.24685742 0.5703129 0.7834568 
0.026445836 0.94800806 0.31714553 
-0.7576993 0.52890676 -0.3822952 
0.02421556 0.9225734 0.38506094 
-0.06727614 0.8625779 0.50143135 
0.020749832 0.9973027 -0.07040508 
-0.33974254 0.89466244 -0.29009318 
0.4262423 0.8859142 0.18295771 
0.50394166 0.8338364 -0.22529934 
0.7142515 0.6822995 0.15592392 
0.45755127 0.79539484 0.39748478 
0.7094921 0.675624 -0.20038275 
0.6856381 0.18372822 0.70437515 
0.64296466 0.57173645 0.50962144 
0.6999182 0.10285509 0.70677817 
0.26777646 0.13569245 0.95387805 
0.7453173 -0.0031729895 0.66670245 
-0.18060327 0.6561819 0.7326718 
-0.24821042 0.8652659 0.43555298 
-0.1367241 0.46458685 0.8749089 
0.3509876 0.542191 0.76343745 
-0.30586576 0.6334209 0.7107913 
-0.53985775 0.17212084 0.823971 
-0.82006466 0.47648472 0.3169483 
-0.07327607 0.90388775 0.42144722 
0.32290664 0.5497594 -0.77038693 
0.28749824 0.36388186 -0.8859655 
0.7944346 0.5805326 0.17848192 
0.06001035 0.8214925 0.5670528 
0.19790305 0.6384128 0.74381685 
0.59701556 0.69453895 0.4014825 
-0.2174257 0.9246578 0.31262442 
-0.06224569 0.89927 0.4329423 
-0.1592003 0.80638576 0.569559 
0.0752962 0.5856747 0.8070413 
0.7027931 0.033532698 0.71060365 
0.42514327 0.3142126 0.8488367 
0.5928555 0.40561545 0.6957001 
0.58964556 0.3660021 0.7199727 
0.2495788 0.21403117 0.94440514 
-0.31701005 -0.22285843 0.921867 
0.06694265 -0.53791 0.84034014 
-0.7103723 -0.6944429 0.11454323 
-0.63536555 -0.5302175 -0.561409 
-0.3755702 -0.15923151 -0.9130128 
-0.022908878 -0.90285915 -0.4293259 
0.3224941 -0.75547653 -0.57030946 
0.57870495 -0.5281338 -0.62143 
0.8543865 -0.516026 -0.061162572 
0.8315486 -0.55486655 -0.0254991 
0.9728754 -0.100134656 0.20853409 
0.9979606 0.04218031 0.047911834 
0.96832395 0.1446691 -0.20351821 
0.90884256 0.029451447 0.41609833 
0.8965544 0.43305713 0.09301535 
0.863229 0.027118571 0.5040837 
0.6670863 0.5512488 0.5011194 
0.1437292 0.81220216 0.5653932 
0.19251758 0.52344507 0.83002555 
-0.13633409 0.98977685 -0.041891582 
-0.65790117 0.7358053 0.16048907 
0.5521207 0.8299728 -0.07942305 
0.08928687 0.8053314 0.58606243 
0.45258644 0.86002904 0.23561749 
0.788345 0.30979106 -0.5315466 
0.59978104 0.7856448 -0.15173969 
-0.023825241 0.9533841 0.30081737 
-0.12903276 0.9073174 0.40015724 
0.06596526 0.99294597 -0.098523214 
-0.64182943 0.7174333 -0.27082202 
0.18854149 0.27183995 -0.9436924 
0.7905649 0.6121525 0.0166254 
0.47270542 0.8696654 0.14223799 
0.4501662 0.8733703 0.185943 
-0.36043894 0.72488296 0.5870507 
-0.47225854 0.6335979 0.61280143 
0.0063386178 0.35076615 0.9364417 
0.6217634 0.32188034 0.7140052 
0.38726962 0.5246419 0.75813806 
0.13140236 0.09199454 0.98705137 
0.517283 -0.60796005 0.6023313 
0.44279328 -0.4157248 0.7944225 
0.69474286 -0.52785623 0.4885697 
-0.006064919 -0.26033223 0.96550006 
0.44794613 0.6352456 0.6291323 
-0.3487675 0.20503141 0.9145072 
0.13739906 -0.102164224 0.98523295 
-0.6654952 0.20630892 0.7173234 
-0.8339583 0.26591426 0.48353192 
-0.6084047 0.385609 0.6936495 
-0.42053264 0.78930837 0.44737524 
-0.80016625 0.42800933 0.42016897 
-0.77365637 0.6322721 0.04108442 
-0.11215585 0.80623883 0.58086145 
-0.6234166 0.6347423 0.4565677 
-0.7036028 0.120562635 0.7002913 
-0.9206766 0.18429641 0.34407765 
-0.82151043 -0.09390056 0.56240857 
-0.22904395 0.58334684 -0.7792595 
-0.06771729 0.6874835 -0.72303593 
0.38717005 0.91274506 -0.13036819 
0.58461654 0.792208 0.17501397 
0.11831411 0.88816893 0.44402453 
0.9006986 0.43202278 -0.04580797 
0.9282676 -0.36746922 0.057320476 
0.13389057 -0.094811976 0.98645025 
0.37390912 -0.03398769 0.9268424 
0.20275356 0.0069469414 0.97920513 
-0.3355646 -0.071099326 0.93933034 
-0.99396616 0.042977165 -0.10091699 
-0.27217492 0.70203155 -0.65808254 
-0.15353957 0.2897349 -0.94471127 
0.4912695 0.666175 -0.56112856 
0.115424134 0.2071484 -0.9714766 
-0.26917765 0.7216642 -0.6377651 
0.56609106 0.6008764 -0.5643479 
0.847248 0.5202763 0.10716125 
0.70238 0.70849234 -0.06856389 
0.6504134 0.60918677 0.45371136 
0.03947624 -0.30005574 0.95310456 
0.30427015 -0.73717284 0.6033207 
-0.043160707 -0.62574846 0.77883 
-0.03532903 -0.33339024 0.94212675 
-0.58893865 0.247324 0.7694038 
-0.69522387 0.4118833 0.5890807 
-0.74697405 -0.16483095 0.6440967 
-0.86367553 0.5034548 0.024449296 
0.5533414 -0.46684146 -0.6898351 
0.88054657 -0.3831096 0.279043 
0.8567838 0.19254331 0.47838134 
0.7425051 0.39876628 0.5382117 
0.5573635 0.21072823 0.80308133 
0.078008436 0.04986781 0.9957047 
0.31385818 -0.50761336 0.8023851 
0.2544951 -0.104686886 0.9613912 
-0.38356635 0.7624676 0.5210758 
-0.10418281 0.6454125 0.7566959 
-0.36434412 0.5848842 0.7246819 
-0.5360302 0.408233 0.73893005 
-0.15127632 0.7602697 0.631748 
-0.27200627 0.7798539 0.5637735 
0.09344536 0.8313531 0.54783225 
0.34811705 0.39252362 0.8513165 
-0.8141278 0.5806564 0.005837478 
-0.11570643 0.74996084 -0.651284 
0.5780928 0.67286754 -0.46158218 
0.72528815 0.6870734 0.043442912 
0.74501294 0.6464827 0.1643651 
0.91363955 0.12153501 0.387933 
0.54572 -0.17938307 0.81854224 
0.53686076 0.07915808 0.83994913 
0.0710258 -0.30610067 0.949346 
0.22794795 -0.16713135 0.9592221 
-0.6945319 -0.7129167 0.09682639 
-0.3161026 -0.5278116 0.788349 
-0.7540794 0.32399654 0.57130605 
-0.0041718287 0.4554829 0.8902348 
-0.40710673 0.6884813 0.6002148 
-0.14999951 0.59044796 0.7930141 
-0.15876706 0.9271722 0.33932993 
0.24684846 0.899511 0.36048022 
0.15676385 0.6557552 0.73851895 
-0.13034022 0.99039954 0.046045374 
0.16650486 0.80471337 0.5698357 
0.7862876 0.45829177 0.41439164 
-0.0035684684 0.4582132 0.8888352 
-0.30385876 0.41650856 0.85684925 
-0.7329932 0.101479545 0.67262393 
-0.938591 0.05794174 0.3401318 
-0.7802442 0.6059644 0.1550037 
-0.8437346 0.48612064 0.22759326 
-0.9691414 -0.08768839 -0.23038195 
-0.6710079 -0.12289231 -0.731195 
0.314977 -0.9410919 -0.123027205 
0.5429005 -0.80301505 0.24581665 
0.60795057 -0.0674148 0.7911078 
0.3431971 -0.47092715 0.81267667 
0.7680887 -0.637536 0.059897706 
0.32973275 -0.32299358 0.8871029 
0.5786266 -0.08054851 0.81160533 
0.20975737 -0.034692965 0.9771378 
0.6249273 0.10500934 0.7735884 
0.3026721 0.25662675 0.91789556 
0.6886017 -0.17754214 0.70306945 
0.33216402 -0.19290017 0.92328584 
-0.34082532 -0.38780993 0.8564121 
-0.7029711 -0.24637239 0.66718245 
-0.71544605 -0.0035378288 0.6986591 
-0.47453055 -0.6693414 0.57166684 
-0.5368882 0.5101868 -0.6719082 
-0.65127987 0.69009465 -0.31560087 
0.15790766 0.98120475 -0.11091618 
-0.7251388 0.36624223 -0.5831298 
-0.9092887 -0.25765315 -0.32681647 
0.34562707 -0.22569486 -0.9108259 
0.6089909 -0.14836764 -0.7791772 
0.6361477 0.6566235 -0.4051689 
0.8960682 -0.39219436 -0.20795536 
0.9744195 0.0044469316 0.22469334 
0.86305684 0.082245246 0.498366 
0.5564356 -0.3902429 0.73354614 
0.17504449 -0.34151593 0.9234318 
0.08097046 -0.5621785 0.8230427 
0.81192374 -0.14303146 0.5659698 
0.17879692 -0.28980222 0.94023746 
0.554929 -0.32080272 0.76755416 
0.025386915 -0.0628114 0.99770254 
0.16338633 0.2233314 0.9609517 
0.033198062 -0.044308435 0.99846613 
-0.73727924 -0.16511829 0.65509945 
-0.33506006 -0.43124548 0.83771247 
-0.18641086 0.296334 0.93671626 
-0.56054634 -0.1186411 0.81958044 
-0.6965085 -0.1586165 0.69979763 
-0.87491393 -0.38631406 0.29203948 
-0.65402716 -0.22954033 -0.7208049 
-0.7920266 0.36274514 -0.49102938 
-0.13443954 0.33083916 -0.9340619 
-0.5040701 -0.012311809 -0.86357504 
-0.23874971 0.11436715 -0.9643229 
0.3800848 -0.17001325 -0.9091925 
0.35448056 -0.71807593 -0.5989246 
0.97282815 -0.20822255 0.10123649 
0.846314 -0.2670493 -0.4609091 
0.8177135 0.56084317 -0.12961319 
0.53815156 -0.20890303 0.81654906 