# OOMMF: rectangular mesh v1.0
# Segment count: 1
# Begin: Segment
# Begin: Header
# Desc: Time (s) :  2.739999999999997e-07
# Title: m
# meshtype: rectangular
# meshunit: m
# xbase: 2e-09
# ybase: 2e-09
# zbase: 5e-10
# xstepsize: 4e-09
# ystepsize: 4e-09
# zstepsize: 1e-09
# xmin: 0
# ymin: 0
# zmin: 0
# xmax: 1.024e-06
# ymax: 1.024e-06
# zmax: 1e-09
# xnodes: 256
# ynodes: 256
# znodes: 1
# ValueRangeMinMag: 1e-08
# ValueRangeMaxMag: 1
# valueunit: 
# valuemultiplier: 1
# End: Header
# Begin: Data Text
0.46975002 0.6119279 0.6363012 
-0.19750132 0.7567289 0.6231811 
-0.26716265 0.58677244 0.76440966 
0.15312983 0.931467 0.33003122 
0.7763488 0.5817568 0.24257275 
0.21997762 0.3780404 0.8992749 
-0.089170165 0.81819236 0.5679877 
-0.20406418 0.41293135 0.88760674 
-0.65639514 0.15816475 0.7376513 
-0.6162926 0.061690003 0.78509736 
-0.81621844 -0.5525852 0.16863285 
-0.96330774 -0.18401478 -0.19538881 
-0.69526947 0.0036760187 -0.7187398 
-0.9553963 0.1453925 -0.25705847 
-0.56933707 0.63674986 -0.52000475 
-0.53816104 0.8118995 0.2262785 
-0.55253315 0.83167416 0.055001874 
-0.462835 0.8863702 0.011481065 
-0.49832633 0.23579833 0.83430815 
-0.5578135 0.6214286 0.55015516 
-0.8322762 0.16241978 0.530034 
-0.70082253 -0.11366696 -0.7042213 
-0.5122591 0.0037866828 -0.8588227 
-0.5987952 -0.02879122 -0.8003846 
0.014410929 -0.80358386 -0.59501725 
0.06459526 -0.92220587 -0.38126612 
0.47471038 -0.45880666 -0.75109696 
0.7515536 -0.5255477 -0.39870626 
0.9103619 0.06709767 -0.40833715 
0.86638016 -0.40342593 -0.29433504 
0.8713736 -0.4114617 0.26722145 
0.94014066 0.029356238 0.33952004 
0.85041356 -0.052136227 0.5235253 
0.6814845 0.026024941 0.73136973 
0.46794325 0.8495144 0.24362795 
-0.6042023 0.4511105 0.6568401 
-0.51816905 0.67847264 0.52074534 
-0.08218006 0.7613066 -0.643163 
0.11124602 0.7187828 -0.6862767 
-0.3400418 0.92584497 -0.16487221 
-0.48108536 0.80622417 -0.34432468 
-0.79026425 0.5177472 0.32775044 
0.025376426 0.8497479 0.5265781 
0.29933155 0.75372577 0.58506256 
0.16282769 0.7569003 0.6329211 
-0.06765599 -0.27247125 0.9597824 
-0.25432658 0.1954358 0.9471657 
-0.71800447 0.6874688 0.10888619 
-0.5604678 0.724258 -0.40165442 
-0.088574395 0.99414563 0.061880313 
-0.6432663 0.36943474 0.67061645 
-0.3040802 0.6572157 0.6896397 
-0.18447798 0.98246783 -0.026923072 
-0.08012596 0.9422542 0.32517204 
0.21148783 0.8774276 0.4305739 
0.14102755 0.9279299 -0.34504682 
0.64750797 0.6967542 -0.30865362 
0.21253495 0.6697017 0.7115677 
0.1310375 0.6215766 0.77231586 
-0.102296926 -0.14135976 0.9846588 
-0.23846945 0.011695047 0.9710796 
-0.18066685 -0.10829765 0.97756386 
0.27833378 0.3746238 0.88441354 
-0.51631624 0.5410356 0.6638509 
-0.8195096 0.44505075 0.36101764 
-0.3799986 0.19730894 0.9036981 
-0.92964727 -0.14091264 0.34044045 
-0.87849873 -0.47666427 -0.03211376 
-0.7795157 -0.54109454 -0.31555042 
-0.69159514 -0.104115464 -0.71474206 
-0.8646192 0.13876708 -0.4828845 
-0.67573225 -0.15698402 -0.7202375 
0.8799014 0.26421204 -0.3949249 
0.5112311 0.5708177 0.64250296 
0.40383005 -0.4067473 0.8194376 
0.62335384 0.2416937 0.7436492 
0.34188578 0.11896753 0.93218076 
0.008617173 0.58135194 0.81360656 
0.2962613 0.59358466 0.74825567 
-0.008742213 -0.06650138 0.997748 
-0.17364046 0.23217852 0.95704865 
-0.03076822 -0.23149101 0.97235036 
-0.4973047 -0.16101792 0.85250294 
-0.6038169 0.590555 -0.53539705 
-0.51996905 0.7789185 -0.35059676 
0.013653984 0.7119639 -0.70208335 
-0.31563085 0.89397043 -0.3181102 
-0.08891446 0.9241036 -0.37165412 
0.45876265 0.8718069 0.17172563 
-0.6147264 0.7852713 0.07389399 
-0.6193965 0.782593 0.062420834 
-0.6307474 0.5917238 0.5020166 
-0.91047573 0.365981 0.19259243 
-0.5623908 0.67838377 0.47277078 
0.6198722 0.7475011 0.23874795 
0.11244051 0.807493 0.5790616 
-0.40666154 -0.316857 0.8568712 
-0.4947937 0.8508033 0.17695434 
-0.029632138 0.98379886 0.17680976 
-0.6889777 0.61702365 0.38025206 
-0.00819754 0.14150372 0.98990387 
0.5670138 0.45910013 0.68390244 
0.8516585 0.4384613 0.28710535 
0.88283646 0.4686716 -0.030771725 
0.7685495 0.4587141 0.44599667 
-0.31259903 0.108315125 0.9436894 
-0.739278 -0.5189001 0.4291978 
-0.66582626 0.50079244 0.5530663 
-0.7893142 -0.081756584 0.60852206 
-0.7371543 0.50240105 0.45188138 
-0.10059986 0.57940775 0.8088056 
-0.38043272 0.89566016 -0.23035584 
0.57705027 0.77445084 0.2593046 
0.43176836 0.5054113 0.7470847 
-0.45712322 0.4519103 0.7660389 
-0.82538545 0.5045606 0.25329345 
-0.3435882 0.8849649 -0.31429976 
0.044494413 0.87742764 -0.4776412 
0.4329736 0.36984867 0.8220377 
0.01773235 0.66663843 0.74517035 
-0.47521526 0.7006155 0.5322672 
-0.16166168 -0.2879768 0.9438935 
-0.63550407 0.2971397 0.71263075 
-0.9998147 0.018619977 0.0048982725 
-0.75101185 0.5921108 0.29220903 
-0.9529053 0.0352653 0.3012109 
-0.7102918 -0.67473763 -0.20053609 
-0.6924256 -0.49274024 -0.5270237 
-0.6193252 -0.3988252 -0.676295 
-0.643478 0.054147664 -0.76354706 
-0.4364404 -0.6366136 -0.63580096 
-0.5546742 -0.6759713 -0.48517963 
-0.14642438 -0.64414537 -0.75075746 
0.25264144 -0.0416831 -0.96666175 
0.6398442 0.7619331 -0.10028695 
-0.3271645 0.9348036 -0.13822326 
-0.12445752 0.9916758 -0.03300854 
-0.16233426 0.9865313 -0.020093326 
-0.55873764 0.8278326 0.05005646 
-0.39935642 0.8917305 -0.2129117 
-0.18430127 0.7176242 0.67160153 
0.5571278 0.82978034 -0.03276003 
0.41481847 0.16833702 -0.8941971 
0.74610186 -0.06300932 0.6628438 
-0.08512815 0.7654807 0.637803 
0.07863817 0.47480327 0.8765717 
0.0013763293 0.55018526 0.83504146 
-0.43083173 0.7925672 0.4315338 
-0.054446083 0.9884012 -0.14176998 
-0.03478236 0.78762054 0.6151781 
0.36477488 0.8447938 0.39148816 
-0.5842167 0.7984188 0.14566462 
-0.2095005 0.2814427 0.9364292 
0.14404358 0.520459 0.84164953 
0.47519535 0.7295806 0.49183497 
-0.15372792 -0.23132463 0.96065426 
-0.8203728 0.27164456 0.50318754 
-0.9796967 0.14561449 0.13780718 
-0.3842239 0.8782403 0.2847212 
-0.14909065 0.96818894 0.20095333 
-0.7069063 0.5050128 0.49522278 
-0.61223036 0.7863307 -0.08281329 
-0.33221027 0.8386529 0.4316223 
-0.07983286 0.88300526 0.46252403 
-0.21758518 0.90668607 0.3613547 
-0.04246998 0.96908164 0.24305806 
0.45243648 0.699062 0.5537271 
-0.10564593 -0.8262415 0.55332094 
0.37091017 -0.20974246 -0.9046733 
-0.6320284 -0.28349015 -0.7212305 
-0.47532436 0.17499599 -0.86223155 
-0.8562208 0.36250523 -0.36807075 
0.38809377 0.8968971 -0.21203515 
0.28404278 0.91258526 -0.29412237 
0.4154099 0.8858091 -0.20682561 
0.61623377 0.61172193 -0.49603653 
0.10802112 0.5797816 -0.80757964 
-0.24901639 0.5159623 -0.819618 
-0.1402173 0.8213466 -0.55292773 
-0.14037555 0.25858188 -0.9557354 
0.6514378 0.71496594 -0.25387508 
0.3645182 0.6811964 0.6349 
-0.33222324 0.036786932 0.9424831 
-0.6613915 -0.20976795 0.7201102 
-0.9802211 0.17047626 0.100521505 
-0.14530796 0.486938 0.8612647 
-0.32865334 0.22051609 0.91834617 
-0.17536883 0.84658206 0.5025382 
-0.6325876 0.032111548 0.7738228 
-0.10724921 0.5116927 0.85244834 
-0.41787902 0.72323126 0.5498306 
-0.39459336 0.07345325 0.9159153 
-0.5857834 -0.013154303 0.8103609 
-0.8075913 0.00082372234 0.58974195 
-0.045971107 0.52263325 0.8513173 
0.11631559 -0.4306747 0.89498055 
-0.06691637 -0.4986811 0.8641986 
-0.029133607 -0.45417383 0.8904367 
-0.5184536 0.042622034 0.8540428 
-0.57340914 -0.037905816 0.8183919 
-0.9352514 -0.32294175 -0.1449606 
-0.08997271 0.36799318 -0.9254653 
-0.71614105 0.6248182 -0.3110374 
-0.46304187 -0.41277876 0.7843506 
-0.906208 -0.31769207 -0.27903232 
-0.32136515 -0.7850899 -0.5294888 
-0.95498925 0.29043502 -0.06035744 
-0.61877567 0.6739391 0.4036369 
-0.7633216 -0.6453359 -0.029696314 
-0.8287679 -0.5411648 0.14242432 
-0.46927747 -0.6830513 -0.5596603 
0.71175426 -0.2430689 -0.65903217 
0.39189124 0.20842165 -0.89609253 
0.18744692 0.979869 0.0687049 
0.6662552 0.7456675 0.009171567 
0.22254126 0.01994912 -0.9747192 
0.8921452 0.12002829 -0.43551153 
0.8094495 -0.2936862 0.50846833 
0.8307914 0.5217651 -0.19377013 
0.5489518 0.48077646 0.6837441 
-0.06957454 0.14023866 0.9876703 
-0.17641261 0.31248307 0.93339866 
-0.64147455 -0.0042083333 0.7671328 
-0.5100516 -0.3623735 0.78008527 
-0.32181737 -0.80896634 0.49194235 
-0.7106227 -0.32458863 0.6242257 
-0.8261921 -0.5617141 0.043404177 
-0.5793768 -0.80880064 -0.10081769 
-0.46502867 -0.8642832 0.19173685 
-0.5223802 -0.84880245 -0.08156941 
-0.47352007 -0.8784738 0.06373742 
-0.42006966 -0.771755 -0.47742635 
-0.2830971 0.47527337 -0.83304936 
0.26582348 0.9282405 -0.26020688 
0.22833012 -0.24239124 -0.9429273 
0.18967377 -0.5545948 -0.8102152 
0.68539476 0.087847754 -0.7228532 
0.9683133 0.23281349 -0.09037384 
0.96776634 0.18292515 -0.1731094 
0.522388 -0.5591573 0.64378095 
-0.045170087 0.43963972 0.8970377 
0.14120762 0.8301484 0.53936464 
0.6663036 0.39356568 0.6333607 
-0.33622342 0.23426275 0.9121813 
-0.4050165 0.82059884 0.4032113 
0.3193577 0.082987845 0.94399357 
0.88030136 -0.45158815 0.14538838 
0.33059695 -0.2668052 0.9052738 
0.51528406 -0.6706491 0.5335843 
0.4644362 -0.2269639 0.8560295 
-0.63921267 0.60248375 0.47793356 
-0.645144 0.6497401 0.40202877 
-0.46742105 0.86361414 -0.1889137 
-0.7307462 0.5082571 -0.45572445 
-0.26284468 -0.834135 -0.48490363 
0.029396465 -0.7340076 -0.6785048 
0.48067918 0.29138544 0.8270683 
0.5430339 0.75516486 0.3672061 
0.1212664 0.9187555 0.37574306 
0.60785955 0.3947682 0.68895924 
-0.019105606 0.451338 0.8921486 
0.29375473 0.13020773 0.9469711 
-0.28011566 0.5418443 0.7924266 
-0.08512761 -0.001054039 0.99636954 
-0.20175265 0.093644015 0.9749496 
-0.9418288 0.07453506 0.32772428 
-0.5823283 0.8100535 0.06860817 
-0.98080033 0.14745764 -0.12762062 
-0.7543025 0.6143762 -0.23145111 
-0.43360525 0.90068305 0.027508948 
-0.31419024 0.9016491 -0.29717585 
0.034300238 0.9192894 0.39208466 
-0.43081155 0.77929336 0.45508626 
-0.5389778 0.5870708 0.6040288 
-0.6485381 -0.2038988 0.73336464 
-0.811007 0.01937966 0.58471537 
-0.9209549 -0.24064529 0.3064832 
-0.8357958 -0.32544997 -0.44218537 
-0.4124716 -0.29643634 -0.86138994 
-0.11295842 0.48891023 -0.8649897 
0.36452496 0.14786614 -0.9193787 
-0.11805006 -0.45202193 -0.8841608 
0.67584324 -0.56595623 -0.47215414 
0.645391 0.33497873 -0.6864836 
0.94606143 0.08748601 0.31195208 
0.98747003 0.09669932 0.12470886 
0.9386991 0.3444549 -0.013955748 
0.5701626 0.31263447 0.75971997 
0.35998568 0.38059476 0.8517969 
0.8452126 0.034838483 0.5332937 
0.20721917 0.84667295 0.4901075 
-0.56094897 0.6411271 0.5237294 
-0.17797169 0.8967533 0.40516615 
0.056699164 0.95949334 -0.27596694 
0.21759124 0.9694814 -0.11295945 
-0.65842783 0.5036396 0.5593031 
-0.6563671 0.7013613 0.277983 
-0.899281 0.2408061 0.36511117 
0.07645609 0.76261115 0.64232284 
-0.38878804 0.6687168 0.63376784 
-0.23827922 0.8483986 0.47269744 
-0.1816248 0.17928873 0.96688575 
0.07745208 -0.20059507 0.97660786 
-0.49547863 -0.12176196 0.86004364 
-0.35765496 0.9336427 -0.019860163 
-0.29534134 0.90466714 0.30716613 
0.16134234 0.8067538 0.56843376 
-0.23532286 0.8742636 0.42460167 
0.090101324 0.71895015 0.68919694 
0.017949248 0.67099804 0.74124193 
0.37963006 0.39245364 0.83777153 
0.48550457 0.8264372 -0.28510872 
0.68070763 0.7286904 0.075149745 
-0.21357012 0.60347456 0.76824886 
-0.15979953 0.10383508 0.98167336 
-0.24320482 -0.28751293 0.9263843 
-0.659635 0.15118007 0.7362244 
-0.27505678 -0.22082932 0.9357234 
-0.4573666 0.032429572 0.8886867 
-0.27977312 0.41056824 0.86784834 
-0.592693 0.15267089 0.7908267 
-0.89142257 -0.1475107 0.42849305 
-0.79638577 0.046373192 -0.6030085 
-0.99273604 -0.0349239 0.11513334 
-0.40636444 -0.6408736 -0.6512673 
-0.71559596 -0.3774025 -0.58778393 
-0.4828885 -0.11747303 -0.86776656 
0.1331758 0.5381434 -0.8322655 
0.5752518 -0.63372445 -0.51718354 
0.8172779 -0.24825132 0.52002716 
0.8257556 0.19624345 0.5287875 
0.81444573 -0.14852269 0.5609094 
0.9188302 0.008660654 0.3945582 
0.62234163 -0.23730604 0.74590665 
0.23404458 0.23144314 0.94427603 
0.35948426 -0.62678087 0.6913154 
0.298727 0.52687126 0.7957191 
-0.50357187 0.42480657 0.7522997 
-0.56738603 0.74613285 0.34836614 
-0.94411296 0.3168695 0.09079952 
-0.22691017 0.8609487 -0.45527935 
0.050559193 0.86055046 0.5068499 
-0.5119733 0.85292417 -0.10199911 
-0.32356495 0.82096726 -0.47044495 
0.023391606 0.65979075 -0.75108534 
-0.29748732 0.95443904 -0.02340101 
-0.46563464 0.86684483 -0.17822595 
-0.33836532 0.9388733 0.063449666 
-0.679205 0.51736695 0.5205882 
-0.54884744 0.6449812 0.53175724 
-0.01164354 0.81620914 0.5776392 
-0.00060422416 0.29846564 0.95442027 
0.0032652332 0.43434903 0.9007388 
-0.22699697 0.57676053 0.7847419 
-0.31862578 0.8350678 0.4484858 
-0.58201724 0.79197997 0.18445554 
-0.039837226 0.16855928 0.98488617 
0.11226232 0.51422143 0.8502786 
0.7394281 -0.4307632 0.5173868 
0.8615265 0.10309352 0.49713555 
0.24864079 0.8214974 0.513147 
0.12581506 -0.32616737 0.9369021 
-0.15465626 -0.24714504 0.95655674 
-0.8380192 -0.21392173 0.5019577 
-0.048736714 0.3952879 0.9172634 
0.34926313 0.72680813 0.59140956 
-0.01792432 0.5696948 0.8216609 
-0.1498302 0.7769119 0.61152166 
-0.17397614 0.88526195 0.43132764 
-0.065885 0.8452517 0.5302914 
-0.2827865 0.38093948 0.8802937 
-0.90886515 0.24898665 0.33461893 
0.45990345 0.8291355 0.31784144 
-0.049848743 0.5975331 0.8002932 
-0.33233002 0.4772013 0.8135328 
-0.0004967465 -0.48628387 0.8738009 
-0.6239164 -0.016235089 0.7813225 
-0.5096365 -0.3013289 0.80589795 
-0.5522439 0.28649512 0.78290945 
-0.81056774 -0.43533006 0.39174956 
-0.9671196 -0.25428197 -0.0045084376 
-0.9088248 0.3383169 0.24408852 
-0.9287334 -0.24205844 -0.28082383 
-0.35446423 -0.7982345 -0.48700798 
0.04406521 0.024405079 -0.9987306 
0.032938883 0.5924254 -0.80495167 
0.14167504 -0.82737917 -0.5434814 
-0.19676663 -0.48498526 -0.85209876 
0.059357304 -0.0812123 -0.9949278 
0.7968155 -0.54108083 -0.26891738 
0.68783957 0.6302957 0.3600057 
-0.6059409 0.73815346 -0.29658917 
-0.27556393 0.9399784 -0.20125882 
-0.50973016 0.8560213 -0.08603896 
0.066108465 0.91412205 -0.4000132 
-0.023451988 0.9276091 0.37281567 
-0.23574117 0.73109293 0.6402573 
0.18735464 0.9223018 0.33802012 
0.2948685 0.7746049 -0.55949956 
0.53255266 0.7616952 0.36906394 
-0.047303606 0.45938057 0.88697904 
0.19943286 0.44746 0.87178326 
0.6105209 0.35595965 0.7075006 
-0.007364283 0.05275284 0.99858046 
0.0031784354 0.010314102 0.9999418 
-0.048162974 0.46123612 0.88596934 
0.24600321 0.6632943 0.7067695 
0.387383 0.58049405 0.7162131 
-0.11487797 0.27385893 0.95488447 
0.09100955 0.7961669 0.5981937 
0.17545922 0.8803906 0.44059792 
0.3754909 0.59467673 0.7108911 
0.2618675 0.29887196 0.9176606 
-0.72204506 0.05140438 0.6899338 
-0.0980321 0.4892801 0.8665996 
-0.35941425 0.7747145 0.52022964 
-0.69319165 0.41856703 0.58675987 
-0.90818626 0.41669047 -0.039581813 
0.045387994 0.7418872 -0.6689868 
-0.17633688 0.9596453 0.21905784 
-0.49012777 0.621109 0.611554 
-0.5511444 0.821768 0.14469737 
-0.29142478 0.32792488 0.8986307 
-0.38641924 -0.24149723 0.8901456 
-0.4686599 0.86643904 -0.17216635 
-0.953226 0.18825471 -0.23647523 
-0.5228525 0.8314207 -0.18805544 
-0.7832372 0.6030325 -0.15129851 
0.54184026 0.8203905 -0.18267097 
0.201396 0.7652897 -0.6113684 
0.5663449 0.7695023 -0.29516056 
0.86572576 0.31408322 -0.38970575 
0.46691477 0.8840099 0.02274016 
0.25092342 0.95336396 0.16773373 
-0.22687961 0.9705624 0.080835976 
-0.82604444 0.56215775 0.04036469 
-0.5755027 0.19016035 0.79538405 
-0.018135311 0.38627183 0.92220676 
0.351699 0.5430293 0.76251364 
-0.9059155 0.094709925 0.41273135 
-0.8706691 -0.49160272 0.016187042 
-0.049390607 -0.65708447 0.7521972 
-0.35020685 0.1959423 0.9159486 
0.07666606 0.24955952 0.9653198 
-0.008767613 0.35174543 0.93605465 
-0.40079817 0.7215531 0.5645547 
0.2781629 0.5915139 0.75679374 
0.12957886 0.057020634 0.9899283 
-0.3396674 0.42208412 0.84051836 
-0.4160421 0.32011795 0.8511366 
-0.3046465 -0.06334117 0.9503571 
0.18795897 -0.4992632 0.84581786 
0.022863213 -0.12888527 0.9913959 
-0.771239 -0.44261298 0.45747587 
-0.9520797 0.06511349 0.29883876 
-0.9704054 0.19094789 0.14782515 
-0.5921553 -0.35042554 -0.7256405 
-0.34763736 0.7169474 -0.6042639 
-0.63683873 0.69166446 -0.34064165 
-0.67965466 -0.274788 0.6801185 
-0.9834943 -0.18093519 -0.0012016831 
-0.8814743 0.3480057 -0.31921002 
-0.92465276 -0.07173885 -0.3739932 
-0.9229762 0.27193114 -0.2723387 
-0.61312276 -0.12676969 -0.77975 
-0.45590585 -0.012280395 -0.8899433 
-0.84531987 0.06523968 -0.5302624 
-0.5932258 0.22392777 -0.7732656 
0.4732121 0.2536297 -0.84364825 
0.9901801 -0.047045715 -0.13164434 
0.6165455 0.7862313 -0.041377652 
0.7200772 0.49499017 -0.48628557 
0.9950829 0.07837363 -0.060561713 
0.8632277 -0.30475765 0.4024433 
0.8614142 -0.28378776 0.4212247 
0.7482831 -0.017946074 0.6631369 
0.53360075 0.534148 0.65571046 
0.17401148 -0.1814419 0.9678837 
-0.4042434 -0.0050537763 0.9146375 
-0.54604 0.11543069 0.8297687 
-0.67640966 -0.5811148 0.4525213 
-0.6490158 -0.7497643 0.12896506 
-0.78614813 -0.6167578 -0.039763194 
-0.91598237 -0.09462343 -0.3899011 
-0.91433066 -0.22473067 -0.33689103 
-0.5036374 -0.6714297 -0.5436282 
-0.27972263 -0.8646973 -0.4171976 
0.25848097 -0.35049772 -0.9001883 
0.44762602 0.18798317 -0.8742387 
-0.6425036 0.28986388 -0.7093434 
0.10529988 0.24075164 -0.9648578 
0.3371633 -0.10875331 -0.93514365 
0.70146495 0.008924011 -0.7126481 
0.9327772 0.3170941 -0.17140019 
0.95223343 0.3015961 0.047866933 
0.7213842 -0.041183338 0.69130945 
0.11943362 0.43079352 0.8945125 
0.21104243 0.29143628 0.9330199 
-3.8149865e-05 0.38872716 0.9213529 
-0.2086307 0.9451022 0.2515056 
-0.5071279 0.84445965 0.17236349 
0.26530573 0.5584573 0.78596336 
-0.21900448 0.17882478 0.959197 
-0.18380782 0.34686768 0.9197269 
0.64120513 -0.6576534 0.39540884 
0.38074684 -0.30230665 0.87386656 
0.06385129 -0.003449886 0.99795353 
-0.38015443 0.30821678 0.8720579 
-0.1979825 0.9309924 0.30668557 
-0.69002783 0.7203354 0.07055816 
-0.66217214 -0.67780644 -0.31954116 
-0.712653 -0.70117605 -0.021860676 
0.5122002 0.7176114 0.47189513 
0.49812108 0.4671685 0.7304992 
0.3841892 0.6878599 0.6158307 
0.5870034 0.70946246 0.38998738 
0.4184254 0.44500697 0.79176325 
0.2657744 0.39274535 0.88040626 
-0.028336087 0.7574842 0.6522383 
-0.15310971 0.21549484 0.96442705 
-0.3232288 0.36249718 0.87413895 
0.16616888 0.551571 0.8174089 
-0.34537432 0.7490127 0.56541723 
-0.7128539 0.3810855 0.58873874 
-0.30803752 0.8972088 0.31643224 
-0.6672028 0.6310663 0.39572197 
-0.6783638 0.7210104 0.14130323 
-0.51988184 0.4628236 0.7179953 
-0.24935311 0.06628695 0.9661414 
-0.5034412 0.17337145 0.8464569 
-0.8077571 -0.10267758 0.58050495 
-0.7988193 0.22646606 0.55731577 
-0.93613553 0.27656925 -0.21716286 
-0.90754235 0.3871792 -0.16266295 
-0.6514882 0.07597069 -0.7548454 
-0.2749284 0.03475768 -0.96083623 
0.22436236 0.702763 -0.6751191 
0.5030983 -0.48255613 -0.7169601 
0.794348 -0.46351334 -0.3926406 
0.86772084 0.27515522 -0.41394457 
0.9755492 0.1904844 0.10963313 
0.9535524 -0.08137747 0.2900269 
0.5481785 0.31540844 0.7746082 
0.55510587 0.51860034 0.65031624 
0.69110507 0.3682496 0.62190527 
0.54620546 0.6162706 0.56733596 
-0.823098 0.43775865 0.36176953 
-0.6633746 0.6696585 0.33390364 
-0.5470953 0.8014044 0.24173887 
-0.4228564 0.87540776 -0.234209 
-0.1622606 0.62644756 0.76238775 
-0.16535693 0.5265636 0.8338993 
0.010892198 0.6489085 0.76078856 
-0.35439816 0.3934895 0.8482736 
0.15690637 0.71350044 0.68285984 
0.40869674 0.91256607 -0.013797984 
0.34832716 0.74297684 0.5715362 
-0.1379967 0.036043078 0.9897767 
-0.047307905 -0.403705 0.91366524 
0.7210389 0.18621887 0.667402 
0.44462427 0.6717002 0.59256077 
-0.63719255 0.6585564 0.40036133 
0.3088949 -0.107981734 0.9449465 
-0.17274676 0.8071351 0.56452775 
-0.5630571 -0.27472723 0.7794176 
-0.24959263 0.6912379 0.6781546 
0.046643753 0.070109874 0.99644816 
0.55602586 0.77574277 0.29842675 
0.11342038 0.6196986 0.77660125 
0.33753276 0.15537532 0.92840195 
-0.10183757 -0.21407962 0.9714932 
-0.8450114 -0.21754709 0.48849678 
-0.96603876 0.089489095 0.2424063 
-0.62852687 0.7212295 0.29117352 
-0.4568579 0.030686686 0.8890103 
-0.27025363 -0.41809428 0.8672718 
-0.8268282 0.29840878 0.47676772 
-0.88399696 0.36811352 0.2881698 
-0.90929043 -0.052525356 -0.41283438 
-0.97196174 0.005887513 -0.23506543 
-0.7689375 -0.2556136 -0.5860007 
0.06704102 -0.8800297 -0.47016317 
0.117838725 -0.56990385 -0.8132181 
0.8476956 0.28643584 -0.44650504 
0.76056576 0.32362327 -0.56285685 
0.69202167 0.31054303 0.65166634 
0.7480624 0.26858407 0.6068487 
0.92387444 0.20846535 0.32093352 
0.9513523 0.1740693 0.25422168 
-0.09018933 -0.12025749 0.98863745 
0.13139158 -0.05363161 0.9898788 
-0.6251432 -0.18524782 0.7582079 
0.33746806 0.5873397 0.73562723 
-0.39884818 0.23315446 0.88688165 
-0.33158934 0.1735434 0.92732483 
-0.44650376 0.14462985 0.88301563 
-0.10949463 0.98910475 0.09840182 
-0.1761078 0.6139799 0.76942503 
-0.17110407 0.9350073 -0.31062004 
-0.50532824 0.7065678 -0.49538398 
0.47083852 0.85981816 -0.19754446 
-0.037174303 0.96708745 0.2517142 
0.16471271 0.78157896 0.60166776 
0.23561877 0.7099184 0.66370153 
0.06561282 0.42651308 0.90209854 
-0.6836679 0.6101246 0.4004325 
-0.47188607 0.64737993 0.59851724 
-0.6922713 0.3663147 0.6217508 
0.5840965 0.7576319 0.29124764 
0.4230391 0.41198277 0.8070366 
0.5570646 0.68141556 0.47471258 
0.6551 0.7388641 0.15787306 
0.47317827 -0.6991875 0.5359471 
0.70098376 -0.6285741 0.336922 
0.47269765 -0.47237948 0.7439184 
0.2223862 0.14371039 0.964309 
0.6664602 0.025075983 0.74511886 
0.23301701 -0.3254111 0.9164119 
0.14682704 -0.35035667 0.92503625 
0.31094536 0.29274946 0.9042184 
-0.28691077 0.06467024 0.9557719 
-0.42046848 0.45593804 0.7844277 
-0.3681455 0.4538795 0.811457 
0.13531537 0.3310255 0.93386936 
-0.12905543 0.75929224 0.63782436 
-0.42736366 0.5142294 0.74359167 
-0.34799817 0.1591263 0.9238918 
-0.574125 -0.21991992 0.7886797 
0.05841404 0.7064686 0.7053298 
-0.1776626 -0.2125012 0.9608742 
0.051442713 -0.0954027 0.99410874 
0.01278052 0.18674265 0.98232573 
-0.2875333 -0.56507546 0.7733139 
-0.28691363 0.4564746 0.8422064 
-0.37434274 0.36521018 0.8523433 
-0.6724474 -0.4854563 0.55870104 
-0.98906714 0.123160146 0.08110343 
-0.9969086 0.045847308 -0.06380699 
-0.97951245 0.014096381 0.20088996 
-0.8696044 -0.040022984 -0.49212435 
-0.49187952 -0.7375076 -0.46274957 
-0.16283284 -0.45177597 -0.87714535 
-0.32140777 -0.43448228 -0.84138125 
0.05945018 -0.31529185 -0.94713086 
0.06315431 0.3507952 -0.9343203 
-0.086900726 0.52851385 -0.8444652 
0.34718347 0.8514211 -0.39312297 
0.20711745 0.893448 -0.3985639 
0.24511275 0.94295436 -0.22529314 
-0.69449806 0.6780541 -0.2406555 
-0.0017339953 0.99685496 -0.079229206 
-0.45419496 0.790674 0.41053838 
-0.32067132 0.9037279 0.2836301 
0.69534045 0.57744145 0.42785868 
0.33801612 0.7629551 0.55103964 
0.42206153 0.5950586 0.68393666 
0.3042184 0.8126223 0.49708766 
0.13377945 0.5703953 0.8104025 
0.35959902 0.6418793 0.67725885 
-0.17222898 0.10924116 0.9789809 
0.59056276 -0.42170176 0.6880431 
-0.009430731 0.04432864 0.99897254 
-0.25996158 0.03218736 0.96508235 
0.119966276 0.07519541 0.9899261 
0.2257138 0.38163233 0.8963315 
-0.45649162 0.38625556 0.80151236 
0.04902718 0.71955657 0.6927011 
-0.6551604 0.65302044 0.37990674 
-0.4032912 0.326781 0.85473406 
-0.02222179 0.7675871 0.64055926 
-0.24150625 0.2637881 0.9338579 
-0.34493613 0.3088071 0.88637304 
-0.093784116 0.16029072 0.98260444 
-0.3393543 0.69251436 0.63660246 
-0.3875301 0.68045515 0.6219335 
-0.77664924 0.62992835 0.002542435 
-0.5897887 0.44467968 0.67409897 
-0.54338884 0.4880948 0.6830023 
-0.514611 0.7496262 0.4162165 
-0.90391004 0.3630426 0.22615623 
-0.6034968 0.65192074 0.45911992 
-0.9802969 -0.1392135 0.14013423 
-0.35287404 0.8819839 0.312385 
-0.6668887 0.65119773 0.36221683 
-0.4346067 0.80035514 -0.41297525 
-0.25972086 0.9521984 0.16082074 
-0.58183795 0.7067933 -0.4023778 
0.69880354 0.5972007 -0.39373225 
0.3255727 0.945017 -0.030748107 
0.51321435 0.82034546 0.2522784 
0.63114834 0.45452684 0.6285358 
0.3804282 -0.0022778227 0.9248077 
0.20540978 -0.20642512 0.95665854 
-0.37851423 0.5722504 0.7275002 
-0.04426616 -0.015001649 0.99890715 
-0.8622711 -0.17076921 0.4767879 
-0.5346815 -0.7256646 0.43304354 
-0.088577546 -0.9845065 -0.15133129 
0.28811198 -0.93176067 0.22093819 
0.30617398 -0.17280576 0.93616015 
0.6288096 -0.20822476 0.74916023 
0.052556098 0.56511796 0.82333446 
0.5398488 -0.20711383 0.81588435 
0.08314299 -0.10816723 0.9906499 
-0.31619528 -0.62020975 0.7178861 
-0.13984592 -0.18284033 0.9731457 
0.03615189 0.29681963 0.95424896 
-0.015131832 -0.82314646 0.5676275 
0.58623755 -0.017411718 0.8099521 
-0.7084964 -0.07042269 0.70219207 
-0.3784443 0.3044001 0.87413985 
-0.78522056 0.6130206 0.08737589 
-0.97839385 0.04947945 -0.20074193 
-0.6835964 0.6213821 0.38285816 
-0.023618754 0.80645734 -0.59082043 
-0.5061004 0.8440577 0.17728287 
-0.86097157 0.22156642 0.4578606 
-0.90752184 -0.032395057 0.41875386 
-0.86456627 0.48293334 -0.13892652 
-0.7297886 0.3345824 -0.59620744 
0.09259215 0.33632228 -0.9371841 
-0.82863295 0.3506226 -0.43638444 
-0.23516317 -0.11385819 -0.965264 
0.0044545466 -0.013665022 -0.99989676 
0.7514381 -0.07267919 -0.6557885 
0.925306 -0.3087961 0.22012232 
0.8149583 0.57509 -0.071516566 
0.94851196 -0.13011754 -0.28878123 
0.9378501 -0.22832662 0.26135057 
0.46558374 -0.10162589 0.87914956 
0.43901163 0.24965885 0.8630986 
0.8165457 -0.3017432 0.49214238 
0.43385398 -0.7290085 0.5294502 
0.5693505 -0.22025457 0.7920404 
0.20522296 0.001748547 0.97871375 
-0.5779166 -0.5541437 0.5991137 
-0.91255414 0.06774366 0.40330598 
-0.93808055 0.20737936 0.2774866 
-0.79233974 -0.03601851 -0.6090159 
-0.9818029 -0.18989006 -0.0022300917 
-0.6101897 -0.62312174 0.48927283 
-0.9066369 -0.14674802 -0.39556888 
-0.8060035 -0.20009471 -0.5570642 
0.07291767 0.15931965 -0.98453057 
-0.36505666 0.117936246 -0.9234851 
-0.115846895 0.1845406 -0.97597355 
0.31572762 0.32661933 -0.89086246 
0.51066595 -0.54785883 -0.66262436 
0.9818468 -0.057821926 -0.18064786 
0.897924 0.3168731 0.30548963 
0.80909663 0.25866076 0.5276907 
0.4527939 0.21177743 0.8660993 
0.8421873 0.19585505 0.5023559 
0.2338708 0.58840674 0.77400386 
-0.060951326 0.31683707 0.94651955 
0.39752817 0.24904309 0.8831472 
0.41748935 0.15668246 0.89507174 
-0.06834731 0.7795919 0.6225472 
-0.7676249 0.072184734 0.6368213 
0.42887533 0.51677823 0.74094963 
0.4417609 0.4024994 0.801774 
0.017785775 0.04349695 0.9988953 
-0.21828288 0.05239923 0.9744778 
-0.33994183 0.3745796 0.8626296 
-0.90688074 0.3725533 0.19690455 
-0.84779227 0.18754584 0.49605936 
-0.8050295 0.40849915 -0.43018144 
-0.6449992 0.11949828 -0.75478226 
0.7384522 0.67227226 0.05232967 
0.60763425 0.712974 0.3499269 
0.18374707 0.91534084 0.3583129 
0.20049894 0.82108766 0.53442985 
0.08421621 0.9572738 0.27664882 
0.08215126 0.4756208 0.8758059 
-0.07782909 -0.16358204 0.98345494 
-0.18809949 0.20286134 0.9609713 
-0.3930565 0.50326467 0.76956564 
-0.62890637 0.7232543 0.2852718 
0.14034054 0.086043596 0.9863575 
-0.28648487 0.749831 0.5963892 
-0.7530961 0.60026896 0.2693016 
-0.43313122 0.8390526 0.32922333 
-0.2152397 0.686941 0.6941066 
0.5229474 0.33713764 0.7828565 
-0.44578314 0.17543565 0.8777811 
-0.38755396 -0.15971074 0.9079066 
-0.79371154 0.0661533 0.60468644 
-0.96957064 -0.07636151 -0.23259805 
-0.81354254 0.5814729 -0.006157703 
-0.9582106 0.15207334 -0.24229398 
-0.7585824 0.21302798 -0.61576927 
-0.77870005 0.57695425 -0.2464754 
0.15332536 0.69714886 -0.7003391 
0.2444631 0.4907944 -0.83627677 
0.33404872 0.63222057 -0.69907707 
-0.38530958 0.66603273 -0.63869953 
0.7360994 -0.024024332 -0.67644703 
0.8946861 -0.19334893 0.40268248 
0.90468454 -0.07355278 0.41968557 
0.65543085 0.37211254 0.6572235 
0.45185694 -0.04505339 0.8909521 
0.44987765 0.12343358 0.8845193 
-0.05961228 0.46653396 0.8824921 
0.46064726 0.15185466 0.8744967 
-0.17081201 0.6570294 0.7342586 
0.41313162 0.9104975 -0.017797213 
0.36098975 0.7782396 0.51383805 
0.399681 0.77401316 0.4910793 
0.7587166 0.27631733 0.5899136 
0.81078523 -0.20755939 0.54730827 
0.8391094 0.3038676 0.45117623 
0.11394705 0.45504913 0.8831458 
0.03093649 0.15230528 0.9878493 
0.10813991 -0.23420696 0.9661537 
-0.3031861 0.042869493 0.95196664 
0.44097385 -0.29759938 0.8467447 
0.9131319 -0.34019816 -0.22462288 
0.36391285 -0.27131605 0.89104164 
0.72975147 -0.032392293 0.6829448 
0.29518276 0.109102875 0.9491911 
-0.0045584603 0.21469897 0.9766697 
-0.30348065 0.8262874 0.47449833 
-0.36643112 0.48120672 0.7963469 
-0.03779078 0.5787089 0.81465816 
-0.36437666 0.20325406 0.90880007 
-0.19282873 -0.25813532 0.9466695 
0.50413525 -0.48583782 0.7140094 
-0.7957464 -0.08449372 0.59970707 
-0.9664344 -0.11933627 0.22751576 
-0.7696048 -0.16326879 0.6172941 
-0.22163758 -0.74063337 0.6343021 
-0.6010956 -0.75843245 0.25192162 
-0.7966046 -0.29064405 0.53004473 
-0.78152615 -0.60019165 -0.17025551 
-0.9333351 -0.2011757 -0.29734495 
-0.9888053 0.13665971 -0.059902456 
-0.09191057 0.019721942 -0.995572 
0.44298074 0.03618594 -0.8958006 
0.5044243 -0.63064134 -0.5897862 
0.9364468 -0.2820982 -0.20853798 
0.97124416 -0.08493098 -0.22242182 
0.89886004 -0.1056606 0.42530772 
0.5694082 0.07779224 0.8183659 
0.8190863 0.056547083 0.5708765 
0.97278345 0.000662963 0.23171502 
0.62976265 0.089515775 0.77161264 
-0.40934548 0.3866776 0.82638776 
-0.81262624 0.3543553 0.46267813 
-0.35135105 0.43459 0.82926714 
-0.3231464 0.36550784 0.87291497 
-0.575307 0.4217522 0.7008188 
-0.51162755 0.05227614 0.8576156 
-0.57251465 0.58400166 0.5754729 
-0.4586142 0.7358844 0.49814388 
-0.019515239 0.7215382 0.6920996 
-0.41933846 0.60326433 0.6784007 
0.15382777 0.5895445 0.7929529 
-0.069913335 0.9334352 0.35186774 
-0.1477198 0.82571393 0.5444036 
0.4488131 0.7072235 0.54626167 
-0.14466467 0.7259082 0.6724057 
-0.25015217 0.64742047 0.71991014 
0.4049734 0.35630035 0.842049 
-0.604339 0.7041953 0.3726707 