# OOMMF: rectangular mesh v1.0
# Segment count: 1
# Begin: Segment
# Begin: Header
# Desc: Time (s) :  2.769999999999997e-07
# Title: m
# meshtype: rectangular
# meshunit: m
# xbase: 2e-09
# ybase: 2e-09
# zbase: 5e-10
# xstepsize: 4e-09
# ystepsize: 4e-09
# zstepsize: 1e-09
# xmin: 0
# ymin: 0
# zmin: 0
# xmax: 1.024e-06
# ymax: 1.024e-06
# zmax: 1e-09
# xnodes: 256
# ynodes: 256
# znodes: 1
# ValueRangeMinMag: 1e-08
# ValueRangeMaxMag: 1
# valueunit: 
# valuemultiplier: 1
# End: Header
# Begin: Data Text
0.6317856 0.08813953 0.770116 
0.21833928 0.66462207 0.71456665 
-0.36369792 0.83796453 0.4068653 
-0.75000113 0.36118814 0.5541134 
-0.21275893 0.95740736 0.19520476 
-0.8443067 0.50156313 0.18862823 
-0.5353444 0.4180522 -0.7339201 
-0.63927096 0.71842843 -0.27421394 
-0.3959263 0.4113162 -0.8210124 
-0.52047116 0.38046768 -0.76443064 
0.11092652 0.6564152 -0.74619997 
-0.5244164 0.06574594 -0.84891987 
-0.25295103 0.5162106 -0.81825566 
-0.04788305 0.5044497 -0.86211234 
-0.3794404 0.88520765 -0.26913282 
-0.23891202 0.87113625 -0.4290021 
0.021810668 0.37144664 -0.9281981 
-0.17934062 0.97087383 -0.15887386 
0.53727823 -0.48863006 -0.6874393 
0.5236263 0.79091805 -0.31664532 
0.59012014 0.7486275 -0.30218396 
0.5150003 0.64865935 -0.5603712 
0.5110157 0.855181 0.08676708 
0.99719375 -0.023893101 -0.07094906 
0.5098864 0.64687616 0.56706893 
0.47315857 0.7740263 -0.4207189 
0.38166556 0.9103594 -0.15992877 
0.121159434 0.4371637 -0.89118373 
0.7753808 0.6134439 -0.14990403 
0.9786557 -0.13611898 0.15396352 
-0.18735136 0.68137264 0.7075527 
0.25040966 0.9493298 0.18991546 
0.31823587 0.7779732 0.54174143 
0.3088431 0.5160842 0.79892 
-0.10135635 0.79979175 0.5916588 
0.84553325 0.25579336 0.46866128 
0.26171798 0.86120063 0.4357032 
0.1106841 0.6190608 0.7775042 
-0.5818659 0.7884279 0.19953303 
-0.24553847 -0.6223869 0.7431995 
-0.45064333 0.08571567 0.88857955 
0.17309569 -0.24860005 0.9530142 
0.41633323 -0.63176703 0.6538633 
-0.23395583 -0.7594364 0.60705936 
0.8655948 0.27277502 0.41992807 
0.20170279 0.7287278 0.6544248 
0.52795404 0.7480717 0.40206143 
0.18389302 0.8489709 0.49541095 
0.28036666 0.8818202 0.37919343 
0.12774807 0.8060449 0.5779033 
0.29643768 0.793804 0.5310366 
-0.24693237 0.19467185 0.94927734 
-0.40978903 -0.49990422 0.7629999 
-0.90018463 0.2522318 0.35503075 
0.17594185 0.90478486 0.3878259 
-0.74373984 0.21912311 0.63153476 
-0.6995056 0.1282887 0.7030177 
-0.6223196 -0.06021855 -0.7804435 
-0.89602077 0.43943638 -0.06358105 
-0.887504 0.28284037 -0.36378312 
-0.49180955 0.6665811 -0.56017244 
-0.5441099 -0.035365336 -0.8382683 
-0.34745765 -0.16617674 -0.9228535 
-0.23325144 -0.16889335 -0.9576371 
-0.17312376 0.22400907 -0.9590872 
0.8057855 -0.2718053 -0.5261481 
0.91877514 -0.3267519 -0.22155246 
0.91853493 0.34409022 -0.19466762 
0.8833088 0.43505433 -0.17462324 
0.759005 0.63934875 0.12306302 
0.2618071 0.8510435 0.45517263 
-0.07360284 0.7928307 0.604981 
-0.86392236 0.50332975 -0.017242873 
-0.49920538 0.8459301 0.18760647 
-0.39934826 0.8641623 -0.30617744 
-0.55632126 -0.28484073 -0.7806231 
-0.34198657 0.41610214 -0.8425582 
-0.47976077 0.7641948 -0.43108705 
-0.4083283 0.46913218 -0.78306 
0.26790294 0.9158825 -0.29897687 
0.7241504 0.5310001 0.4400512 
0.050981715 0.9544631 0.2939406 
-0.20025156 0.9707031 -0.13279618 
-0.33017924 0.9362442 -0.12011917 
-0.061907027 0.6260892 -0.77729005 
0.33229983 0.8137316 -0.47688344 
0.6381279 0.70579475 -0.30764675 
-0.16588745 0.9767481 -0.13581036 
-0.38328117 0.9208097 -0.07214617 
-0.6322692 -0.099781595 -0.7682964 
-0.029794974 -0.34022278 -0.93987274 
0.36055887 -0.41647047 -0.83459556 
0.47592545 -0.105339825 -0.8731544 
0.013026107 -0.088352464 -0.9960041 
0.21267256 -0.68803453 -0.6938148 
0.39147133 0.13651194 -0.9100081 
0.31171435 -0.29337746 -0.9037499 
0.18007632 -0.8097303 -0.55848855 
0.02872853 -0.27949542 -0.9597172 
0.7259881 0.5343688 -0.43288714 
0.34384167 0.61652285 -0.7082885 
0.30779552 0.84379977 0.43961808 
0.15965438 0.83528125 0.52613294 
0.008235159 0.8400797 0.5424006 
0.56915295 0.79657 -0.20381692 
0.24518056 0.96077967 0.12957299 
0.5959748 0.781757 0.18349424 
0.07851241 0.67192686 0.73644435 
-0.14505929 0.7373993 0.659697 
0.23599187 0.96679205 -0.098086745 
-0.23109367 0.96525925 0.12194386 
-0.42991954 0.5436336 0.72085494 
-0.58686125 0.5943754 0.5498289 
-0.55763686 0.01835812 0.829882 
-0.90164375 0.37679058 0.21229114 
0.034688935 -0.65092415 -0.75834984 
0.13754542 -0.89877963 -0.41626474 
0.5044303 -0.3913515 -0.76967144 
0.7903922 -0.21123104 0.5750319 
0.41168013 -0.27317187 0.8694232 
0.36028856 0.47332934 0.8038355 
0.9714601 -0.20150658 0.12514149 
0.6872252 0.23718551 0.6866328 
0.6274716 0.4191184 0.6562158 
-0.21925941 0.85474503 0.47046393 
-0.81300414 0.2740451 -0.5137349 
-0.30074015 0.3568446 -0.8844306 
-0.3022736 0.94562715 -0.120083936 
-0.25755948 0.8960303 -0.3616531 
-0.5285161 -0.514769 -0.67504346 
-0.29676628 -0.6266548 -0.72057873 
0.023506086 -0.88755447 -0.46010286 
0.38909504 -0.86633307 0.3131645 
-0.1716049 -0.9771888 0.12511499 
0.53335947 -0.8205441 -0.20551154 
0.9569979 -0.013163832 -0.28979635 
0.5126254 -0.42420465 0.74650234 
0.5852322 -0.73235863 0.34807208 
0.5170364 -0.65648127 0.5492776 
0.026472036 0.10977474 0.993604 
-0.052461658 0.99812376 -0.031573523 
-0.23219813 0.9507671 -0.20524652 
0.42641294 0.35363856 -0.8325334 
0.39637262 0.3061219 -0.8655509 
0.4440821 0.84170675 -0.307117 
-0.63994896 0.74835324 -0.17444986 
-0.4262948 0.9041013 -0.029557789 
-0.9531618 0.19648138 -0.22995178 
-0.61271286 -0.3609476 -0.7030646 
-0.61699563 -0.13309208 -0.77563065 
0.10646236 0.108851165 -0.9883406 
0.84987867 0.42552727 -0.31085843 
0.89004207 0.4467501 0.09077233 
0.8223635 0.54561603 -0.16131145 
0.6848563 0.5490712 0.479054 
0.36454883 0.19407332 0.9107358 
0.5789339 0.58339745 0.56963414 
0.65890723 0.3761991 0.65139514 
0.66243565 0.48277768 0.5728043 
0.0020189255 0.5750667 0.8181041 
0.5919115 0.39767784 0.7010658 
0.36394635 0.8315641 0.41957635 
-0.38271835 0.864946 0.32464606 
0.053997587 0.79578185 0.6031713 
0.4647768 0.7018034 -0.53986543 
0.48769468 0.8536777 -0.18272504 
0.24340506 0.62029505 0.74564606 
-0.34808382 0.22452597 0.910179 
-0.36742607 0.17395145 0.91364056 
-0.45600912 0.5242884 0.71915054 
-0.5370401 0.048261125 0.842175 
-0.64029956 0.123472884 0.7581365 
-0.8644571 0.48896965 0.11671618 
-0.8457842 0.525214 -0.093805544 
-0.77653533 0.287054 0.56088597 
-0.88934 0.039429262 -0.45554346 
-0.92946535 0.12844585 -0.34582627 
-0.5458886 0.13234675 -0.82733905 
-0.5819803 -0.18641701 -0.79154766 
-0.5388512 -0.50838387 -0.67170334 
-0.6996699 -0.33097824 -0.63317895 
-0.3780684 -0.11895142 -0.918104 
-0.5351136 0.3496737 -0.7690136 
-0.019433968 0.19307257 -0.9809921 
-0.30777174 0.911615 -0.27246055 
-0.24110201 0.9704153 0.012812104 
0.38340366 0.7600439 -0.5247237 
-0.0056611598 0.99982345 0.017920982 
-0.48732546 0.87235135 -0.038951363 
-0.39625025 0.9111285 -0.11327242 
-0.6733469 0.7243242 -0.14818406 
-0.5588785 0.8275899 -0.052440163 
-0.38177532 0.36104697 -0.8508188 
-0.3177548 0.71843606 -0.61877424 
-0.89971715 0.33299735 0.28217345 
-0.8417134 0.36189076 -0.40069136 
-0.067444645 0.868708 -0.4907113 
-0.726698 0.32795262 -0.6036201 
-0.64121526 -0.748369 0.16966735 
0.19653988 -0.33545804 -0.9213252 
0.29246008 -0.09075109 -0.9519619 
0.93012667 -0.2171693 -0.29614496 
0.9565177 -0.18744346 -0.22347043 
0.51510125 0.8431871 -0.15396813 
0.6207485 0.14378782 0.77071166 
0.42740175 0.8274222 0.36428046 
0.2000123 0.448945 0.8708867 
0.25072363 0.31726 0.9145948 
0.093055606 0.868853 0.48624617 
-0.02902221 0.14670612 0.9887543 
0.12756127 0.75616443 0.6418283 
-0.82660383 0.44605517 0.34316325 
-0.6554691 0.75517255 -0.008646368 
-0.5423055 0.6768621 0.49775738 
-0.8853928 0.34415495 -0.31246915 
-0.48469904 0.39228863 -0.78177786 
0.012031034 0.93569803 -0.35259694 
-0.6554237 0.7457395 0.11955057 
-0.3987726 0.8180582 -0.4144408 
0.4977024 0.82651955 -0.26297882 
0.24915601 0.85406 0.45662108 
0.7197037 0.6569801 0.2245078 
0.6494417 0.75284994 0.10696904 
0.52132446 0.83188367 0.19023773 
0.5410978 0.8360264 -0.09095685 
0.7926892 0.489464 0.36341268 
-0.060228236 0.6118792 0.78865486 
0.12333696 -0.17329943 0.97711587 
0.4776556 0.22703792 0.8487042 
-0.73353916 0.27370435 0.6220983 
-0.4881665 0.3313667 0.80739677 
-0.94167936 -0.14250362 0.3048486 
-0.8544614 0.25490108 -0.4526823 
-0.52217287 0.8230285 -0.2235166 
-0.5572336 0.82946813 -0.03838715 
0.37619272 0.35154918 -0.85725856 
0.13099074 0.3104397 -0.9415247 
0.019637002 0.3588601 -0.9331848 
0.5846246 0.4666876 -0.6636392 
0.17773567 0.97339976 -0.14457862 
0.79512036 0.4129946 0.44409367 
0.96348244 0.0937719 0.25081536 
0.60720843 0.73800886 0.29434824 
-0.0010893529 0.9983238 -0.057866417 
0.04205748 0.95718557 0.28640354 
-0.15462317 0.91258943 -0.37851337 
-0.18078375 0.93558973 -0.30329725 
-0.015128168 0.3436695 -0.9389689 
0.1723268 0.50355536 -0.8466023 
0.697872 0.16848138 -0.69612414 
0.51450664 0.4451678 -0.73287696 
0.6987786 -0.54944026 0.45806536 
0.9646559 0.25069726 -0.081179574 
0.8073937 -0.019604266 0.5896873 
0.27623484 0.15735725 0.94812083 
0.7721068 0.11453389 -0.62508637 
0.48122436 -0.62190473 0.61778456 
-0.7703243 0.5171092 0.37309322 
-0.4962864 0.42231035 0.7585209 
-0.80981356 0.3728383 0.45298308 
-0.49393547 0.85893977 0.13509357 
-0.6969398 0.535364 0.47713768 
-0.66793334 0.18435952 -0.7210247 
-0.75322294 0.21906585 -0.620214 
-0.421999 0.13494332 -0.8964972 
0.12772408 0.625853 -0.76941186 
0.30721623 0.71395504 -0.6291951 
-0.31892815 0.8705006 -0.37485147 
-0.14413206 0.5633991 -0.8135155 
-0.5111117 0.53326917 -0.6740837 
-0.18965347 0.61689633 -0.7638524 
0.5834333 0.458261 -0.67052406 
0.76553607 0.5049908 -0.39867145 
0.63077056 0.75986654 -0.15726197 
0.91947675 0.31728572 -0.23214716 
0.7472139 0.6176104 0.24541564 
0.87828904 0.47672868 -0.036583487 
0.9010532 0.41523546 -0.12523025 
0.92216676 0.18889183 0.33753282 
0.57197005 0.25831744 0.77853864 
0.2756585 0.96099734 0.02228491 
0.5372583 0.6708333 0.5112106 
-0.18022507 0.75185436 0.6342192 
0.005359096 0.38184705 -0.9242101 
0.9431544 0.30738083 -0.12639952 
0.95312315 0.10623034 0.28332213 
0.25534824 -0.018347342 0.96667504 
0.28777567 -0.17302957 0.9419374 
0.21791595 0.5338209 0.8170361 
0.45177913 0.735169 0.50539315 
0.02145347 0.9330282 0.35916328 
0.47955078 0.7853349 0.39151007 
0.15848607 0.85823935 0.4881675 
0.8119159 0.38945898 0.4348729 
-0.6425828 0.64148283 0.41903123 
0.14211841 -0.740937 0.65636486 
-0.575344 -0.78650516 0.22447483 
-0.65583116 -0.74346995 0.13091221 
-0.64018136 -0.73925525 0.20897283 
-0.0024021806 -0.9751759 0.22141871 
0.36516124 -0.62771374 0.6874829 
0.16885594 0.43425232 0.8848235 
0.24118328 0.9450578 0.22067246 
0.2335076 0.59315807 0.7704789 
0.41404045 0.5859982 0.69654626 
0.028955398 0.8206476 0.57070076 
0.22541852 0.6694329 0.7078461 
-0.17377314 0.36085725 0.9162887 
-0.8153178 0.29967463 0.49543113 
-0.6302186 0.3690295 0.6831118 
-0.26225117 0.9531526 0.1507469 
-0.8304507 0.41440585 -0.37231633 
-0.8248079 0.5650504 -0.02024973 
-0.8404711 0.23768012 -0.4869461 
-0.99672145 -0.0808363 0.0034540344 
-0.9516682 0.20384686 0.22972617 
-0.5830805 0.30032077 -0.7548673 
-0.3499547 -0.4372062 -0.828482 
-0.35313186 -0.008231488 -0.9355374 
-0.02137377 -0.31021458 -0.9504263 
0.27196038 -0.013820122 -0.9622093 
0.9667875 0.18794563 -0.17320034 
0.97067255 0.08424595 0.22516131 
0.7118404 0.08084492 0.6976729 
-0.061636124 0.39084196 0.91839194 
-0.16116048 0.6612293 0.7326685 
-0.22201517 0.8625891 -0.4545868 
-0.038447626 0.6947643 0.7182092 
-0.2750779 0.25906733 0.9258598 
-0.27989468 0.9379273 0.2048206 
-0.35348165 0.8959835 0.26882008 
-0.9597325 -0.06949368 -0.27218452 
-0.31493422 0.949095 -0.00593068 
-0.90528953 0.37426853 -0.20093285 
-0.5536923 0.547589 0.62735254 
-0.31479138 0.9274867 0.20168021 
-0.18497804 0.97449785 0.12703215 
0.12848616 0.99100184 -0.03750551 
0.0901571 0.85595244 0.5091339 
-0.007505681 0.99914145 -0.040745057 
0.052308872 0.9947461 -0.08799979 
0.25047946 0.9418543 -0.22398809 
0.52418035 0.82503355 -0.2110798 
-0.095226444 0.9749559 -0.20097962 
-0.6133885 0.7897118 0.010481968 
-0.720044 -0.08885022 -0.6882168 
0.29729772 -0.541534 -0.78635556 
-0.33565578 0.08971507 -0.9377027 
0.6574073 -0.20113617 -0.7261955 
0.3507263 0.29824725 -0.88771605 
0.17949578 -0.019122293 -0.98357296 
0.895887 -0.069475226 -0.43881613 
0.22258578 -0.54301184 -0.8096875 
0.6500366 0.014036062 -0.75977325 
0.4703237 0.103758104 -0.87637323 
0.7795763 0.14905812 -0.6083111 
0.99096024 0.054983094 0.12237088 
0.44645908 0.84019715 -0.30780378 
0.6102444 0.6359114 0.47246018 
0.17606996 0.5019833 0.8467658 
0.014860383 0.8036953 0.5948556 
0.2510294 0.8020125 0.54199654 
-0.012860048 0.824043 0.5663814 
-0.25514644 0.7957808 0.54921156 
-0.15893799 0.38850293 0.90763664 
-0.4501246 0.37470576 0.81054515 
-0.8280756 0.5221177 0.20416647 
-0.3181504 0.36822712 0.87360704 
-0.5400856 -0.5002737 0.67678195 
-0.85467076 -0.5021678 0.13177848 
-0.6159819 -0.50211525 0.60699815 
0.060118593 -0.10974925 -0.9921395 
0.24805999 -0.5859697 -0.7714311 
0.8579945 -0.26523712 -0.43988025 
0.92066664 -0.38649258 0.054740295 
0.32345113 -0.81140286 0.48683134 
0.7065145 -0.47493374 0.5246668 
0.70971644 0.26869652 0.65123326 
0.6032321 -0.3951334 0.69280636 
0.6243561 0.68065614 0.38325804 
-0.275988 0.56726456 0.7759134 
-0.84060055 0.31344613 -0.44174922 
-0.75283855 0.49014425 -0.43930933 
-0.096343406 0.9946697 0.036746353 
-0.5426723 0.7155393 -0.43989807 
0.27845326 0.4469047 -0.8501413 
-0.13481537 -0.48088682 -0.866356 
0.39598384 -0.5339738 -0.7470401 
0.51397264 -0.8515897 -0.103088595 
0.37315118 -0.9231182 -0.0927961 
0.9266751 -0.33326754 0.17379911 
0.9250867 0.22497743 0.30594087 
0.78986895 0.1930357 0.58210343 
0.54112494 -0.5541468 0.6325387 
0.31887296 -0.6675206 0.6728569 
0.020225553 0.40206936 0.9153859 
-0.6311846 0.2710716 0.72672296 
-0.015172264 0.56961447 0.8217721 
-0.33716005 0.7911781 -0.5102553 
0.22497745 0.60019296 -0.7675634 
-0.5564014 0.5189926 0.6488946 
-0.019441713 0.96050245 -0.27759162 
-0.6360752 0.7346935 0.235868 
-0.7612271 0.64747864 -0.03612203 
-0.66839546 0.19367854 -0.7181478 
-0.019172426 0.09670248 -0.9951287 
0.37805593 -0.054798923 -0.9241596 
0.4223909 0.59812665 -0.6810511 
0.9964626 -0.07556922 0.03676663 
0.7166564 -0.6773277 -0.16622527 
0.85958064 0.15920426 0.48556682 
-0.5088602 0.80821294 0.2964007 
0.4209609 0.71786267 0.55449533 
0.44260034 0.8499749 0.28574097 
0.83256745 0.479131 0.2779656 
0.66274744 0.7377408 0.12846959 
0.48399487 0.5919722 0.64445174 
0.2829226 0.5132848 0.810243 
0.10088578 0.55771935 0.82387584 
-0.09195199 0.32565647 0.94100624 
0.11302865 0.72203726 0.682559 
0.31528512 0.94848263 -0.031242158 
0.72585905 0.2692457 0.6329577 
0.45653254 -0.07305022 0.8867027 
-0.46943113 -0.43521425 0.76825976 
-0.92974544 -0.34408116 0.13107914 
-0.8353234 0.18803585 0.51660174 
-0.763862 0.22603509 0.6045024 
-0.6268499 0.43772095 0.64456165 
-0.64488196 0.76184005 -0.06105065 
-0.498546 0.77907836 -0.38011685 
-0.4263952 0.9028115 -0.05584436 
-0.35616288 0.5612595 -0.74708486 
-0.28364876 0.81124866 -0.51129156 
0.05505704 0.2590171 -0.96430236 
-0.675911 0.45200685 -0.58209467 
-0.86640096 -0.09737062 -0.48976368 
-0.40678895 -0.014262317 -0.9134109 
0.029191738 0.11462279 -0.9929801 
-0.2689717 0.712621 -0.64793956 
-0.19251744 0.9578708 -0.21312116 
-0.663704 0.7478802 0.013124829 
0.19359542 0.8649383 -0.46303624 
-0.22320323 0.9428747 -0.24732123 
-0.1879471 0.94642335 -0.26259986 
-0.79990274 0.5936767 -0.087770626 
-0.64478344 0.68662274 -0.3358624 
-0.93180895 -0.07263813 -0.35560635 
-0.93039316 0.36316124 0.049826168 
-0.49840555 0.86165476 -0.09561933 
-0.5735992 0.16591129 -0.80215806 
-0.4806146 0.28068176 -0.8307992 
0.086660095 -0.15052584 -0.98480046 
-0.3471449 0.58790565 -0.7306555 
-0.3148914 -0.618924 -0.7195669 
0.022639891 -0.6272193 -0.77851355 
0.44920596 -0.45560595 -0.7685293 
0.64611894 0.044117395 -0.76196057 
0.8963948 -0.32855037 -0.29754168 
0.31189743 -0.9214235 0.2317297 
-0.31010437 -0.4298965 0.84795314 
-0.4190443 0.7277869 0.5428887 
-0.10527205 0.28607485 0.952407 
0.010568613 -0.34351662 0.9390872 
0.025046673 0.14541763 0.9890533 
0.07287773 -0.5161916 0.853367 
0.014186365 0.9332701 0.3588951 
-0.75295335 0.41109514 0.51386976 
-0.7511747 -0.14224413 0.64459544 
-0.63952404 0.66104454 0.39246553 
-0.6100376 0.6678137 0.4264727 
0.14694975 0.98729044 -0.060526837 
-0.37911904 0.867816 0.32119203 
-0.7356188 0.46386942 -0.49364972 
-0.34176219 0.7361218 -0.58422893 
0.19178025 0.9388298 0.28604046 
0.24653144 0.8365683 0.48926058 
0.29524717 0.92012465 0.25729337 
0.28858143 0.64846003 0.7044291 
0.20116535 0.5192069 0.8306363 
0.5792011 0.49491116 0.64775693 
0.21783717 0.64704776 0.7306683 
-0.037709713 0.89765906 0.43907446 
0.17925431 0.7346951 0.6542867 
0.47741973 0.46077517 0.74816895 
-0.4141337 0.3938658 0.82058716 
0.02679219 0.67422205 0.7380426 
-0.17072925 0.5634909 0.80828804 
-0.8877455 0.41039956 0.20851928 
-0.6114224 0.71020454 -0.34895894 
-0.17226781 0.67540264 -0.7170462 
-0.47297916 0.7833949 -0.40321615 
-0.06549482 0.44164658 -0.8947954 
0.29180288 0.68061703 -0.6720205 
0.14723891 0.6661933 -0.7311 
-0.2612856 0.77512234 -0.57525235 
0.4563956 0.8346573 -0.3083022 
0.43826786 0.8734421 -0.21217957 
0.7491603 0.6242238 0.22159311 
0.17852001 0.683425 0.70785654 
-0.21549435 0.613628 0.7596203 
-0.25502694 0.8972835 0.3603382 
0.10409886 0.97761786 0.18283036 
0.22633421 0.97246456 0.055548236 
0.30739862 0.8990609 -0.31176215 
0.9853072 0.1334196 -0.10662549 
0.9327966 -0.35725018 -0.04756882 
0.90742594 -0.30649796 -0.2874668 
0.46778172 -0.0381993 0.8830182 
0.052939292 -0.6101876 0.7904863 
-0.093904525 -0.33009467 0.9392655 
0.032852136 0.4841144 0.8743878 
0.386371 -0.73151773 0.56178224 
0.09555994 0.76832306 0.63288856 
-0.5126315 0.5692468 0.6427807 
-0.81234205 0.5831742 -0.0028909377 
-0.87423253 0.44577187 0.19236688 
-0.4906852 0.08079574 0.86758304 
-0.62356925 0.64783347 -0.43757662 
-0.71883184 0.4469792 -0.53243816 
-0.18092649 0.5213422 -0.8339472 
0.7537645 0.60432017 -0.25813985 
0.09567095 0.9922058 0.07984289 
0.14932041 0.9597731 -0.23777916 
-0.76558715 0.59517 -0.24423142 
-0.82087433 0.5683982 -0.05557798 
-0.25349793 0.858756 -0.44528311 
0.29470292 0.9459113 -0.13565487 
0.5287224 0.81891364 0.22323339 
0.18269002 0.87759656 0.44322538 
0.44110286 0.8673908 -0.2303507 
0.5217543 0.3266624 0.7880763 
0.6521492 0.49878207 0.5708923 
0.61252654 0.47498477 0.6318234 
0.6604789 0.6109823 0.4364267 
0.64363945 0.33698204 0.68714726 
0.04288983 0.2108418 0.9765789 
-0.6110893 0.6423643 0.4625344 
-0.39180684 0.846025 0.36156482 
-0.23383324 0.90084034 0.36579874 
0.18061496 0.5151362 0.8378622 
0.32429853 0.71737623 0.61660516 
0.45406038 -0.15286034 0.87776023 
0.29014015 -0.3350704 0.8964076 
0.4573051 0.24447925 0.855045 
0.7913096 0.49178502 0.363286 
0.6303678 0.49710146 0.5962606 
0.13014549 0.63943964 0.75774616 
-0.343834 0.84638965 0.4066975 
-0.7137542 0.18860519 0.6745243 
-0.51145303 -0.37101856 0.7750877 
-0.5731403 -0.6106251 0.5464862 
-0.57589096 -0.20622401 0.79108864 
-0.42301878 -0.45147705 0.7856357 
-0.22128089 -0.7959592 0.563457 
0.17044605 -0.9688464 0.1796802 
0.7354487 -0.5207533 0.4335104 
0.17103423 0.057882614 0.98356336 
-0.30828786 0.39897493 0.8635842 
-0.034776706 0.25600302 0.9660502 
-0.2750229 -0.25648123 0.9265958 
0.34793577 0.3420022 0.872912 
0.10988005 0.45983553 0.88117975 
-0.2525367 0.45199227 0.8555281 
-0.34815553 0.8017103 0.48584807 
-0.9796043 -0.06621294 0.18971387 
-0.9561438 0.29232812 -0.018258953 
-0.81059057 0.3534982 -0.46688554 
-0.31661785 0.740317 -0.5930295 
-0.82106996 0.54292464 -0.1762869 
-0.9258961 0.27767164 -0.25615403 
-0.623789 0.11675728 -0.77282286 
-0.24652012 0.32175875 -0.91416585 
-0.11137238 0.009641623 -0.993732 
0.06599118 0.28414032 -0.956509 
-0.08674448 -0.41316634 -0.90651476 
0.26159164 -0.04527383 -0.9641163 
0.81112707 0.0461877 -0.58304346 
0.9189416 0.23106991 0.31961414 
0.8907145 -0.29922768 0.3421847 
0.585539 0.29961193 0.7532442 
0.360794 0.64026505 0.67815065 
0.040201835 0.6734235 0.73816305 
-0.040346794 0.9780334 0.20450658 
-0.26580134 -0.0053458186 0.96401304 
-0.4821946 0.36568922 0.79609036 
-0.32818565 0.57974035 0.745785 
-0.74206936 0.348243 0.57276523 
-0.5800871 0.63241565 0.51337075 
-0.4887188 0.8255158 0.28227213 
-0.7791444 0.45380703 0.43242717 
-0.45213512 0.54558104 0.70563114 
-0.3642023 0.9243316 -0.11387703 
-0.20469129 0.94893706 -0.24004175 
0.07264247 0.9834935 -0.1657218 
-0.043410003 0.9722697 0.22979829 
-0.42368078 0.90120184 0.09126781 
-0.40970927 0.8762925 0.25347573 
0.67831707 0.40098187 0.61571056 
0.009125939 -0.026421688 0.99960923 
-0.9104487 -0.23549238 0.3400392 
-0.68415534 0.53472996 -0.4959792 
-0.032768708 -0.25182468 -0.967218 
0.1890157 0.2638191 -0.94587135 
-0.0191938 0.3192488 -0.9474766 
0.42927787 0.37180322 -0.8230935 
0.36545992 0.20342128 -0.9083275 
0.114464715 0.6448654 -0.75567615 
0.26974264 0.23563373 -0.9336571 
0.67069864 0.6308645 -0.3900941 
0.6101859 0.44203788 -0.65747684 
0.9992123 -0.039683703 0.00015908682 
0.8348553 0.550437 -0.005989762 
0.7678374 0.38583934 0.5114234 
0.57079417 0.7767471 0.2661917 
0.17512369 0.82560945 0.5363774 
0.27474567 0.57024103 0.7741705 
0.26471895 0.43883383 0.85869026 
0.37502146 0.5593574 0.73924166 
-0.14769508 0.9131423 0.37994397 
0.4974544 0.31426993 0.8085627 
-0.43689033 0.04293046 0.89848983 
-0.3640715 0.5919031 0.7190986 
-0.37352076 0.64884335 0.6629364 
-0.8386373 -0.13014683 0.52891326 
-0.7846948 -0.55342966 0.27923062 
-0.6892149 -0.6929445 0.21168587 
-0.5482436 -0.55616415 -0.62458825 
0.002877594 -0.50611496 -0.8624612 
0.80655557 -0.020478485 -0.5908036 
0.93632674 -0.3378983 0.09548289 
0.73355037 -0.5473287 0.40290835 
0.58615977 0.03155058 0.80958104 
0.9825222 -0.049740724 0.17937715 
0.82848394 -0.5374821 0.15724923 
0.5656478 0.30644646 0.76559335 
0.25754145 0.12804565 0.9577457 
-0.49444976 0.35586506 0.79301924 
-0.98186135 0.035636324 0.18622117 
-0.6301028 0.71664697 0.2989777 
-0.94395643 0.15654115 -0.29058754 
0.1496098 0.4856956 -0.86122984 
-0.7434802 -0.11560199 -0.6586907 
-0.7176568 -0.12449087 -0.6851794 
-0.7424132 -0.56296957 -0.36316374 
0.28201634 -0.9296295 -0.23718323 
0.8422423 -0.4350578 0.31835935 
0.09937762 -0.23570621 0.9667299 
-0.13004313 -0.71373475 0.688238 
0.16259168 -0.5499176 0.8192402 
0.08916224 -0.22191131 0.9709818 
-0.46072167 0.09762384 0.8821595 
-0.843534 0.35130158 0.40624827 
-0.76360935 0.6121839 0.20525989 
-0.67642856 0.52864057 -0.51281923 
0.33375368 0.6203821 -0.70974267 
0.15050952 0.98624474 0.06832552 
0.599835 0.78268015 0.16616201 
-0.10575715 0.701028 0.7052484 
-0.26513857 0.95042187 -0.1624805 
-0.9097564 0.40528277 0.08994039 
-0.50515926 0.84156775 -0.19125329 
0.56329226 0.53785485 -0.62722725 
0.79886806 0.54280347 -0.25918 
0.440242 -0.5751723 -0.6894663 
0.7723053 -0.2328167 -0.5910508 
0.53642726 -0.17268483 0.82609063 
0.12325288 -0.13391109 0.9832989 
0.34243867 0.096053354 0.93461734 
0.63355243 0.3957378 0.664833 
0.6988087 0.24720785 0.6712338 
0.550772 0.71825993 0.4251504 
0.47734225 0.75063694 0.4568247 
-0.09043924 0.88103914 0.46431768 
0.18205817 0.61099166 0.7704181 
-0.18801855 0.3237193 0.92728364 
0.29663792 0.63799816 0.7106084 
0.25089327 0.6085175 0.752834 
0.48874223 -0.04057599 0.87148416 
0.08344255 -0.19866434 0.9765091 
-0.35089475 -0.22001362 0.91020155 
-0.4136485 -0.61093694 0.67501926 
-0.7954482 -0.17814596 0.5792462 
-0.043967932 -0.8631392 0.50304824 
-0.72326714 -0.26557347 0.6374601 
-0.5831661 0.59908307 0.54865 
-0.5567814 0.8125397 -0.172551 
-0.90155625 0.43237942 -0.015633473 
-0.7670068 0.5486691 -0.33266044 
-0.2171446 0.8787691 -0.42498603 
-0.30821505 0.62583226 -0.7164758 
0.025247952 0.9672933 -0.25240073 
-0.61166704 0.59869224 -0.5171375 
-0.7531489 0.17635736 -0.63377047 
-0.35434538 0.89427465 -0.2733354 
-0.4613334 0.8296413 -0.31443128 
-0.3930862 0.8985054 -0.19537538 
-0.6626341 0.71968704 -0.2072843 
0.19350016 0.938139 0.28714603 
-0.3740662 0.8421682 0.38836506 
-0.29122627 0.7599822 0.5810459 
-0.8057097 0.5651042 -0.17745218 
-0.6851565 0.48479605 0.5436298 
-0.7885677 0.5119469 -0.34069252 
-0.8946604 -0.07106499 0.44105828 
-0.87356174 0.45725647 -0.1667533 
-0.39073965 0.7520615 -0.5307788 
0.21144873 0.63386583 -0.74397826 
-0.5762436 0.6724316 -0.4645203 
-0.36226827 0.6814345 -0.6359314 
-0.6314019 0.42859012 -0.6462525 
-0.29080296 0.37055725 -0.8821117 
0.667961 0.018748615 -0.7439601 
0.6776974 0.350223 -0.64658344 
0.44453046 -0.78865075 -0.42476195 
0.59716856 -0.80029124 -0.054070987 
0.58638376 -0.7517194 0.3017815 
0.20744954 0.32665125 0.9220975 
0.10554654 0.44186294 0.8908519 
-0.46036768 -0.81014025 0.3629523 
0.027651213 -0.18292741 0.9827375 
0.38925782 -0.64667165 0.6559682 
0.025996314 0.5664094 0.8237139 
0.026974212 0.3786367 0.92515224 
-0.7026427 0.19363567 0.6846886 
-0.80259424 0.3356636 0.4931254 
-0.3497136 0.749563 0.5620105 
-0.34933335 0.7421143 0.5720425 
-0.068505764 0.9036574 0.42274168 
-0.124523915 0.82280785 -0.5545099 
0.19627126 0.96147555 -0.19246389 
0.5545938 0.77822196 0.29461223 
0.61436003 0.32823223 0.7175134 
0.4510039 0.7843687 0.42586532 
0.57773584 0.7940714 0.18887061 
0.1433204 0.5145383 0.84540504 
0.09472186 0.35155037 0.93136466 
0.24539798 0.05433892 0.9678983 
-0.13075927 0.8398195 0.52688247 
0.8652844 0.39019328 0.31469393 
0.5070497 0.18433036 0.84197557 
0.267654 0.21535888 0.93913895 
-0.46994758 0.29907012 0.83048564 
-0.58232576 0.57406175 0.57563 
-0.56303984 0.6496425 0.51083344 
-0.14940514 0.952968 0.26368558 
-0.27561387 0.8810061 0.38453254 
-0.12360082 0.9185539 0.3754753 
0.17342098 0.9727029 -0.15418911 
0.26733658 0.6290932 0.72991294 
0.35750762 0.69038343 0.6289349 
-0.18490323 0.75859964 0.6247698 
0.32665628 0.8901729 -0.31762853 
-0.14467885 0.94290775 0.29998863 
-0.2204571 0.9511287 0.21622407 
-0.100673206 0.99322814 0.057989582 
-0.94740444 0.25933707 0.18753482 
-0.3257515 0.8863176 0.3291307 
0.4475111 0.80504584 0.38940376 
0.19176364 0.9559197 0.2223609 
0.09137793 0.9653801 -0.24431865 
0.8883631 0.43735808 0.139746 
0.68769646 -0.015265687 0.7258379 
0.98845726 -0.11217059 -0.1018341 
0.29582515 0.6206082 0.7261769 
0.041577782 0.034915607 0.9985251 
0.24418133 0.053310413 0.96826315 
-0.02268705 0.96800184 0.24991567 
0.037856836 -0.4715633 0.88101923 
-0.4718496 -0.40683612 0.7822036 
-0.6795538 0.537862 0.49890992 
-0.8335861 0.55224663 0.0125712585 
-0.7162414 0.6577085 -0.23327626 
-0.69833314 0.70321584 0.13348526 
-0.7417345 0.6640084 0.09446118 
-0.251427 0.82122236 0.51222885 
-0.34434313 0.93121797 0.11941962 
-0.18287262 0.982783 -0.026366435 
0.06641051 0.95955795 0.27356583 
0.21531737 0.9764193 -0.015616037 
-0.55140346 0.80067146 -0.23426385 
0.2956936 0.8275039 -0.47728673 
-0.25968713 0.49816072 -0.8272838 
-0.17160617 0.9793637 0.10676195 
0.17900707 0.8992372 0.39916036 
0.2515172 0.51789564 0.8176327 
0.12128926 0.81767595 0.5627568 
0.06038704 0.9460526 0.31833604 
0.80330753 0.5608298 0.20041686 
0.7043265 0.3218181 0.63273793 
0.5206113 0.016192194 0.8536404 
0.826212 -0.14883839 0.54334235 
-0.013379646 0.3318639 0.9432324 
0.38502944 0.63924927 0.66566724 
0.03547975 0.37046194 0.9281698 
0.26550722 -0.5353707 0.8018006 
0.2858395 0.5089244 0.81196785 
-0.45668855 0.36866093 0.80964476 
0.57746476 0.043378476 0.8152624 
0.4674077 0.384844 0.79588014 
-0.59560907 0.7923071 -0.1322855 
0.5148915 0.5342413 0.67042756 
0.14774692 0.55788517 0.816661 
-0.0055157696 0.77038676 0.63755304 
-0.38407788 0.33204177 0.86152923 
-0.34370914 -0.5615222 0.7526997 
-0.79000854 -0.6120415 0.03594061 
-0.8581765 -0.35922906 -0.36672544 
-0.5455 -0.7183311 0.43177578 
-0.081504665 -0.845097 0.5283637 
0.19650118 -0.9790787 -0.052841987 
-0.39467943 -0.88002115 0.26417974 
0.43730417 -0.89866173 -0.03423832 
0.40979722 -0.20294109 0.88931495 
-0.5984943 0.032696847 0.80045956 
-0.42191303 0.0075971135 0.9066045 
-0.3549419 -0.73811626 0.5737602 
0.3313935 -0.20179322 0.92166036 
0.65350854 0.025977952 0.7564733 
-0.113331616 0.6717333 0.73207265 
-0.4838372 0.039710592 0.8742566 
-0.36227757 0.8802173 0.30654937 
-0.6121635 0.6208392 0.48970884 
-0.4281861 0.7665173 0.47865236 
-0.037366893 0.8854242 -0.46327946 
-0.086259365 0.9318843 -0.35235083 
-0.28033462 0.74124855 -0.60988784 
-0.0122205485 0.50537676 -0.8628123 
0.0012453508 0.9909918 -0.1339172 
-0.122308485 0.83995503 -0.52869296 
-0.31760186 0.6040078 -0.7309608 
-0.5387709 0.6647859 -0.51748 
0.1783382 0.15036364 -0.97241265 
0.1579412 -0.20503965 -0.9659262 
0.9801924 0.10993817 0.16473137 
0.66266763 -0.74660087 0.058812033 
0.84060264 -0.07212205 0.5368294 
0.531526 0.47022024 0.70453745 
0.72073084 0.48527685 0.49502873 
0.21520396 0.09638327 0.97180116 
-0.52398425 -0.095792934 0.846324 
-0.14403568 0.15215248 0.97780544 
-0.28436413 0.07944709 0.95541894 
-0.2294825 0.714399 0.6610386 
-0.8107917 0.52186346 -0.26509553 
-0.5473177 0.68264675 0.48418686 
-0.7639889 -0.12853938 0.6322964 
-0.65724677 0.09637527 0.74748814 
-0.8264195 0.5623566 0.028036699 
-0.5442138 0.37048173 0.75271153 
-0.07844059 0.13974452 0.9870758 
-0.12155784 0.7693617 0.6271415 
-0.8604804 0.5026363 0.08324859 
-0.0473208 0.6466301 0.7613346 
-0.047334284 0.3288353 0.9432004 
-0.4744205 -0.01492867 0.8801718 
-0.43614155 0.3741188 0.8184227 
-0.49437425 0.4467506 -0.7456595 
-0.7807199 -0.0168371 -0.6246543 
0.302408 0.4610445 -0.8342587 
-0.19759573 0.53121185 -0.82387495 
0.26247907 0.55270755 -0.79096085 
0.4982689 0.51863533 -0.69479895 
0.8436008 0.5367561 -0.015189746 
0.4187709 0.21025641 -0.8834156 
0.71071917 0.7031191 -0.022401592 