# OOMMF: rectangular mesh v1.0
# Segment count: 1
# Begin: Segment
# Begin: Header
# Desc: Time (s) :  2.829999999999997e-07
# Title: m
# meshtype: rectangular
# meshunit: m
# xbase: 2e-09
# ybase: 2e-09
# zbase: 5e-10
# xstepsize: 4e-09
# ystepsize: 4e-09
# zstepsize: 1e-09
# xmin: 0
# ymin: 0
# zmin: 0
# xmax: 1.024e-06
# ymax: 1.024e-06
# zmax: 1e-09
# xnodes: 256
# ynodes: 256
# znodes: 1
# ValueRangeMinMag: 1e-08
# ValueRangeMaxMag: 1
# valueunit: 
# valuemultiplier: 1
# End: Header
# Begin: Data Text
0.45104915 0.6984553 0.55562127 
-0.1793808 0.96635115 0.18435857 
-0.17764734 0.7294603 0.6605522 
0.80501795 0.56849986 -0.16957022 
0.9990056 -0.04451796 0.0024378404 
0.7295201 0.5827565 -0.3580439 
0.9715462 0.20244443 -0.122940265 
0.6058677 0.7850103 0.12916316 
0.41257536 0.8826514 0.22518498 
0.043968398 0.5792197 0.81398493 
0.8579369 0.20759371 0.4699459 
0.13688058 0.9905817 0.0034068222 
-0.4746975 0.83380353 -0.28184047 
-0.35667086 0.91924626 0.16665034 
-0.5195909 0.7455325 0.41738075 
-0.18366122 0.55601853 0.8106244 
-0.6018665 0.42651668 0.67515945 
-0.9802646 0.15687948 0.12029223 
-0.99221545 -0.035330962 -0.119416855 
-0.20335896 -0.34447214 -0.9165065 
0.17009266 0.9811946 -0.09124588 
0.19630072 0.9502872 0.24170293 
0.34240347 0.8706948 0.35305873 
0.5416612 0.66027254 0.52023405 
0.454981 0.82070684 -0.34559008 
0.106718995 -0.14777824 -0.98324597 
0.10136029 0.56404424 -0.8195 
0.6612339 0.46146402 0.5914565 
0.0644226 0.43941176 0.89597267 
-0.025201406 0.19230141 0.98101234 
-0.25950304 0.3080275 0.9153017 
-0.9113034 0.17941892 0.37058738 
-0.8952661 0.43522298 -0.09528671 
-0.7267209 -0.2218197 -0.6501329 
-0.8184221 0.17819524 -0.54628915 
-0.2510296 0.78086674 -0.57204133 
0.3316156 0.19450235 -0.9231468 
0.73249096 0.4187478 0.5367563 
0.4271012 0.12529776 0.8954804 
0.1690243 0.22442175 0.95972174 
0.030402811 -0.41575888 0.9089666 
-0.14643115 0.6151014 0.7747311 
-0.8977519 0.357388 0.25751746 
-0.38328502 0.79342914 0.47282442 
-0.045972668 0.23745358 0.97031045 
-0.27414337 0.8106339 -0.51741487 
-0.60014915 0.7374202 -0.30989113 
-0.27478826 0.95474786 -0.11378959 
-0.16333462 0.82582617 0.53975266 
0.0120426165 0.32252377 0.9464848 
-0.32464206 0.29186994 0.8996775 
-0.7567961 0.6140441 -0.22407497 
-0.63426447 0.42590815 -0.64522165 
-0.56433004 -0.40111992 -0.72155005 
0.33470014 0.02817297 -0.94190353 
0.8961163 -0.4383714 -0.0693274 
0.46289182 0.20275553 -0.86291456 
0.4857683 -0.097312756 -0.8686538 
0.4120984 0.8454628 -0.33965823 
0.5105326 0.7858885 0.3489067 
0.19126241 0.948109 0.25398427 
0.87622285 0.25397986 0.40954587 
0.87408215 -0.24001569 0.42234203 
0.022994159 -0.053636413 0.9982958 
-0.13259034 0.41540232 0.8999226 
-0.3342581 -0.03362356 0.94188166 
-0.32867005 0.46745735 0.82064587 
-0.35161045 0.9099116 0.22007103 
-0.9241933 0.31953174 0.20920357 
-0.9366916 0.09202802 -0.33784592 
-0.8826849 0.105166055 -0.4580477 
0.24324724 0.31925207 -0.91591966 
0.13372216 0.03501136 -0.99040025 
-0.292999 -0.2632669 -0.9191529 
0.26686552 -0.21325524 -0.93984306 
0.6553542 0.1876635 -0.7316375 
0.9270911 0.24738066 -0.28161108 
0.94332063 0.29735473 0.14739859 
0.69824827 0.70957255 0.09463769 
0.65085083 0.71348286 -0.25949082 
0.6434526 0.7653019 0.016785678 
0.49717772 0.8346245 0.23709938 
0.23180851 0.94664264 0.223903 
-0.6482776 0.016031623 0.7612354 
-0.8047655 0.4398452 -0.3986085 
-0.833003 -0.29087114 -0.47063792 
-0.25806704 -0.12401447 -0.9581346 
0.23965761 0.656225 -0.715495 
-0.3983804 0.87547076 -0.27357632 
0.6503359 0.69299096 0.31117004 
-0.0622689 0.9933023 0.09733099 
0.6740062 0.73872566 0.00030712681 
0.067578845 0.9223204 0.38047108 
0.7465233 0.078209594 0.6607468 
0.32944685 0.56329644 0.7577348 
0.2342886 0.22487138 0.94580215 
-0.07723198 0.58522284 0.8071861 
-0.7295409 0.43358776 0.5289346 
-0.057200484 0.79557174 0.6031533 
0.005088278 -0.057075728 0.99835694 
-0.2270007 0.15720361 0.9611232 
-0.522958 -0.53997445 0.65950173 
-0.12724257 -0.43653724 0.8906428 
-0.77240324 -0.44545007 0.45273358 
-0.6763745 -0.73655766 0.00066324684 
-0.49572477 -0.3453276 0.79687256 
0.13038354 0.037409563 0.9907577 
0.88405335 -0.393519 -0.25217593 
0.46475077 0.112507276 0.8782648 
-0.3838696 -0.46880826 0.7955269 
-0.45371622 -0.23267162 0.86023587 
0.032400012 -0.15044478 0.98808736 
-0.7051263 0.16924447 0.68858796 
-0.24282624 0.4355257 0.8668061 
0.020911973 0.86369884 0.50357413 
-0.19644164 0.5617337 0.8036579 
0.685598 0.37597364 0.6233773 
0.17941073 0.73983616 -0.64842445 
0.18420333 0.94292176 0.27743062 
0.9563976 0.027893942 0.290733 
0.14903939 0.14994623 0.97739625 
-0.19022232 -0.16868635 0.9671404 
-0.16762397 -0.620976 0.76569647 
0.4578082 0.52204 0.7196429 
-0.20528676 -0.032579698 0.9781594 
0.3458931 0.070258275 0.93563974 
0.0334699 -0.24911058 0.9678965 
0.29262614 -0.83652514 0.46324483 
0.054385204 -0.04499756 0.99750566 
-0.0021027434 0.5567261 0.8306936 
0.22158776 0.8502148 0.47752884 
-0.09022973 0.82162255 0.5628456 
-0.15717755 0.6087513 0.7776356 
-0.5754571 0.6424123 0.5061181 
-0.32105562 0.6219692 0.7141972 
-0.06303988 0.9907234 0.12038787 
0.2795014 0.8909726 0.3578363 
-0.2846827 0.68091726 -0.67476475 
-0.046883192 0.78446174 -0.6184026 
-0.55115116 0.013871896 -0.8342902 
-0.3899271 0.85105443 0.35165796 
-0.29907313 0.8915507 0.34013605 
-0.3326815 0.6962562 0.6360427 
0.05939767 -0.89779794 0.43638375 
-0.026617644 0.8904713 0.4542603 
-0.6291321 0.104798436 0.7702014 
-0.63655496 0.42623934 0.6427424 
-0.22346596 0.9723201 -0.06823912 
0.0075440984 0.92815775 0.37211058 
-0.17874411 0.97648776 -0.12050886 
-0.018156331 0.7463654 0.6652886 
0.34986523 0.6857243 0.6382606 
-0.27108157 0.54160845 0.79572314 
-0.10069411 0.3162876 0.9433042 
-0.5514309 0.20904244 0.80760473 
-0.06509477 0.7861124 0.6146462 
-0.26610386 0.9212124 0.28382507 
0.43973693 0.8591478 0.2617185 
0.13567634 0.92060685 0.3661627 
0.7605794 -0.20508096 0.61600405 
0.5548621 0.17962545 0.8123194 
-0.015553968 -0.5209462 0.85344785 
-0.25827983 0.039874617 0.965247 
-0.31474128 -0.08845077 0.9450473 
-0.549109 0.1993962 0.81161606 
-0.56687194 -0.1017826 0.81749415 
-0.2410199 -0.9411738 0.23685743 
-0.9464533 0.28109935 0.15877461 
-0.9670049 -0.0023727366 -0.2547468 
-0.8447624 0.14646855 0.5147074 
-0.5561192 -0.68740916 0.4671189 
-0.88779163 -0.41357452 -0.20194589 
-0.71784693 0.17474402 -0.6739142 
0.062320236 0.28804734 -0.9555862 
0.19946806 0.7712775 -0.6044367 
0.78657454 0.6100095 -0.09585882 
0.4501307 0.44578367 0.7737308 
-0.1792652 0.8633254 0.47173434 
-0.27095217 0.73477113 0.6218491 
-0.12307739 0.8275121 0.54779166 
-0.38172603 -0.3634007 0.8498383 
0.9160934 -0.222141 0.3338058 
0.6289538 0.63687503 0.44587815 
0.013755791 0.72755843 0.68590784 
-0.112796985 0.83229285 0.542739 
0.4899145 0.26642025 0.83006275 
0.306663 0.90213764 0.30348888 
-0.62580645 0.50312376 0.5960141 
-0.46618882 -0.11168052 0.8776078 
0.26911744 0.8961829 0.3527494 
0.12563927 0.9527425 0.27658015 
0.61242986 0.7353296 0.29020682 
0.73542506 0.56518304 0.37378907 
0.24244097 0.67305464 0.6987273 
0.09447884 0.8931708 0.43968144 
0.117586546 0.78518337 -0.6079971 
0.32578096 0.58049333 0.7462536 
0.29658833 0.5300349 0.79441696 
-0.10084114 0.18861051 0.97686094 
-0.740451 0.6225697 0.25325754 
-0.712354 0.6885268 0.13595088 
-0.8088877 0.5510846 0.20495482 
0.020080348 0.9678881 -0.25057805 
-0.7483369 0.5080997 -0.42641142 
0.131803 0.92994887 -0.34325376 
-0.13593909 0.9897627 -0.04347913 
0.021216339 0.9701952 0.2413942 
0.13883942 0.9447355 0.2969822 
-0.49674463 0.8678054 -0.012589369 
-0.28739 0.73778594 -0.610802 
-0.32789955 0.9094533 0.2556886 
-0.20849401 0.9776936 0.025407711 
0.17684437 0.9385944 -0.29625452 
-0.011971978 0.9974277 0.07067325 
-0.5173696 0.54962015 0.6559317 
-0.53686786 0.84274304 0.039459296 
-0.44171384 0.8836787 0.15492271 
-0.9738395 -0.05219096 0.22116216 
-0.9784283 0.13537164 0.15605316 
-0.6646919 0.74710524 -0.004298477 
-0.86109364 -0.17542173 -0.47722635 
0.3401337 0.87206966 -0.35185748 
0.101369396 0.7279792 0.67806387 
0.55695367 0.718356 0.41685393 
0.586887 0.809638 0.0070599136 
0.7327805 0.63800573 0.23660403 
0.5334488 -0.49968424 0.6824573 
0.7091427 -0.033031467 0.7042908 
0.30021393 0.10264274 0.9483334 
0.045277137 0.51909834 0.85351455 
0.6929209 0.13415086 0.70842373 
-0.04715815 -0.44449705 0.8945382 
-0.077365175 0.10084837 0.9918893 
0.30324328 0.10294666 0.9473361 
0.23940146 0.6714403 0.7013237 
0.13435796 0.9376389 0.32059523 
-0.37124968 0.42571813 0.82518965 
-0.55109257 0.7990542 -0.24043573 
-0.17733115 0.90267885 0.3920773 
-0.02538064 0.9079659 0.41827488 
-0.7089942 0.43348935 0.55625015 
-0.5507748 0.7839063 0.28659752 
-0.32489076 0.8742827 0.36066014 
-0.65226966 0.5714309 0.49800712 
-0.6950442 -0.09666741 0.7124388 
-0.46862757 0.27219015 0.8404171 
-0.9019805 0.12065509 0.41457632 
-0.7103833 0.015175214 -0.7036514 
0.10903672 -0.435903 -0.8933642 
0.7601754 -0.4910539 -0.4254403 
0.23950298 0.113247685 -0.96426827 
0.75842404 0.14598502 -0.6352018 
0.864751 0.48212466 0.14057626 
0.65938175 0.21317041 0.72095364 
0.42245224 -0.29509252 0.8570033 
-0.22029226 -0.9084658 0.35519183 
0.07392029 0.99137217 0.10824511 
0.07374208 0.9724452 0.22116171 
0.18418388 0.7372612 0.6500172 
-0.031763528 0.9815662 0.18846443 
0.51154804 0.8584801 -0.03647615 
0.31891695 0.9100292 -0.26483768 
0.5103888 0.7834598 -0.3545336 
0.9302628 0.28045547 0.23655008 
0.8596964 0.29276073 0.41858503 
0.24033062 0.4100824 0.8798146 
-0.004521048 0.6483547 0.76132506 
-0.11519156 0.6606722 0.74178386 
0.063589774 0.53397006 0.8431088 
-0.70965976 0.31699434 0.62920403 
-0.65243274 0.69682735 0.29793146 
-0.54333174 0.6892157 0.47934577 
-0.3157756 0.5463468 0.7757519 
-0.66463023 0.36110517 0.65411747 
-0.968976 0.026584003 -0.24572118 
-0.66666824 0.5289095 -0.52517456 
0.22537933 0.86750865 -0.44343328 
0.3211871 0.8739738 0.36470354 
0.5848595 0.7702401 0.2543025 
0.18946894 0.85640687 0.48027995 
-0.06732295 0.97133225 0.22799438 
-0.545349 0.66647935 -0.5083304 
0.052989226 0.9802364 -0.19060118 
0.3226648 0.6486345 0.68931913 
-0.3754135 0.68061626 0.62914723 
0.63468266 0.5039191 0.58586985 
-0.62811387 0.11028044 0.77026707 
-0.93089056 0.36239132 -0.04599292 
-0.6911656 0.7226769 -0.005309197 
-0.6339332 0.30203053 -0.7119735 
0.0058609853 0.49872366 -0.86674124 
-0.7621634 0.495563 -0.4165627 
0.2773863 0.5815306 -0.7647739 
0.9907395 0.075657666 0.112743974 
0.5170567 -0.13931108 0.8445383 
0.48214644 0.7409985 0.4673928 
0.47467622 0.6121365 0.63243294 
-0.26318613 0.118194334 0.9574775 
-0.21378209 0.85784465 0.46733272 
0.089654215 0.9378514 0.33525655 
0.0081935525 0.69160366 0.72223085 
-0.4432269 0.8673684 -0.22632298 
0.0073839887 0.88941354 -0.45704377 
-0.42214498 0.82253015 0.38110057 
-0.3047793 0.94096076 0.14731768 
-0.49586225 0.6462599 0.5800593 
-0.73420864 0.46022037 0.4991342 
-0.6815402 -0.092957504 -0.72585255 
-0.9750372 0.08263695 -0.2060912 
-0.13522606 0.07858643 -0.9876933 
0.6152589 0.1372016 -0.7762939 
0.7279545 0.20552339 -0.65409666 
0.44636762 0.52561665 -0.7242121 
0.38873768 0.41247612 -0.8238607 
0.71997386 0.13590811 -0.68056357 
0.39457867 0.891596 0.2221809 
0.6595249 0.519382 0.5433868 
0.4822898 0.7829595 0.39290085 
0.32179838 0.9058828 0.27535838 
0.1497684 0.6979596 0.7003013 
0.6171728 -0.17629549 0.7668232 
0.38665748 -0.21298319 0.8972927 
-0.039373513 0.10164124 0.9940417 
-0.7733345 0.47877678 0.41560397 
-0.9175843 0.29595497 -0.26542392 
-0.6663114 0.5302052 -0.5243202 
-0.30123624 0.86878896 -0.3930172 
-0.27213737 0.79862034 -0.53679323 
-0.49319172 0.3384987 -0.8013618 
-0.1454558 0.5028044 -0.85207427 
0.8064452 0.3930793 -0.44174084 
-0.3100124 -0.11865149 -0.9432996 
0.91347486 -0.16668518 -0.37118697 
0.75627464 0.12653615 0.6419014 
0.3362898 0.63816047 0.6925753 
0.21063752 0.8567135 0.47082257 
0.48337927 0.64169985 0.59545434 
-0.16727589 0.9188812 -0.35731822 
-0.13040523 0.9882083 -0.080243506 
-0.25790107 0.9656406 0.032019146 
-0.48988685 0.77182376 0.40533823 
-0.53415054 0.66621643 -0.5204218 
-0.3449845 -0.08602232 -0.93465817 
0.40024197 0.22476494 -0.8884183 
0.7674288 0.6168253 0.17487046 
0.6969009 0.06006239 0.714648 
0.67870075 0.2708885 0.6826308 
0.31151637 0.91976607 0.23872145 
0.2860671 0.57253206 0.76835716 
0.57162696 0.17838393 0.8008881 
0.3445613 0.16561356 0.9240399 
0.46281695 -0.33233494 0.82179934 
-0.025051888 0.188835 0.9816892 
-0.37489465 -0.31598637 0.87155426 
-0.005765286 -0.24157265 0.9703657 
-0.17319115 -0.4941872 0.8519296 
-0.23877779 -0.3919738 0.8884491 
-0.56127834 -0.41458148 0.7163022 
-0.0961978 -0.7468148 0.6580378 
0.33461183 -0.8079337 0.48505476 
0.19535372 -0.74598485 0.63666606 
0.2341568 -0.5988036 0.7659014 
-0.19392174 -0.43368775 0.87994856 
0.7457379 -0.5373956 -0.39380324 
0.04389269 -0.73773086 0.67366666 
0.6568524 -0.6151734 0.43601215 
-0.40482485 -0.33806735 0.8496042 
-0.2794316 0.42946345 0.8587661 
-0.806169 0.12607467 0.5780975 
0.5264148 0.42454168 0.7366491 
-0.050241813 0.70448315 0.7079402 
-0.020288859 0.88242173 0.4700216 
-0.58021575 0.6364249 0.5082451 
0.24709363 0.8268584 0.50522286 
-0.3277616 0.42678016 0.8428708 
-0.004714885 0.55590105 0.83123523 
-0.4356408 0.1768187 0.8825828 
-0.02831559 0.430929 0.90194154 
0.2335719 -0.22854178 0.94509935 
0.019734195 -0.48356467 0.8750861 
0.062483817 0.35734868 0.9318786 
0.318562 -0.08259861 0.9442965 
-0.35771468 0.058018982 0.9320269 
0.09068393 -0.904369 0.41700506 
0.100672975 -0.58268917 0.80643564 
-0.26126367 0.5821008 0.7699999 
0.055911046 0.1804137 0.9820004 
-0.014391258 0.39261255 0.9195915 
-0.5515104 0.82474875 0.12500373 
-0.49953118 0.84968984 0.16880736 
0.0068926583 0.99962837 -0.026378326 
-0.2628553 0.81297415 0.5195962 
-0.18176235 0.5014478 0.84587985 
0.45146757 0.87837887 -0.15693185 
0.2808399 0.8385499 -0.46686524 
-0.10129231 0.94790256 -0.3020278 
0.5128339 0.72222203 0.46410862 
0.2840176 0.67863995 0.6773344 
-0.6416108 0.4087463 0.64904714 
-0.26733276 0.088020466 0.9595757 
-0.16910271 0.65375376 0.7375706 
-0.21189818 0.9545366 0.20966423 
-0.3894378 0.8435992 0.36970073 
-0.40155038 0.783126 0.47483796 
0.09861851 0.68215156 0.72453004 
-0.07466055 0.9948783 -0.068139516 
0.48797682 0.6572463 0.5743745 
0.67022496 0.37796435 0.6387029 
0.26093918 0.365557 0.8934646 
0.31665277 0.7675036 0.5573771 
-0.22554809 0.5122018 0.8287203 
-0.37559494 0.7183551 0.5855718 
0.28150862 0.8808898 0.3805078 
0.13752738 0.6912446 0.7094133 
-0.28118154 0.57993037 0.764603 
0.079497054 -0.14313996 0.9865045 
0.19474246 -0.4030614 0.8942131 
-0.23786566 -0.25937858 0.936025 
0.14490059 -0.3523258 0.9245921 
0.07470817 0.005096759 0.9971925 
-0.31606504 -0.38698688 0.8662241 
-0.5251399 -0.42912003 0.73490417 
-0.8369329 -0.047525004 0.54523814 
-0.9705051 0.24031228 0.019232893 
-0.8535524 0.40148383 0.33205283 
-0.8074433 0.30647296 0.5040929 
-0.2639416 0.028396718 0.9641206 
-0.83565307 0.47748575 -0.27146164 
-0.7794994 0.14135608 -0.6102453 
0.3685725 0.806736 -0.46187827 
0.6735591 0.68987215 0.26531982 
0.5017748 0.6724676 0.5440675 
0.051629744 -0.19964638 0.97850686 
-0.22881451 -0.39627764 0.88916135 
0.5336681 0.6536467 0.53660446 
0.46009335 0.74915916 0.47652364 
0.4133071 0.73811734 0.5332542 
0.9242 0.3815654 -0.0161993 
0.86299324 0.21752176 0.45599025 
0.52881545 0.33418053 0.78017795 
0.50934297 0.3403739 0.7903895 
0.23200099 -0.61165136 0.75634533 
-0.05555164 0.14864592 0.987329 
0.56987536 0.6344987 0.5221623 
0.23426121 0.64712805 0.72549784 
0.04262892 0.9938019 -0.10266705 
-0.17908268 0.80217326 0.56960297 
0.07164275 0.9475506 0.3114726 
0.37803435 0.9245365 0.048190616 
0.023189975 0.9920242 0.1238966 
0.5223912 0.68715996 0.50489473 
0.1785517 0.9684916 -0.17361857 
0.19573408 0.47326177 0.85890126 
-0.0031190454 0.63550043 0.77209437 
0.04896339 0.11203027 0.99249786 
-0.039309043 0.30472648 0.9516284 
-0.57552314 0.3212894 0.7520281 
-0.72203314 0.5623511 0.40302527 
-0.7406416 0.60764825 -0.28672922 
-0.64065236 0.6831289 0.35057038 
0.054415073 0.6397221 -0.76667774 
0.34129927 0.6964309 -0.63126767 
0.6010177 0.72971785 -0.32602078 
-0.09977671 0.9510651 -0.29243767 
-0.22273546 0.95429707 -0.19926378 
-0.7400043 0.6695389 0.06411932 
-0.49318707 0.85769564 0.14534323 
0.05459671 0.9828086 -0.1763708 
-0.04227602 0.9971979 -0.061718468 
-0.44944412 0.6200293 0.64308923 
-0.44653413 0.6271312 0.6382114 
-0.6870909 0.04383144 0.7252483 
-0.59416085 0.73185456 0.3337093 
-0.83228135 0.5321327 -0.15537928 
-0.6925538 0.64371365 -0.32557955 
-0.74964917 0.640267 0.1675838 
-0.32517758 0.9443528 -0.049571104 
0.58855766 0.74412256 -0.31604052 
0.22245553 0.82005936 0.52727246 
0.4321307 0.780806 0.45122644 
0.5188454 0.67210644 0.52827305 
0.5477499 0.5799617 0.6030047 
0.5475307 -0.4315239 0.71693605 
-0.09595484 -0.25903875 0.96108884 
0.22000133 -0.3456897 0.9121941 
0.5766128 -0.33520582 0.7450871 
0.5990923 -0.30234557 0.7414011 
0.8780945 -0.19389594 0.4374408 
0.8849526 -0.050721142 0.46291062 
0.13399097 -0.17049201 0.9762064 
0.05774192 0.74825156 0.66089755 
0.22948267 0.89653057 0.37890735 
0.36033148 0.5199045 0.7745066 
-0.398808 0.29186773 0.8693477 
-0.30453208 0.31957412 0.89729184 
-0.025650878 0.65255624 0.75730604 
-0.6515861 0.5006313 0.5699157 
-0.6892728 -0.094017774 0.71837574 
-0.65243167 0.2693672 0.70836025 
-0.9525384 0.05613765 0.29919752 
-0.9792786 -0.17359036 -0.10430592 
-0.9673753 -0.22107673 0.12373508 
-0.78329146 -0.34412023 -0.5177216 
-0.602285 -0.0896034 -0.7932364 
-0.29991046 -0.768308 -0.5654702 
0.66848516 -0.16257776 -0.72573835 
0.385642 -0.004746299 -0.9226363 
0.68299335 -0.70168203 -0.20288533 
0.64572656 -0.63497484 0.42408034 
0.49200842 -0.2619196 0.83025664 
-0.1137404 0.46623823 0.8773171 
-0.3207588 -0.84095097 0.43579274 
0.22396009 0.9375629 0.2661164 
-0.19938685 0.7482188 0.6327824 
0.051035102 0.26695257 0.9623574 
0.1416244 0.9898402 -0.0126099065 
0.4446818 0.8682892 0.21984552 
0.34397078 0.8217792 0.4542719 
0.65995026 0.54945797 0.51240784 
0.68030757 0.72491133 0.10809842 
0.42513633 0.70597136 0.5664482 
0.1936436 0.9487013 0.24993616 
-0.4951254 0.1117747 0.86160165 
-0.568669 0.21995424 0.79261327 
-0.40148607 0.1355087 0.905785 
-0.74651426 0.41710588 0.5184006 
-0.49512872 0.59018385 0.6375975 
-0.57239217 0.30400917 0.7615417 
-0.37659964 0.6722332 0.6373972 
-0.763289 0.15004532 0.628392 
-0.9698894 0.18297133 -0.16073635 
-0.33843455 0.939237 -0.057411425 
0.028352031 0.8890867 0.45686007 
-0.06712845 0.7117971 0.69917005 
-0.17029293 0.7604708 0.62664545 
-0.054274302 0.50730884 0.86005366 
0.13116837 0.93884766 0.3183711 
-0.33314273 0.8483236 0.4115375 
0.42919028 0.7954577 -0.42783478 
-0.097247794 0.99417394 -0.0464878 
-0.27846488 0.85777926 0.43205586 
-0.3244856 0.9285124 -0.18048227 
-0.68477786 0.6983989 0.20813079 
-0.89973414 0.10672565 0.4231882 
-0.8114008 0.24857497 0.52899843 
-0.9368276 -0.039033808 -0.3476068 
-0.39892662 0.824294 -0.4017427 
-0.18099226 0.8187158 -0.54492784 
-0.13197267 0.9408455 -0.31207874 
0.59589314 0.76291716 0.25073656 
0.47066823 0.5011129 0.7261937 
0.21594283 0.3526716 0.91048974 
0.09833128 0.6284713 0.7715925 
-0.6214885 0.0559658 0.7814218 
-0.8415634 0.42871168 0.328599 
-0.022104962 0.99825805 -0.05470249 
-0.4979539 0.6635623 -0.5583253 
-0.69907004 0.41620058 -0.581445 
-0.0074877227 0.9584119 0.2852905 
0.27699345 0.74195 0.6105612 
-0.47230026 0.5332042 0.7018731 
-0.6350455 0.601485 0.48469892 
-0.79192543 0.5377474 0.2892786 
-0.9794725 -0.18070231 0.08933247 
-0.568443 0.35279632 -0.74324113 
-0.48824018 0.10256303 -0.8666616 
0.018758997 0.69576925 -0.7180204 
0.5671351 0.7053826 -0.42519784 
0.32304007 0.7751264 -0.54297733 
0.70967054 0.52259135 -0.47251043 
0.5423818 0.33093044 -0.77220917 
0.9126596 0.3641308 0.18563728 
0.8659121 0.34838066 0.35892513 
0.70703006 0.09477844 0.7008036 
0.75643975 -0.11701364 0.64351135 
0.3496446 0.4235954 0.8356528 
-0.14772491 0.7124154 0.6860333 
-0.4207504 0.5564938 0.71643823 
-0.0442903 0.27402332 0.96070266 
0.039116 -0.19956689 0.97910327 
-0.8486278 0.5245344 -0.068517886 
-0.5166787 0.84966147 0.105444334 
-0.57666546 0.7752262 -0.2578399 
-0.39394438 0.84522736 -0.36110756 
-0.21297763 0.22145255 -0.9516298 
0.34285972 0.8541819 -0.39092264 
0.46370587 0.75365543 -0.46581146 
-0.16152759 0.20436957 -0.96547496 
-0.13955642 -0.49247172 -0.85906667 
0.81528366 -0.17215306 -0.5528798 
0.8079594 -0.39961207 0.43302646 
0.9842226 -0.1637183 0.067099065 
0.5936968 -0.26953095 0.7582066 
0.7601762 0.30900997 0.57152873 
0.4801778 0.7709106 0.41848066 
0.40764314 0.8489725 0.33626315 
-0.24294133 0.9700276 -0.005112304 
-0.11116385 0.96743757 -0.22739208 
0.017087651 0.94130594 -0.33712184 
0.3556182 0.5764834 -0.7356647 
0.74908555 0.64340216 0.15781176 
0.50672966 0.25885186 0.82232654 
0.029586619 0.09546402 0.9949931 
0.034800004 0.13442688 0.9903123 
-0.39545685 0.23080422 0.8890126 
-0.19126952 0.38906443 0.90113527 
0.32412648 -0.27997234 0.90363574 
0.25166625 -0.7917652 0.5565716 
0.80416983 -0.21962088 0.55233824 
0.39701968 -0.32901698 0.85681 
0.441562 -0.6048781 0.6626805 
0.18488865 -0.71647537 0.67266583 
-0.3877548 -0.73091745 0.5616101 
-0.8254712 -0.5026776 -0.25673452 
-0.47306594 -0.78692067 0.3961877 
-0.048380475 -0.92175967 -0.38473177 
0.8356315 -0.3030433 0.4581317 
0.43980426 0.08361811 0.8941926 
0.66531897 -0.7199081 0.19769438 
0.918919 -0.3445704 -0.19198701 
0.56055367 -0.7107394 0.42500493 
0.5768653 -0.777481 0.2504991 
0.20431507 -0.53306466 0.82103443 
-0.30767176 -0.5047808 0.8065571 
0.07561452 0.17809276 0.98110425 
0.23397304 0.15592259 0.9596587 
-0.25916454 0.25474307 0.9316328 
0.36641276 0.90597844 0.21200196 
-0.10648023 0.6094413 0.7856484 
0.3596719 0.90529674 0.22599593 
0.52284086 0.24542949 0.8163344 
-0.3476508 -0.01163165 0.937552 
-0.8694471 0.45431817 0.19405334 
0.059825882 0.6576676 0.75092906 
-0.0058260174 0.6253604 0.7803144 
-0.2949848 -0.411161 0.86251414 
-0.48445973 0.1840506 0.8552335 
-0.25940487 0.022678006 0.9655024 
-0.477657 -0.71175766 0.51501936 
0.045736134 -0.90972424 0.4126863 
0.3036642 -0.85990006 0.41031677 
0.061574105 -0.62996596 0.774178 
0.20625278 0.087336645 0.9745933 
-0.054107163 0.19191946 0.97991806 
0.12567845 0.60796887 0.78395087 
-0.2742371 0.30758616 0.91114473 
-0.524283 0.35647506 0.77333874 
0.06428649 0.5958786 0.80049735 
-0.6833186 0.64967054 0.3331725 
0.18616259 0.97554266 -0.116876 
0.55066615 0.59105706 -0.5894221 
0.47310498 0.80440974 0.35930037 
0.8601449 0.2906772 0.41911522 
0.47761947 -0.28665316 0.83048767 
0.13636595 -0.61316574 0.7780952 
-0.67646104 0.11993846 0.7266466 
-0.0766921 0.44769678 0.89089054 
-0.46734014 0.55648506 0.68696266 
-0.3421499 0.12034393 0.9319072 
-0.1607453 -0.13152562 0.9781933 
-0.023740878 -0.21396652 0.9765525 
0.6214673 -0.09042885 0.77820385 
0.5219672 0.34994975 0.7778724 
0.13325407 0.50628984 0.8520059 
-0.020571914 0.1471176 0.9889051 
-0.40286767 0.59697783 0.69376874 
-0.6739741 0.5111819 0.5333405 
-0.27984762 0.65182793 0.7048445 
0.14867613 0.3580417 0.9217926 
0.20014003 0.09827903 0.97482574 
-0.46724635 0.74815446 0.4711113 
0.31406984 0.33208713 0.88942593 
-0.104260296 -0.40628827 0.9077773 
0.38436842 -0.663114 0.64229345 
0.36276758 -0.074137636 0.92892593 
-0.40467066 -0.036780693 0.9137225 
-0.28994465 -0.49613276 0.81840366 
-0.8182438 -0.4315747 0.3797635 
-0.89221764 -0.4415581 0.09473198 
-0.9129339 0.3856343 -0.13355893 
-0.4582002 -0.0885716 0.88442516 
-0.77937436 0.36400175 0.50997883 
-0.9224357 -0.038856056 0.384191 
-0.8828781 -0.11265467 -0.4558895 
-0.8049 -0.10724437 -0.58363926 
0.5986484 -0.08831317 -0.79612875 
0.955348 0.16457316 -0.24540962 
0.47468626 0.42359993 0.7715154 
-0.2473587 0.03541029 0.96827674 
-0.41129532 0.3057398 0.85869634 
-0.0034453063 0.309157 0.9510048 
-0.10718597 0.42471114 0.8989615 
0.07588392 0.6093046 0.7892969 
0.39313605 0.26156667 0.88149136 
0.42691824 0.5890108 0.6861539 
0.25421044 0.89789355 0.35939422 
0.881091 0.44391185 0.16315949 
0.55786157 0.18413912 0.80924857 
0.10861601 0.40039748 0.90988153 
0.034616973 0.75860316 0.6506328 
0.09539966 0.44707555 0.8893944 
0.14832854 0.9049757 0.39877045 
0.6095883 0.6789948 0.4091068 
0.6117646 0.6696855 0.421029 
0.6660689 0.7267997 0.16767319 
0.16735032 0.80669755 0.56677413 
-0.048709385 0.63540775 0.770639 
0.0153421825 0.88131875 0.47227332 
0.22733867 0.9726964 -0.046680022 
-0.23572876 0.49281508 0.8375949 
0.10037748 0.01768948 0.99479216 
0.4550642 -0.10875038 0.883793 
0.16285172 0.02593557 0.9863096 
-0.15645799 0.70762753 0.68904585 
-0.23395422 0.8350345 0.49797875 
0.06451696 0.960454 -0.27086133 
0.08278202 0.9687116 -0.23397666 
0.13413164 0.8858368 -0.4441869 
-0.070957676 0.922846 -0.37857676 
-0.2315204 0.62645656 0.74427855 
-0.48747715 0.24815418 0.8371295 
-0.56767106 0.8166381 0.1041715 
-0.06355886 0.8384101 0.5413215 
-0.040225606 0.86486894 0.5003835 
0.22283135 0.6823085 0.69627684 
-0.41200677 0.74805486 0.52025425 
-0.5572582 0.795581 0.2377276 
-0.6070105 0.7818348 0.14238179 
0.06022966 0.99715185 -0.045394223 
-0.5900656 0.805601 -0.053193916 
-0.1899912 0.7385827 -0.6468377 
-0.8608865 0.4359075 0.26241034 
-0.6102379 0.7400611 0.28270024 
0.4137446 0.91007304 -0.024136031 
0.05467271 0.98541564 -0.1611428 
0.1932357 0.97310907 0.12537473 
0.30047178 0.5975267 0.7434235 
-0.69632804 0.20450446 0.6879718 
-0.11547899 -0.65236884 0.7490524 
-0.08541362 -0.84630805 0.52580154 
0.23415829 -0.971505 0.036716178 
0.3453335 -0.8815054 -0.3220139 
0.62648636 -0.5659904 0.53588223 
0.60421574 -0.7607509 0.23702627 
0.8138513 -0.5536287 0.17646928 
0.5657152 -0.23916517 0.7891555 
-0.12989393 0.43983087 0.88863736 
-0.055402663 0.61737746 0.7847138 
0.3641513 0.23237976 0.90188336 
-0.07176354 0.016365936 0.99728745 
-0.29256755 0.15219115 0.9440562 
-0.70312214 0.47911245 0.5254241 
-0.1118753 0.80359143 0.58457243 
0.24741445 0.32648996 0.9122448 
-0.54616183 -0.032837354 0.83703583 
-0.62352663 -0.020631658 0.78152984 
-0.9220004 0.38419992 0.048019424 
-0.9661693 0.1754727 0.1890143 
-0.39683497 -0.23484422 -0.8873389 
-0.81427366 -0.085026555 -0.5742203 
0.2761672 -0.50230587 -0.81940264 
0.7958021 -0.16295883 -0.5832182 
0.9006138 -0.42786857 0.076311335 
0.5388287 -0.8059244 0.24525397 
0.10272293 -0.71551514 0.69100374 
0.3724368 -0.09430549 0.92325366 
-0.18091902 -0.30702537 0.9343467 
0.39184552 -0.47604328 0.7872991 
0.66197073 0.26016986 0.70292705 
-0.11346856 0.6193639 0.7768612 
0.088794105 0.7332937 0.6740891 
0.560193 0.7598572 0.32984987 
-0.4161457 0.7050868 -0.5741736 
0.13807625 0.98943174 -0.04427087 
0.09812022 0.6476932 0.7555567 
0.6121556 0.6278712 0.48066956 
0.5209889 0.065306135 0.8510616 
0.4522227 0.19727822 0.8698137 
-0.6423354 0.1949155 0.74122417 
-0.87569785 0.037012856 0.48143893 
-0.58977646 -0.124632716 0.7978912 
-0.7068873 0.29891592 0.6410614 
-0.25856078 0.7053982 0.6599695 
-0.09221552 0.34972608 0.93230253 
-0.068770066 0.007047077 0.99760765 
-0.08598648 0.33942655 0.93669415 
0.09106458 0.37419307 0.9228688 
-0.07239974 0.54286605 0.83669287 
-0.2040255 0.28603226 0.93624747 
-0.65528756 -0.18659467 0.73197037 
-0.630419 0.21497114 0.74589497 
-0.35537678 -0.05909042 0.9328535 
-0.81322575 0.3705601 0.4487195 
-0.7453327 0.660236 -0.092561446 
-0.7357307 0.65716696 0.16380492 
-0.6328795 0.6962189 0.33873716 
-0.47213584 0.62085754 0.62579846 
-0.3150955 0.6440618 0.69706476 
0.11778354 0.79835826 0.5905517 
-0.48613724 0.48471665 0.7271316 
-0.6569307 -0.18954246 0.72973675 
-0.52168554 0.5118253 -0.6825534 
-0.65907747 0.71645004 -0.22872749 
-0.1785402 0.75739455 -0.62807405 
-0.30626094 0.846007 0.4364361 
-0.3127636 0.75605756 0.5749401 
0.23553044 0.26265174 0.93570274 
-0.3456341 0.006917106 0.9383439 
0.062062714 0.62474364 0.77835965 
-0.84247315 0.33403063 0.42268497 
-0.7483266 0.50911874 0.42521226 
-0.45161548 0.8671001 -0.21019287 
-0.0017501368 0.93307245 -0.35968447 
-0.1077858 0.9231465 -0.36902952 
0.16066372 0.864463 0.47633073 
-0.07746803 0.89739656 0.43437102 
-0.87190235 0.38138542 0.3071342 
-0.98900104 0.06674694 0.13199158 
-0.8834006 0.2676147 -0.3846894 
-0.54593587 0.31945154 -0.77453524 
-0.3600724 0.37651122 -0.8535732 
-0.60869586 0.75414026 -0.24649914 
-0.108039685 0.6453465 -0.75621116 
-0.096075326 0.8641244 -0.494023 
-0.092342235 0.6299503 -0.77112615 
0.12155596 0.49380776 -0.8610332 
0.5579037 0.7479674 -0.35956687 
0.76627165 0.5795022 -0.2774977 
0.90710443 0.4110733 -0.09044625 
0.7589734 -0.015694361 0.65093243 
0.53951013 0.2553049 0.80233926 
0.10508589 0.26653418 0.9580796 
-0.030211769 0.1688449 0.9851795 
-0.40997425 0.48405632 0.7730529 
-0.5971205 -0.26241636 0.75801367 
0.2312036 -0.27466255 0.9333303 
-0.66732854 0.70161337 0.24982266 
-0.282742 0.74476993 0.6044623 
-0.65097344 0.7318587 -0.20153539 
-0.10987112 0.98682284 -0.118781514 
-0.081035525 0.32468665 -0.94234383 
-0.31833175 0.7172342 -0.61987096 
-0.08617148 0.37053323 -0.9248133 
-0.18812716 0.55350626 -0.8113193 
0.16951416 0.34410307 -0.9235031 
0.4020647 0.64600813 -0.64885867 
0.8525012 -0.22133705 -0.4735521 
0.92221 0.13503271 0.36234635 
0.7436662 0.30725628 0.5937629 
0.6085698 -0.0043220306 0.7934886 
0.6597053 0.3762107 0.6505802 
0.36869866 0.75963616 0.53573704 
0.48028407 0.855869 0.191874 
0.18765807 0.8982477 0.3974109 
-0.06362114 0.6685768 0.7409166 
0.47645473 0.5167547 0.7113055 
0.4805755 0.38983148 0.7855436 
0.13898273 -0.10253719 0.98497206 
-0.46719268 0.05807633 0.88224614 
0.4326903 -0.1497141 0.8890247 
-0.6584543 -0.14451325 0.7386163 
-0.44939148 0.6012891 0.6606805 
-0.40615556 -0.46302426 0.7878111 
0.08458198 -0.84675324 0.5252189 
0.23242243 -0.6424848 0.7302008 
0.06184444 -0.79710835 0.60066104 
-0.6071541 -0.7791033 0.15608372 
-0.32339296 -0.9124505 0.2507012 
-0.25417346 -0.9671567 0.0019436604 