# OOMMF: rectangular mesh v1.0
# Segment count: 1
# Begin: Segment
# Begin: Header
# Desc: Time (s) :  2.8899999999999974e-07
# Title: m
# meshtype: rectangular
# meshunit: m
# xbase: 2e-09
# ybase: 2e-09
# zbase: 5e-10
# xstepsize: 4e-09
# ystepsize: 4e-09
# zstepsize: 1e-09
# xmin: 0
# ymin: 0
# zmin: 0
# xmax: 1.024e-06
# ymax: 1.024e-06
# zmax: 1e-09
# xnodes: 256
# ynodes: 256
# znodes: 1
# ValueRangeMinMag: 1e-08
# ValueRangeMaxMag: 1
# valueunit: 
# valuemultiplier: 1
# End: Header
# Begin: Data Text
0.9262941 0.08470042 0.36715832 
0.3941652 -0.74517053 0.53791696 
0.41933194 -0.6312061 0.65248734 
-0.0019141186 -0.38575652 0.9225986 
-0.25849453 0.6530267 0.7118544 
-0.4469508 0.68584424 0.5743281 
0.48228356 0.754719 -0.444749 
0.15701143 0.9616243 -0.22500247 
0.30781803 -0.1006467 -0.94610703 
0.6531936 0.7061461 -0.27330554 
0.9214219 0.3845265 0.05586612 
0.87436914 0.17399712 0.45299414 
0.47849828 0.79289776 0.37729633 
0.764611 0.6175128 -0.1845211 
0.3850374 0.875238 0.29275358 
0.33624828 0.6116164 0.7161442 
0.7062469 0.3127421 0.6351439 
0.9803959 -0.06557924 -0.18580452 
0.712458 -0.46923783 0.5217466 
0.6190948 -0.13216639 0.7741149 
-0.03457406 0.08472014 0.9958048 
-0.32443237 -0.47273442 0.8193082 
-0.8722424 0.41428375 0.25992727 
-0.93784064 -0.3191878 -0.13628764 
-0.15092257 -0.46058142 -0.8746927 
0.1748588 -0.91320604 0.36807504 
0.8078093 -0.4467683 -0.38450277 
0.83854544 -0.5417776 0.057607096 
0.5765976 -0.591419 -0.56370115 
0.870985 0.09721869 0.4815949 
0.7581432 -0.46982646 0.45219684 
0.8238395 0.18687578 0.53513175 
0.042378783 -0.8605358 0.5076242 
-0.5322426 -0.73738784 0.41590512 
-0.87787884 0.35554376 0.3208075 
-0.625992 0.55267304 0.55016965 
-0.23470028 0.13372552 0.9628257 
-0.32261828 0.43418503 0.8410713 
-0.66372895 0.23134673 0.7112965 
-0.42535788 0.50993884 0.74768513 
-0.9140856 -0.35487956 -0.19623458 
-0.99722373 -0.07312487 -0.014058922 
-0.81513596 0.3543899 0.45821533 
-0.38007042 -0.6345106 0.67301035 
-0.44584402 -0.89379364 0.048540935 
0.008798486 -0.8470485 -0.53144276 
-0.2710956 -0.38758266 -0.8810715 
0.10338406 -0.70197654 -0.7046564 
0.80384225 -0.30517173 -0.5105957 
0.5664899 -0.8234931 0.03079524 
0.6748349 -0.6826551 -0.28032106 
0.94139284 -0.31929615 0.10876324 
0.048872013 -0.7552065 0.65366256 
-0.8949293 0.2989412 0.3312641 
-0.4389915 0.8047497 -0.39958024 
-0.2371982 -0.033568136 -0.97088116 
0.2642705 0.19415766 -0.9447031 
0.5029279 0.57793415 -0.6426941 
-0.049042996 0.8024694 -0.5946746 
0.24455489 0.8034707 -0.5427962 
0.6319891 0.77280235 -0.058020025 
0.6230674 0.76754767 0.15052421 
0.53663355 0.69485104 -0.47875512 
0.8297458 0.2927286 0.47521773 
0.092739455 0.24384715 0.96536934 
-0.17212991 -0.29086885 0.94115186 
-0.28167143 -0.7052234 0.6506315 
-0.35440308 -0.40306434 0.84376395 
-0.7889538 0.6128533 0.044303384 
-0.68387806 0.39107007 0.61593425 
0.2510266 0.80449444 0.5383071 
0.07850296 0.98354197 0.16273467 
0.5324793 0.8234584 -0.1959139 
0.19236894 0.84612036 -0.4970659 
-0.1819807 0.66740274 -0.7221196 
0.19825335 0.54430676 0.81512326 
0.75479096 0.23385033 0.6128659 
0.28862074 -0.11066463 0.95102656 
0.8695476 0.14618745 0.4717163 
0.5961778 0.7170524 0.36112043 
-0.11381669 0.75819135 0.64202154 
0.19348939 0.7864077 0.5866216 
-0.24151632 0.6394781 0.72988886 
-0.74064547 0.62131023 0.25576928 
-0.6513731 0.4264469 -0.6275796 
-0.49615446 0.85493726 0.15137072 
-0.103580296 0.6537787 -0.749563 
-0.8401004 0.47419757 -0.2633784 
-0.9933657 -0.07031134 0.091000244 
-0.76311475 0.31243032 0.5657237 
-0.83809525 0.2684387 -0.47490737 
-0.89107555 -0.37375304 0.25747445 
-0.89315397 0.23639299 -0.38261524 
-0.9218693 -0.37633538 0.09235187 
0.25625685 -0.3445138 -0.90312946 
-0.19483516 -0.13522848 -0.9714692 
0.23443459 0.08302949 -0.9685797 
0.9371324 -0.34746325 -0.03243697 
0.9004903 -0.0045044175 -0.434853 
0.8940587 0.03612916 -0.44649068 
0.8190118 0.5483983 0.16875777 
0.43688464 -0.78463733 -0.43985915 
0.67072964 -0.30825588 -0.6746111 
0.6445594 0.079135954 -0.76044774 
0.80193377 0.593732 0.06621735 
-0.15205415 0.9193391 -0.36289823 
0.92572224 -0.28125566 -0.2528512 
0.85724914 0.51283324 0.04610809 
0.2957337 0.46973658 0.8317988 
-0.81570655 0.54484147 0.19434685 
-0.8399222 0.53067654 0.11363591 
-0.7185459 0.45089397 0.52951527 
-0.07540885 0.18588942 0.97967273 
-0.294977 0.94659084 0.13020885 
-0.097734265 0.82097685 0.5625345 
-0.62730575 0.66935104 0.39806637 
0.3574355 -0.33945626 0.8700628 
0.3840105 0.37925154 0.8418458 
-0.539455 -0.26898256 0.79789525 
-0.8943557 -0.3813577 0.23386784 
-0.91761434 0.011696254 -0.39729986 
0.098747194 -0.37792623 -0.9205546 
0.39762482 -0.26094112 -0.8796614 
0.8445589 -0.005202406 0.5354375 
-0.15737039 0.9459115 0.28370053 
0.106402315 0.94337255 -0.3142083 
0.86920935 0.16649656 0.4655686 
0.8294957 0.3610867 0.4260908 
0.50516516 0.47532496 0.72032934 
0.6146671 0.28970766 0.73365784 
-0.29388428 0.2917403 0.9102305 
-0.5954419 0.71742845 0.3615874 
0.26513842 0.60363925 -0.7518785 
-0.108906284 0.3395089 -0.9342769 
-0.2946662 -0.14284551 -0.94486356 
0.19451053 0.3766687 -0.90569663 
-0.6102518 0.16822515 -0.7741403 
0.35195503 -0.066900454 -0.933623 
-0.14555177 -0.1841272 -0.97206575 
0.6658687 0.19411416 -0.7203739 
0.901253 0.13232748 -0.41259238 
0.88854504 0.0678994 0.45373717 
0.95326334 -0.051838167 0.29766068 
0.16464949 -0.27922526 0.9460041 
0.04338514 -0.063135296 0.99706155 
-0.31728178 -0.27632865 0.90717965 
-0.012602525 0.4061518 0.9137187 
-0.5562681 0.66409 0.49955028 
-0.3355653 0.7428784 0.57924753 
-0.97414035 -0.22566652 -0.0111913765 
-0.51653737 0.51068944 -0.68730307 
-0.06471544 0.7176873 -0.6933519 
-0.21993054 0.4678337 -0.85601526 
-0.33132964 0.7280178 -0.6001757 
-0.08823442 -0.25246066 -0.9635758 
0.47032484 0.36852145 0.8018645 
0.45388117 0.85271513 -0.2585902 
0.024702081 0.8920083 0.45134374 
0.033235382 0.91414034 0.40403348 
-0.5948586 0.70481575 -0.38649467 
-0.69911337 0.68475056 0.20580861 
-0.9273017 0.10491472 0.35931104 
-0.48942164 0.11216767 0.86480343 
-0.9358929 -0.35054392 -0.03498073 
-0.9119287 0.23638795 0.3354205 
-0.5243126 0.2201432 0.8225773 
-0.96458435 0.10048534 0.243885 
-0.9337447 -0.33505583 0.12593041 
-0.9920739 -0.07339614 -0.1019924 
-0.71562964 -0.5743364 0.39750728 
-0.6903265 -0.65078115 0.31612226 
-0.5935565 -0.53270817 0.60325176 
-0.73441136 0.43089423 0.52437603 
-0.84780025 0.49616542 0.18722856 
-0.70131385 0.646654 -0.29999584 
-0.32151794 0.6946006 -0.6435498 
-0.13135482 0.7109553 -0.6908607 
0.77387965 0.3888654 -0.499894 
0.3753691 0.6134594 -0.6948135 
0.8022808 0.5357518 -0.2632786 
0.9559175 -0.047184177 0.28981957 
0.8879696 0.44641787 -0.11054971 
0.7736468 0.5950738 0.21761882 
0.35496968 0.50007457 0.7898874 
-0.6586594 0.7468726 0.09137314 
-0.44774887 0.8117351 -0.37497616 
-0.18983883 0.92089754 -0.34045407 
0.383262 0.92361385 -0.0069164913 
-0.37207174 0.16245762 0.9138765 
-0.9269271 0.19023782 -0.32344377 
-0.77541876 0.253768 -0.57821083 
-0.8711372 -0.3629813 -0.3307033 
-0.34341007 -0.022190027 -0.9389234 
0.13514024 0.5234298 -0.84128374 
0.4501857 0.8923999 -0.030907268 
-0.07075025 0.8807055 -0.4683506 
-0.09028774 0.91818255 -0.38573167 
-0.42219982 0.79273087 -0.43968758 
-0.58375394 0.714264 -0.3860808 
-0.9002357 -5.3034896e-06 -0.4354029 
-0.6740094 0.5442788 -0.4994717 
-0.56238985 0.8255376 0.046960693 
-0.54240406 0.834774 -0.09460616 
-0.61476684 0.76035035 0.20959306 
-0.3420717 0.085977025 -0.93573236 
-0.5502033 0.14402246 -0.82251674 
-0.1756835 0.6832335 -0.70875055 
0.34188983 0.62935585 -0.69787014 
0.67878413 0.73188305 0.059995286 
0.111646496 0.67416424 0.7300943 
-0.8345262 0.5235555 0.17162725 
-0.4300692 0.7366906 -0.52185017 
-0.33388454 0.8623652 -0.3805882 
-0.49344122 0.58769625 -0.64119345 
-0.0417708 0.964268 -0.2616148 
-0.07283355 -0.43158123 -0.89912903 
-0.674119 0.4654242 -0.57353646 
0.16932844 0.94161236 -0.29102275 
0.00551464 0.9758654 -0.21830341 
0.2568861 0.82279384 -0.5069715 
0.80419296 0.57703084 -0.14251015 
0.7667278 0.63305146 -0.10665023 
0.15967146 0.27435514 -0.94827974 
0.6670829 0.6915662 -0.2770138 
0.1295792 0.9202252 0.3693169 
-0.22393695 0.04569361 0.97353196 
-0.2097322 0.38593966 0.89836687 
-0.75599563 0.08436588 0.64911723 
-0.7718991 -0.12390482 0.6235538 
-0.67187494 -0.41464835 0.6137189 
0.23900941 -0.32309556 0.9156876 
0.8310862 -0.11360072 0.54441756 
0.2887772 -0.44103092 0.84976447 
0.23992288 -0.056359246 0.96915466 
0.20866345 0.25431025 0.9443442 
-0.6410988 0.6698732 0.3745162 
-0.5212698 0.4298122 0.73725116 
-0.7265318 -0.4391499 0.52848744 
-0.5979212 -0.26127774 0.7577759 
0.47743192 -0.58599997 0.65472347 
0.92586184 0.06535508 0.37216744 
0.81670487 -0.07102211 0.57266825 
0.9167045 -0.22780903 0.32826215 
0.50348765 -0.015393468 0.8638653 
0.4623507 0.568608 0.68038 
0.58467156 0.8040251 -0.10818004 
0.5512208 0.8163192 -0.17256482 
0.4220357 0.46457693 0.77849495 
-0.40007287 -0.2077125 0.89263505 
-0.49224928 0.4471591 0.7468196 
-0.30744472 0.7801681 0.5448078 
-0.51106095 0.14762548 0.84677243 
-0.7349121 0.55670315 0.38728014 
-0.7897777 0.41618392 0.4506021 
-0.5192756 -0.51214045 0.6841528 
-0.94621354 -0.2503233 -0.20498362 
0.5614888 -0.82665116 0.037125185 
0.6981392 0.043507144 0.714639 
0.60987765 -0.15411344 0.7773664 
0.60888755 -0.24767888 0.7535989 
0.2876054 0.098988734 0.9526198 
0.7365267 0.511169 0.44298375 
0.3382905 0.90452135 -0.25961652 
0.32203662 0.87084633 -0.37137455 
0.67798823 0.3407479 0.651324 
0.64176184 0.7666892 0.01815327 
0.8961245 -0.03583936 0.44235352 
0.70433336 0.13632552 0.6966563 
-0.31349275 0.3033022 0.8998501 
-0.04784151 0.88085645 0.47096 
0.18739541 0.86459684 0.46621382 
0.09998234 0.18838471 0.9769927 
0.3286069 0.19140749 0.9248679 
0.88640076 -0.3060404 0.34732264 
0.21495265 -0.8874752 0.40765578 
0.39017177 -0.4239756 0.81731915 
0.020499378 -0.3831841 0.9234445 
-0.6601412 -0.6244895 0.41740444 
-0.85612905 0.08480504 0.50975615 
-0.49798825 -0.86082333 -0.10483774 
0.5080834 -0.26208404 -0.82046527 
0.31335732 -0.54740673 -0.7759852 
0.40111995 -0.47690994 -0.7820869 
0.8484143 -0.18530144 -0.4958392 
0.88899606 0.2534197 -0.38139814 
0.60549116 -0.7740782 -0.18488757 
0.5038309 0.5804524 0.6397104 
0.5679529 0.32429048 0.75648224 
0.0518731 -0.6060158 0.79375947 
-0.43937483 -0.53583115 0.72099566 
-0.78903186 0.60041344 -0.13012521 
-0.5584474 0.39516434 0.7293708 
-0.8199642 -0.03681901 0.57122964 
0.0052476344 0.806516 0.591189 
-0.45633367 0.74093735 0.49271852 
-0.55774087 0.5887869 0.58502585 
-0.96928203 -0.15017715 0.19478007 
-0.9116978 0.027878098 0.40991476 
-0.6260439 -0.5709376 -0.5311303 
-0.25697452 -0.8248778 -0.50352824 
-0.29967365 -0.33947983 -0.8915993 
0.058267437 -0.32827345 -0.9427839 
0.23142555 -0.45892805 -0.85780376 
0.5163704 -0.66521496 -0.53930587 
0.74847275 -0.649698 -0.13297018 
0.9266825 -0.37198204 0.05375019 
0.90047765 -0.37319985 0.2232983 
0.4035396 -0.91415083 -0.03852412 
0.15960893 -0.4499369 0.87868196 
-0.1669336 -0.17276949 0.9707131 
-0.25946036 0.9602029 -0.10339646 
-0.012071208 0.87870234 -0.4772174 
0.23606066 0.85030895 -0.47037226 
0.20198615 0.9261221 -0.31858984 
0.08616879 0.8837334 -0.4599895 
-0.21906875 0.9618808 -0.1636894 
-0.26829076 0.9391283 -0.2146116 
-0.029735424 0.994971 -0.09564833 
0.036885172 0.75529003 0.65435195 
0.11577374 0.051605903 0.9919342 
0.56231385 -0.155321 0.81220603 
0.34021422 0.09163088 0.9358729 
0.27782705 -0.060923662 0.95869726 
-0.38866505 0.18815547 0.90196294 
-0.30337974 0.3670517 0.87933713 
-0.7683931 0.08074639 0.63486385 
-0.012227172 0.8992496 0.43726507 
-0.23641005 0.9598325 0.15110235 
-0.08021809 0.9106427 -0.40533325 
0.4769367 0.6560339 -0.58493674 
0.5047664 0.7962463 -0.3334709 
0.7416694 0.6223067 0.2503217 
0.8223829 -0.03130425 0.56807244 
0.55452466 0.24475154 0.795361 
0.38951534 0.012404895 0.9209365 
0.19396542 0.7642607 0.6150471 
-0.38521963 0.5317587 0.75421387 
0.024541747 0.9252512 0.37856036 
-0.29740265 0.5972417 0.74488527 
-0.5619452 0.68027496 0.47057796 
-0.61641383 0.43798462 -0.6543726 
-0.07006687 0.92585915 -0.37131602 
-0.28903368 0.95345914 -0.08588037 
-0.780847 0.29572728 -0.550294 
-0.5814809 0.027229387 -0.81310433 
-0.937374 -0.34698346 -0.030537598 
-0.77351344 0.102279305 0.62547266 
-0.7801486 -0.2963115 0.5509698 
-0.5566705 -0.495186 -0.6670149 
-0.34440577 -0.3966271 -0.85092396 
0.43166023 0.04232308 -0.9010429 
-0.0067213294 -0.19602965 -0.980575 
0.2750274 0.066305116 -0.95914733 
0.69042593 -0.7123616 0.1259095 
0.93271387 -0.3385281 0.124272384 
0.879314 -0.42524916 -0.21440661 
0.9316573 0.3629368 0.017076483 
0.5443795 -0.29225358 -0.78628165 
0.37267274 0.6438153 -0.66829413 
0.6655774 0.55784255 -0.49580088 
0.29766843 0.94283015 -0.14988287 
0.64336604 0.7557628 -0.12207697 
0.76226526 0.6180365 0.19230889 
0.37962288 0.8631889 0.33285356 
-0.5097315 0.34880766 0.78645223 
-0.70531493 0.52526224 0.47605735 
-0.59870404 0.55236673 0.58003837 
-0.6476351 -0.46128276 0.60645443 
-0.81490964 -0.20103465 0.54360604 
-0.6242875 0.25972956 0.7367536 
0.2589332 -0.020583779 0.9656759 
0.024825826 0.23346736 0.97204775 
0.057598285 -0.20205416 0.97767913 
0.017644357 0.21769203 0.9758581 
0.3952977 -0.52226245 0.75563323 
-0.923999 0.23437114 0.30215248 
-0.60251975 -0.78786653 -0.12742145 
0.24784939 -0.80268764 -0.5424605 
0.7182146 -0.60954356 -0.3355958 
0.89905655 -0.4192073 -0.12634315 
0.43080133 0.76324576 0.48152497 
0.75313157 0.45501834 0.47513282 
0.97323406 0.1781536 0.14517851 
0.9293999 0.34760526 0.124042 
0.6182603 -0.2768025 0.73561853 
0.35830548 0.5203268 0.7751628 
-0.19352569 0.4713973 0.8604258 
-0.5208458 0.48789555 0.70048386 
-0.5354833 0.8353484 -0.124300346 
-0.8448708 0.28974074 -0.44971505 
-0.50001895 0.86598593 0.0070348443 
-0.40707353 0.866145 -0.28997266 
-0.25011182 0.82850945 -0.50101537 
-0.4130432 0.4846861 -0.77102184 
0.27755556 0.19590546 -0.9405232 
0.6068562 0.63983005 -0.4715327 
0.8260589 -0.066668466 -0.5596267 
0.8915086 -0.38862738 0.23276901 
0.9711432 -0.14300238 0.19086958 
0.82770944 -0.52155465 0.20707019 
0.7236551 -0.3896208 0.5696657 
0.3223337 0.23880287 0.91601 
-0.63394666 0.05232077 0.771605 
-0.20606118 0.5308831 0.82201105 
-0.29213694 0.12969023 0.9475424 
-0.437475 0.48043108 0.76013273 
-0.67658347 0.69192576 0.25193962 
0.0016243532 0.9780731 -0.20825562 
0.107553005 0.98212117 -0.15450026 
0.23134218 0.95561147 -0.18244852 
0.4971001 0.80966806 -0.31197625 
-0.028302865 0.90466166 0.4251897 
0.03404321 0.5519182 0.83320314 
-0.15981504 0.9316652 0.32628083 
0.10185545 0.97444236 0.20021862 
0.114458986 0.6414812 0.7585519 
-0.111275926 0.9006701 0.42001322 
-0.2900719 0.07869046 0.95376414 
-0.28762397 0.5161237 0.80677676 
-0.881072 0.44566694 -0.15840852 
-0.9741267 0.048435103 0.2207514 
-0.7864255 0.1403829 0.6015211 
-0.6257705 0.5423407 0.56060493 
-0.90074444 -0.42562273 0.086630076 
-0.9684883 -0.13112941 -0.21174437 
-0.6424319 -0.049458846 -0.7647452 
-0.9492953 -0.11324048 -0.29328328 
-0.8908547 0.2873296 -0.35188028 
-0.5872603 0.72141796 0.36698973 
-0.2161964 0.4186561 0.8820353 
-0.35342976 0.72159845 0.595301 
-0.28227308 0.90377057 -0.32174632 
-0.006487283 0.8472293 -0.5311879 
0.5727089 0.7720049 -0.2757049 
0.35691187 0.8483236 0.39110228 
0.67205715 0.27699408 0.68674123 
0.5806918 0.31366628 0.7512726 
0.61305463 0.37228304 0.6968282 
0.492857 0.3663458 0.7892293 
0.44063953 0.7653094 0.46918893 
0.2683603 0.42135787 0.86627966 
0.21886344 0.9599179 0.17509018 
-0.20776084 0.706431 0.67660236 
-0.13260253 0.63480914 0.7612056 
-0.37588307 0.10890399 0.9202456 
-0.99238896 -0.014527027 0.12228306 
-0.8052676 0.5906474 -0.05176746 
-0.5140364 0.61464256 -0.59831524 
-0.32728502 0.74051803 -0.5869562 
0.41914445 0.88634866 0.19673328 
0.6244722 0.75408006 0.20346439 
-0.5300426 0.82948667 0.17608778 
-0.27212578 0.9592349 0.07626345 
-0.1302335 0.6612781 -0.7387493 
-0.86053556 0.38553447 -0.33292902 
-0.5178142 0.602477 -0.60736316 
-0.79448634 0.12187071 -0.5949277 
-0.53099406 0.46595043 -0.707768 
-0.74015963 0.67067623 -0.04855072 
-0.7208541 0.6724085 -0.16803665 
-0.32455134 0.27089685 -0.90624577 
-0.24795759 0.4791188 -0.841999 
-0.60968715 0.28699723 -0.73886013 
-0.2515126 0.60709214 -0.7537775 
0.8712678 0.363677 -0.32959312 
0.3866422 0.7747951 0.5002005 
0.009428355 0.44826725 0.89384997 
-0.4009848 0.91603166 0.009860448 
-0.12280256 0.9229261 -0.3648657 
-0.25465414 0.8632762 -0.43578157 
-0.19285907 0.870087 -0.45360124 
-0.5917851 0.28241858 -0.7550035 
-0.5563343 0.69530743 -0.4550162 
-0.059881046 0.8623247 -0.50280255 
-0.20994557 0.63453305 -0.74383515 
0.21518306 0.6706524 -0.7098744 
0.05969312 0.5744152 -0.8163847 
0.3244342 0.8122837 -0.48470384 
0.37296245 0.5896291 -0.71640533 
0.8125454 0.5736601 -0.10336336 
0.60676765 0.7657576 -0.21318632 
0.5293257 0.70187306 0.47664306 
-0.0051409453 0.36400223 0.9313839 
-0.12736237 -0.27776176 0.95216984 
-0.49614555 -0.25563455 0.82975334 
-0.99142987 -0.12918602 0.019438775 
-0.6743131 -0.5207443 0.52357155 
0.34702125 -0.46881157 0.8122758 
0.15271968 -0.73685604 0.6585741 
0.16475901 -0.5673721 0.8068107 
0.07104374 0.08568004 0.99378663 
-0.50530386 -0.52882814 0.68191564 
0.24615294 -0.59081405 0.7683409 
-0.33715102 -0.7118431 0.6161239 
-0.21741748 -0.4983426 0.83927613 
0.6743151 -0.7058918 -0.21683165 
0.83592033 -0.3732865 0.40236112 
0.63407886 0.365202 0.6815949 
0.48316738 0.619543 0.6186403 
0.4440277 0.003983587 0.89600426 
0.57559353 0.40885046 0.7081902 
-0.0070032966 0.7285558 0.6849507 
0.43419832 0.89146096 0.12949562 
-0.21139795 0.83581865 0.50667363 
-0.58391684 0.4351352 0.68534553 
-0.62123024 0.65026015 0.43730396 
-0.1815057 0.17162155 0.9682984 
-0.49117768 -0.26909763 0.828451 
-0.8424952 0.26486355 0.4690941 
-0.77914804 -0.4406051 0.4458649 
-0.80498344 -0.5515001 -0.21874472 
-0.9026025 -0.41544658 -0.11275096 
0.86396134 0.25403935 0.43478125 
0.63677156 0.3375329 0.6932486 
0.965068 -0.08212967 0.24879418 
0.87136614 0.4253521 0.24453358 
0.5486743 0.75233984 0.36461118 
0.44991273 0.8723889 0.19109242 
-0.17310904 0.98490256 0.0005962663 
0.9432394 0.33024266 0.0352028 
0.6814253 0.5251478 0.5097837 
0.63336354 -0.13259737 0.7624098 
0.52242786 0.36142915 0.77229404 
-0.023237225 0.266053 0.9636783 
-0.16230035 -0.078133725 0.9836432 
-0.24409495 0.24915333 0.9371981 
-0.0054416773 0.50480866 0.8632141 
-0.7095805 -0.21734406 0.67026645 
0.7755569 -0.546169 0.31656116 
0.9544204 -0.29691857 0.030349886 
0.30175364 -0.8230552 0.48117054 
0.27933294 -0.42085052 0.86305153 
0.09229088 -0.6906393 0.7172864 
-0.77413476 -0.37891906 0.5070855 
-0.1484079 -0.77586144 0.61320007 
-0.50137734 -0.86441785 0.03745035 
-0.42855623 -0.49364167 -0.75674134 
-0.39574412 -0.76518774 -0.5078134 
0.58263874 0.059831787 -0.8105259 
0.9796982 -0.0894473 -0.17941803 
0.8820294 0.19262043 0.43002504 
0.7235617 0.6044429 0.33332762 
0.4772195 0.63828814 0.60402805 
0.42421073 0.15887068 0.89151853 
-0.42043743 0.21158159 0.88230693 
-0.7987624 0.037331074 0.6004873 
-0.817248 0.24694824 0.520694 
-0.96373415 -0.051677592 0.261813 
-0.9546926 0.189906 0.22912432 
-0.6132531 0.62013596 0.48923615 
-0.5140318 0.82960844 0.21799341 
-0.82656264 0.43614313 0.35577166 
-0.549656 -0.44366792 0.70783985 
-0.99669445 -0.0012417894 0.081232116 
-0.4376982 -0.63862574 -0.63291204 
-0.44860184 -0.520147 -0.7267762 
-0.15295489 -0.5303021 -0.83389723 
0.2286307 -0.5186116 -0.82387507 
0.011822401 -0.15727824 -0.98748356 
0.6322919 -0.10549434 -0.76751405 
0.42777073 -0.9038873 0.00017718581 
0.6368515 -0.7267669 -0.25735208 
0.47940603 -0.7928711 -0.37619862 
0.7694494 -0.54073405 -0.33993283 
0.13563992 -0.4931787 0.8592884 
0.12632494 0.26882425 0.9548694 
-0.6260488 0.7467103 0.22469245 
0.21193469 0.9211829 0.32635227 
0.5637274 0.81375873 0.14145051 
0.51279324 0.83987045 -0.17793484 
-0.10197191 0.95167243 0.28969166 
-0.47847402 0.86691827 0.1396978 
-0.78878903 0.47556555 0.38942206 
-0.26548597 0.9559099 0.12551335 
0.078182936 0.525444 0.8472285 
0.43296376 -0.00040041952 0.90141135 
0.5076214 -0.3190795 0.80031794 
-0.16088966 -0.46614745 0.8699547 
-0.22288865 -0.07467516 0.9719796 
-0.48737532 -0.00059969677 0.87319237 
-0.45102867 0.012466973 0.8924225 
-0.3907834 0.19845377 0.89883506 
-0.12978922 0.8134327 0.56699383 
-0.28326935 0.91345364 0.29216588 
-0.32572028 0.9321909 -0.1578809 
-0.22253087 0.97467715 0.022013329 
0.3210557 0.81210285 0.4872497 
0.6399699 0.72016764 0.26795012 
0.40414852 0.8976471 -0.17576629 
0.7647316 0.40164572 0.50385153 
0.28189084 0.69484204 0.6616133 
-0.18329798 0.9173662 0.35332885 
-0.12261245 0.44628745 0.88645005 
0.7599051 0.29732692 0.5780492 
-0.18782818 0.52157325 0.8322752 
-0.3016986 0.8582817 0.41512728 
-0.53548473 0.78270113 0.3172306 
0.21490353 0.5093438 0.8332979 
0.45093748 0.7434475 0.4939041 
0.32159898 0.8434583 0.4302931 
0.30892307 0.56814367 0.7627446 
-0.44809872 0.60457337 0.65855795 
-0.8805407 0.30537066 0.3624871 
-0.89298743 0.44766375 -0.046590347 
-0.6986797 0.30865455 -0.64542943 
0.40773836 -0.19791201 -0.89139235 
0.52710927 0.7321858 -0.43134648 
0.8276817 0.55211735 0.10054573 
0.79677665 0.59644306 -0.096967444 
0.95594996 -0.26262918 -0.13109383 
0.9596724 0.15721487 0.23305008 
0.9899922 0.022599421 0.13930124 
0.8958955 0.36570132 0.25225788 
0.6704844 0.70354444 0.23553333 
0.25869715 0.9613854 0.0938823 
-0.29809922 0.9398306 -0.16689946 
0.058352787 0.9365902 -0.34553418 
0.48276058 0.8503 0.20959975 
0.6215414 0.38455415 0.68249863 
0.2225455 0.7732516 0.59376395 
0.10479508 0.519674 0.8479134 
0.21042204 0.16555254 0.963491 
-0.19068825 -0.104288094 0.9760954 
-0.07294487 -0.15747264 0.9848256 
-0.46122366 -0.4378371 0.7717327 
0.5634795 -0.15974663 0.810538 
-0.020028867 -0.3871583 0.9217958 
0.095972545 -0.54451734 0.83324075 
-0.7787518 -0.44699058 0.4401648 
-0.68227965 -0.29506606 0.6689026 
-0.5875752 -0.69332725 0.4171962 
-0.6141548 -0.62478894 0.48213345 
-0.311446 -0.9447342 -0.10236583 
0.23436286 -0.5407911 -0.8078485 
0.6682284 -0.729929 -0.14378694 
0.9349548 -0.2990828 -0.19081123 
0.4651251 0.2829312 0.8388139 
0.92464197 -0.08279337 0.3717292 
0.8241383 0.00213673 0.56638455 
0.70335966 0.69891167 0.12964438 
0.73565483 -0.19879955 0.6475267 
-0.04121917 -0.35992673 0.93206966 
-0.53894085 0.18342115 0.82213104 
-0.1428051 0.93954265 0.3112336 
-0.4664506 0.73053014 0.49874806 
-0.10465921 0.9690886 0.22341383 
-0.5947621 0.43569294 0.67559594 
-0.38079917 0.68974346 0.6158296 
-0.3480219 0.91936225 0.18345033 
-0.118796594 0.9228631 -0.36634848 
0.032276228 0.10035857 -0.9944277 
-0.22013907 0.842843 -0.4910748 
0.5994929 0.047150727 -0.79899013 
0.94785863 -0.17503254 -0.26632246 
0.7247652 -0.5939441 -0.34920752 
0.6079909 0.40725634 0.6815345 
0.9317369 0.2703442 0.2424467 
0.5016471 0.7461465 0.43773913 
-0.059146352 0.68738115 0.7238846 
-0.28431636 0.8782504 0.38450024 
-0.21787103 0.5486039 0.8071964 
-0.19728433 0.56194 0.8033071 
-0.29537833 0.7086833 0.64071816 
-0.42052487 0.8919123 0.16628702 
0.47817 0.8229299 0.30682245 
0.06796626 0.96745396 0.24374914 
0.26524535 0.71385336 0.64811915 
0.11748297 0.5771203 0.80816454 
-0.30338314 0.43685538 0.84682715 
0.027872723 0.0730811 0.99693644 
-0.6814626 0.40965685 0.606457 
-0.045567576 0.65326136 0.75576 
0.17908937 0.56253403 0.80714464 
-0.3827681 -0.26705575 0.88440377 
-0.99362457 -0.080171175 -0.079264194 
-0.5483997 0.6585255 0.51536596 
-0.9675934 -0.24482507 -0.061836913 
-0.93788654 0.3455741 -0.030779744 
-0.4915071 0.8692733 0.052771386 
-0.7708347 0.6010778 0.21099655 
-0.91092014 0.08031526 -0.40468994 
-0.748539 0.64616984 -0.14884253 
-0.6594119 0.1847975 -0.72871524 
-0.74578977 0.44643205 -0.4944655 
0.15234032 0.53077275 0.8337102 
-0.013512897 0.7334506 0.6796086 
0.31562078 0.92965245 0.19007878 
0.18805106 0.9790765 -0.07775648 
-0.23149058 0.74605054 -0.6243563 
0.40630364 0.9032096 -0.13831027 
0.41258717 0.8699351 0.27015722 
0.2443407 0.8825159 0.40182525 
0.6270097 0.36696008 0.6871676 
0.56881136 0.6742254 0.47103485 
0.36273417 0.44620416 0.8181233 
0.07592576 0.9887647 0.12876238 
0.49112028 0.33304304 0.804912 
-0.050285168 0.38704646 0.9206881 
-0.24221185 0.37545767 0.89463127 
-0.42005822 0.6436588 0.63973 
-0.5513272 0.40991428 0.7266421 
-0.6773308 0.67672265 0.2885647 
-0.4322893 0.87527573 -0.21683733 
-0.19317397 0.98042625 0.038056556 
0.16469938 0.9606212 0.22378802 
0.75943065 0.6505107 0.010042524 
0.42600793 0.63101494 0.64833444 
-0.10568985 0.8921016 -0.43930006 
-0.5202869 0.66124964 0.5404169 
-0.8752278 0.2628649 0.40605226 
-0.8398846 0.5072052 -0.19322753 
-0.5043882 0.7720813 -0.38663045 
-0.43751484 0.6150693 -0.6559501 
-0.9614059 0.16892216 -0.21717274 
-0.624281 0.7650682 -0.15793669 
-0.5367004 0.84336376 -0.026271114 
-0.38664913 0.7294303 -0.5642996 
-0.19509716 0.75037855 -0.6315608 
-0.1340556 0.42496377 -0.89522904 
0.13650265 0.706957 -0.6939589 
-0.1670266 0.90155864 -0.399117 
0.0125977965 0.54978323 -0.83521247 
-0.86417055 0.4132315 -0.2871395 
-0.79139775 0.6061399 0.07927135 
-0.6272242 0.7058974 0.32908764 
-0.28797433 0.949262 -0.12638202 
0.12447191 0.6102619 -0.78236 
-0.43943545 0.79727507 -0.41382244 
-0.36960268 0.7714595 -0.5179229 
-0.01596293 0.8572823 -0.51459926 
-0.39150822 0.9118544 0.12346207 
-0.5501458 0.82101196 -0.15257472 
-0.36354193 0.24717146 -0.898189 
-0.3427314 0.7696972 -0.5386109 
-0.01970262 0.90602344 -0.42276874 
0.38889834 0.8156822 -0.42827666 
0.23061606 0.9455095 0.22984333 
-0.7231738 0.1013337 0.6831919 
-0.30879316 0.0969076 0.94617957 
0.7152302 0.25221583 0.65179217 
0.07138115 0.56558603 0.8215943 
-0.7997574 0.13913836 0.5839766 
-0.4562469 -0.88618046 0.080765374 
-0.28813455 -0.9402582 0.18136413 
0.050489873 -0.592393 0.8040655 
0.23536688 -0.70287293 0.67124665 
-0.20298019 -0.24416226 0.94825315 
-0.45110163 -0.7708217 0.4498235 
-0.14101285 -0.93882614 0.3141989 
0.1000844 -0.98719585 0.1242082 
-0.10571753 -0.31904414 0.9418252 
-0.052166827 -0.70397973 0.7083016 
0.5614707 -0.3517735 0.7490034 
0.55884755 -0.5046369 0.65805095 
0.62555104 -0.03777932 0.7792681 
0.3969543 0.1324235 0.90823525 
-0.27650023 0.5817049 0.7649622 
0.31816337 0.89476264 0.31332397 
0.05525565 0.76178604 0.64546794 
-0.17217381 0.961568 0.21387687 
-0.59997034 0.3686596 0.71001816 
-0.882216 0.36824048 0.2934178 
-0.74982744 -0.3373229 0.56918555 
-0.55426794 -0.75701886 0.34599084 
-0.7001021 -0.104944184 0.70628875 
-0.26581264 0.29673776 0.9172189 
-0.8889132 -0.41324893 -0.19763273 
-0.47531542 -0.45642006 -0.7521675 
0.43193114 0.45659178 0.7777914 
0.40566725 0.1620935 0.8995331 
0.9540769 -0.27761093 0.11255863 
0.98700994 -0.13339427 -0.089540236 
0.6949608 0.70067793 -0.16149329 
0.5060098 0.8449876 0.1730609 
0.21282509 0.9742695 -0.07419245 
0.5348937 0.68174356 0.49911368 
0.6139678 0.08343728 0.78490883 
0.552214 -0.058122963 0.83167386 
0.41430673 -0.16364338 0.895305 
0.23580238 -0.52718395 0.81637883 
0.51235354 -0.2200819 0.83009505 
0.026441945 0.24574898 0.9689728 
-0.32145917 0.34233874 0.88287497 
-0.49934366 -0.46234354 0.73273075 
-0.16961418 -0.8556816 0.4889174 
0.85035473 -0.26385128 0.45527968 
0.14552133 -0.97900355 0.14274344 
0.2829461 -0.89568746 0.34305325 
-0.6043415 -0.028863084 0.7962024 
-0.897389 -0.4319377 -0.09012787 
-0.4695902 -0.79614407 0.38162756 
-0.83459365 -0.55086464 -0.0012885672 
-0.7207546 -0.30660763 -0.621695 
-0.0450988 -0.8448052 -0.5331703 
0.038078424 -0.27566004 -0.9605008 
0.9872221 0.112615556 -0.11274052 
0.6321211 0.48959067 0.60060304 
0.36837855 0.736274 0.56762475 
0.037143383 0.60745186 0.7934876 
0.49785984 -0.3089154 0.8103746 
-0.386688 -0.5490287 0.74097234 
-0.4145105 0.12313602 0.90167546 
-0.39504388 -0.32462147 0.859396 
0.10479024 0.42984056 0.89680326 
-0.4772328 -0.089413136 0.8742163 
-0.65654385 0.6303967 0.4141863 
-0.68834007 0.28446454 0.667284 
-0.3301569 0.93010026 0.16096534 
-0.16276504 -0.09346144 0.98222834 
-0.64354163 -0.6078218 0.46519557 
-0.43955857 -0.4732142 -0.7634505 
-0.7657821 -0.6425362 -0.02692787 
-0.53769416 -0.09635835 -0.8376157 
0.4964339 -0.3850375 -0.77801 
0.5996534 -0.15753505 -0.7846009 
0.18167739 -0.044767994 -0.98233867 
0.9189374 -0.04382873 -0.39196083 
0.45538595 0.065159075 -0.8879066 
0.91544986 0.017069973 0.40206987 
0.80916893 0.10044246 0.5789274 
0.87684155 -0.057945225 0.4772749 
0.034337737 0.32278454 0.9458494 
0.014130715 0.9739548 0.22630171 
0.41999906 0.86532825 0.27351004 
0.28874362 0.87819856 -0.38130656 
0.25162378 0.960932 0.115305044 
-0.32452643 0.94587475 0.0019118175 
-0.69134474 0.7115748 0.12531489 
-0.4722403 0.73216486 0.49083993 
-0.69775903 0.3324595 0.6345101 
0.4388047 0.79411113 0.420521 
0.51453286 0.06518405 0.8549895 
0.47271696 -0.30268654 0.82759863 
0.067267776 -0.07735168 0.9947321 
0.028652187 -0.20236509 0.97889096 
-0.1685409 0.02794135 0.9852986 
-0.21114923 -0.024373822 0.9771499 
-0.46075445 0.10812247 0.88091713 
0.0376539 0.4119266 0.91043884 
0.43619844 0.66871125 0.60212654 
0.17473869 0.3892994 0.90438515 
-0.5323249 0.500947 0.68240917 
0.395927 0.59363765 0.700597 
0.18688373 0.98214346 0.021652048 
0.75224864 0.48033598 0.45099822 
0.02662591 0.46265826 0.8861369 
0.3363108 0.10893515 0.93542945 
0.3832781 0.74606454 0.54450494 
-0.07996947 0.45028928 0.88929445 
0.5334322 0.38410065 0.7536026 
0.5407365 0.22386199 0.8108575 
-0.109648935 -0.048684474 0.9927774 
-0.1651217 0.18955366 0.9678865 
-0.0038103396 0.25194255 0.9677347 
-0.060147278 -0.21376288 0.9750322 
0.10222229 0.18674223 0.97707623 
-0.58310133 0.27350116 0.7649771 
0.00031238556 0.4085409 0.91274 
-0.78340024 0.6124534 0.10575883 
-0.7868602 0.23806189 -0.569366 
-0.5708418 0.36005762 -0.7379012 
-0.884179 0.4138938 -0.21660897 
-0.2441488 0.912258 0.3289023 
-0.20998657 0.9542264 0.21297352 