# OOMMF: rectangular mesh v1.0
# Segment count: 1
# Begin: Segment
# Begin: Header
# Desc: Time (s) :  3.189999999999999e-07
# Title: m
# meshtype: rectangular
# meshunit: m
# xbase: 2e-09
# ybase: 2e-09
# zbase: 5e-10
# xstepsize: 4e-09
# ystepsize: 4e-09
# zstepsize: 1e-09
# xmin: 0
# ymin: 0
# zmin: 0
# xmax: 1.024e-06
# ymax: 1.024e-06
# zmax: 1e-09
# xnodes: 256
# ynodes: 256
# znodes: 1
# ValueRangeMinMag: 1e-08
# ValueRangeMaxMag: 1
# valueunit: 
# valuemultiplier: 1
# End: Header
# Begin: Data Text
0.88672954 -0.058227506 -0.4586069 
0.9269576 -0.3155191 -0.20297115 
0.8752697 -0.47875243 0.06854964 
0.75566673 0.39837036 0.5198741 
0.9445492 -0.3058687 -0.11946206 
0.91757834 0.0077450196 -0.39747983 
0.38115886 0.83226436 0.40255925 
-0.34937996 0.25285676 0.90221786 
-0.098272495 0.62724155 0.7725999 
0.057832867 0.61660284 0.78514737 
-0.8421652 0.042497855 0.53754246 
-0.9727472 -0.032049194 0.22964275 
-0.81657106 -0.49821025 -0.29154456 
-0.95122164 -0.08992715 -0.29511097 
-0.72049433 -0.31837922 0.6160541 
-0.6012069 -0.52527565 0.6021926 
-0.5805131 -0.15822728 -0.79872954 
-0.6308414 -0.15563446 -0.7601428 
-0.6725111 -0.61234933 0.4156406 
-0.95814717 -0.2825237 -0.046201248 
-0.9710991 -0.04329056 -0.234718 
-0.689941 -0.7238587 -0.003175777 
0.25812697 0.851544 -0.45633692 
0.3036497 0.01724259 -0.9526278 
0.5660135 0.72007966 -0.4013901 
0.69636667 0.70954895 -0.107767016 
0.013144126 0.02326181 -0.9996431 
0.17425285 0.701318 0.6912229 
0.30919284 0.3495735 0.8844198 
0.021947013 0.004618577 0.99974847 
-0.27234334 0.071372576 0.9595495 
-0.7125927 0.5938479 -0.37357244 
-0.73993284 0.6446614 -0.1921226 
-0.92007494 -0.10132009 -0.3784132 
-0.13179539 -0.71830386 -0.6831322 
-0.015685223 0.57603985 -0.8172711 
0.22101343 0.91303265 -0.34281844 
0.33050296 0.9261665 -0.18161348 
0.87772745 0.042877827 0.47723794 
0.41847205 0.78227043 0.46144778 
0.34384623 0.5445454 0.76500994 
-0.91681844 -0.19930081 0.34601033 
-0.256228 0.7682172 0.58667684 
-0.73933357 0.6380967 -0.21498525 
-0.818978 -0.4711969 -0.32748803 
-0.57128465 -0.49783146 -0.65253174 
-0.5628829 0.12791932 -0.816578 
-0.05770944 0.2687963 -0.9614667 
0.38589826 0.091783196 -0.9179643 
0.40459228 -0.7718968 -0.4903882 
0.45176435 0.03412931 -0.89148426 
0.40353763 -0.16070399 -0.9007395 
0.4212949 -0.4471878 -0.78900796 
0.8346544 -0.54961014 0.035790898 
0.57187104 -0.7969167 0.19464679 
0.17045501 -0.825479 0.5380797 
0.43352085 -0.9008991 -0.020990089 
0.95895076 0.092017666 -0.26822802 
0.44674632 0.77317506 -0.45013118 
0.92750657 -0.07001104 -0.36719212 
0.8924409 -0.3349641 -0.30223894 
0.8653207 -0.19578756 0.46139735 
0.7344933 0.53989434 0.4111371 
0.22280607 0.9320247 0.28581008 
-0.3501562 -0.5657275 0.74655414 
-0.9667826 0.25426129 0.026125124 
-0.5692806 0.40613878 -0.7148223 
-0.24975158 -0.17907861 -0.9516066 
-0.61674947 0.38331598 -0.6875239 
-0.40350983 0.80998707 -0.42555925 
-0.28117424 0.53106886 -0.7993166 
0.13818154 -0.5131914 -0.84707767 
0.74195576 -0.15590312 -0.65207046 
0.36775628 0.27347937 -0.88879937 
0.42544657 0.11763333 -0.89730585 
0.14118133 0.9892834 -0.037231263 
0.44760507 0.83289933 -0.32546675 
0.76518166 0.49330813 0.41369566 
0.03886277 0.989617 -0.13837604 
0.042623773 0.883358 -0.4667566 
0.67430246 0.6457169 0.35828194 
0.21516305 0.9758813 -0.03688724 
-0.6965055 0.7130531 -0.080221616 
-0.07146725 0.9756462 0.20738128 
0.37882915 0.9106938 -0.16469711 
0.46065572 0.88230544 -0.09660983 
0.5842909 0.4601302 0.6684941 
0.37583622 0.38264927 0.8439945 
0.15786959 0.53947544 0.8270693 
-0.03590542 0.8680594 0.49516043 
-0.34281862 0.6185037 0.70705634 
-0.7350629 0.5407892 0.40893736 
-0.6007675 0.7843988 -0.154263 
-0.8550127 0.5098672 -0.09480867 
-0.48653603 -0.47123325 -0.7356779 
0.40948159 -0.57599586 -0.70749825 
0.62169623 -0.16572538 -0.7655253 
0.8256582 -0.25877243 -0.5013235 
0.6387684 0.7568286 -0.13851199 
-0.25543824 0.7679492 0.5873716 
-0.55044186 0.62424815 0.5543718 
0.33234698 0.91889393 -0.21255493 
-0.3138237 0.9332733 -0.17468715 
-0.8146993 0.39506325 0.42448795 
-0.2755202 0.9487282 0.15493058 
0.29745078 0.88592815 -0.35588557 
0.89090866 0.19682984 -0.40931633 
0.24385034 0.8671026 0.43436164 
0.6983603 0.30341402 -0.64825374 
0.7381412 -0.5443157 -0.39858264 
0.015009721 0.787034 -0.616727 
-0.9549724 0.26601335 0.13139583 
-0.86021984 0.50954235 -0.019711623 
-0.8631476 -0.022157509 -0.50446546 
-0.39072633 0.5710405 -0.72197354 
-0.7613725 0.29942015 -0.57503 
-0.13392526 -0.12430467 -0.98316455 
0.173031 0.2816671 -0.9437817 
-0.0037327395 0.9889347 -0.14830472 
-0.009986666 0.6763403 0.73652166 
0.19833718 0.9646998 0.17325316 
-0.20783813 0.881697 0.42357272 
-0.67041767 0.5904117 0.44939315 
-0.36193743 0.91738546 -0.16554514 
-0.67043227 0.7304702 0.13013083 
-0.10402148 0.7091164 -0.6973762 
0.68716943 0.44994062 -0.5703962 
-0.38368735 0.092961125 -0.9187722 
0.68801063 0.7242275 0.046216313 
0.61953914 0.6850275 0.3832868 
0.9703559 0.0958249 0.22187187 
0.9703204 0.06603073 0.2326334 
0.6030964 0.06122865 0.79531497 
0.13950363 0.41715774 0.89806366 
0.17524686 0.9252764 0.3363812 
-0.3423063 0.4541343 0.8225501 
-0.9237202 0.07141934 0.37635142 
-0.37900075 -0.42603263 0.8214954 
-0.35756737 -0.5613561 0.74634105 
-0.28169644 -0.029419664 0.95905244 
-0.5860044 -0.77608514 -0.23300396 
-0.611917 -0.7382831 0.28371748 
-0.5870127 -0.7481296 0.30938375 
-0.7372405 0.13055813 -0.662896 
-0.42791003 0.52885044 -0.73294634 
-0.5710672 -0.44789284 -0.68794936 
0.63623863 -0.5419636 0.54906833 
0.7961724 -0.018919976 0.60477406 
0.20308769 -0.56614584 0.7988957 
0.5915528 -0.33832714 0.73184705 
0.65737885 0.4692173 0.5896509 
0.9886028 0.15054597 0.0005787141 
-0.13742763 0.9856289 -0.09823151 
-0.0027017074 0.95561457 0.29460764 
0.7785248 0.54760844 0.30663365 
0.37459347 -0.5333768 0.7584122 
-0.37925276 -0.5525669 0.7421841 
-0.9114257 -0.2578668 -0.32063675 
-0.2276799 -0.96844685 0.10135445 
0.114279866 -0.8876572 -0.4460995 
0.17962512 -0.7818301 -0.59705657 
0.56310505 -0.38300264 -0.7322716 
0.5044218 -0.76084656 0.40825412 
0.23845294 -0.9703338 0.03990707 
0.7089053 0.4124162 0.57215923 
0.81066364 0.034532305 0.584493 
0.42732972 0.40728548 0.8071604 
0.80875856 -0.23483641 0.5392231 
0.6924057 0.1103184 0.71302474 
-0.48080784 0.5940308 0.6449429 
0.46512142 0.2756611 0.8412331 
-0.25208542 -0.6564502 0.7110036 
-0.5530593 0.3902172 0.7361088 
-0.7118088 -0.25597984 0.6540662 
-0.97056884 0.15035291 -0.18812294 
-0.23468609 -0.45268458 -0.8602321 
-0.2553728 -0.71969956 -0.64561385 
0.051989656 -0.99862003 0.007425068 
0.6329992 0.6215434 -0.46151486 
0.46739966 0.026670922 -0.8836437 
0.9240588 0.2733152 -0.26723418 
0.71772534 0.6377585 -0.27952534 
0.9972445 -0.056575596 0.04798635 
0.86143976 0.23014493 0.45271957 
0.32146183 0.922924 -0.21183436 
-0.4183246 0.7886984 -0.45051035 
-0.22494791 0.72749853 -0.6481855 
-0.4246831 0.12792306 -0.8962589 
-0.3777734 0.0015266873 -0.9258969 
0.122384965 -0.53170043 -0.83804333 
-0.07857969 -0.29760444 -0.95144993 
0.28956455 -0.74079394 -0.6061162 
0.12955888 -0.77709866 -0.6158995 
0.3909966 -0.8513344 0.34978798 
0.96276975 -0.26968977 0.018491043 
0.39880615 -0.04926494 0.915711 
-0.5430771 -0.77152765 0.33137947 
-0.88669884 -0.0065950737 0.46230045 
-0.9946032 -0.06578092 0.08023327 
-0.69937605 0.56602776 -0.43644667 
0.2780711 -0.93856615 -0.20437738 
0.40986222 -0.41637293 -0.8115704 
0.5803737 -0.5906008 -0.56067556 
0.091954164 -0.9898531 -0.10832951 
0.46675262 -0.87958384 0.09205609 
0.9608858 -0.26106262 0.092438504 
0.8111024 0.5847771 0.012199519 
0.3259408 -0.30590457 0.8945306 
-0.20778723 -0.051368237 0.97682434 
-0.29320595 0.8933219 0.34059712 
0.057088964 0.9217329 -0.38360053 
-0.02943762 0.8740281 0.4849829 
-0.60628736 0.7201272 -0.3373907 
-0.8460213 0.20412482 -0.4925252 
-0.4767166 0.5924714 -0.6493989 
-0.20266 -0.25096738 -0.94654346 
0.13543269 -0.7304933 -0.6693561 
-0.6000795 -0.17443413 -0.7806904 
-0.44057143 -0.48552367 -0.75509185 
0.1490216 0.24298142 -0.9585159 
-0.5773145 0.33284295 -0.7456029 
0.028522898 0.8934626 -0.44823122 
0.3395992 0.6833611 -0.64628947 
0.35156247 -0.7916774 -0.49965057 
0.8687483 0.035679188 -0.493967 
0.12472817 -0.21223982 -0.96922505 
0.2105518 0.25846198 -0.9427965 
-0.34804326 -0.0026374157 -0.9374748 
-0.45393068 -0.19721194 -0.86893874 
-0.7372422 -0.6194585 -0.26971292 
-0.8994894 -0.40323633 0.16828339 
-0.7735121 -0.6190826 0.13570505 
-0.017092464 -0.14745514 -0.98892105 
0.051506225 -0.13532269 -0.98946196 
0.34235948 0.63844895 -0.68932796 
0.85213196 -0.5063733 -0.13212605 
0.22146797 -0.96958226 0.10422186 
0.34020123 -0.608509 0.71692395 
0.5880554 -0.7698654 -0.24798848 
0.80950934 0.23529573 -0.53789467 
0.5710048 0.81150967 0.12411962 
-0.0372115 0.8863718 -0.46147627 
0.6212992 0.7313785 -0.28119883 
0.67182237 -0.6923083 0.26337025 
0.6408225 0.23966299 0.72932035 
0.93319887 0.35729423 0.038481373 
0.7710395 0.6246852 0.12355794 
0.40262148 0.905464 0.13427913 
0.08368258 0.9421881 0.32446727 
-0.19221866 0.66270554 0.723791 
-0.44526783 0.8415529 0.30581892 
-0.9014159 0.2737807 0.33540082 
-0.56360096 0.73842824 -0.37024 
-0.36571532 0.929808 0.041345023 
-0.058768906 0.8736562 0.4829814 
0.52526814 0.62460643 0.57789296 
0.995874 0.0668475 0.061372038 
0.99658865 0.021622546 0.07964661 
0.9738861 0.13956866 0.17907158 
0.9083472 0.4094228 0.0853134 
0.7374318 0.5769501 0.35117376 
0.64358383 0.691498 0.3280707 
0.043954995 0.8635266 0.50238425 
0.40800315 0.5422769 0.73448575 
-0.37187538 0.5168073 0.77111536 
-0.20202368 0.76814234 0.607572 
-0.28723922 0.09673921 0.95296127 
-0.83361053 0.14098614 0.53405654 
-0.5126386 -0.3147412 0.7988365 
-0.08262653 -0.8448868 0.52852565 
-0.13101482 -0.35395396 0.9260409 
-0.6068139 -0.6482218 0.45998424 
-0.82369953 -0.5664317 0.025964594 
-0.7104315 -0.5191912 -0.47510803 
-0.68812287 -0.7151233 0.122823656 
-0.41700807 -0.854975 -0.30841887 
-0.30751038 -0.6260332 -0.71660304 
-0.54945683 -0.46951777 -0.69112253 
-0.36135006 -0.071009174 -0.9297224 
0.43915546 0.77173126 -0.45997116 
0.5399205 0.478423 -0.6925297 
0.67467135 0.6529846 0.3441362 
-0.059932705 0.9837674 0.16914453 
0.12302862 0.98061806 0.15248705 
0.8087585 -0.059793506 0.5850936 
0.47944564 -0.32339662 0.81581044 
-0.087728046 -0.39112884 0.9161452 
-0.33253673 0.20140818 0.9213328 
-0.7728045 0.62851506 0.08798932 
-0.5681762 0.2976726 -0.76718116 
0.24505691 0.32546973 -0.91324514 
0.16697904 0.80223376 -0.57318336 
0.33064422 0.8028475 -0.49609524 
0.48694077 0.738358 -0.46660063 
0.7743119 0.53408873 0.3393968 
0.18600641 0.393704 0.9002216 
-0.69787544 0.39054164 0.60037255 
-0.58324325 0.414303 0.69869906 
-0.5205956 0.35563174 0.7762128 
-0.5191097 0.8200075 0.24106582 
-0.9486376 -0.19020484 0.25280195 
-0.9949089 -0.07351799 0.06893 
-0.79167867 0.45967805 -0.4024191 
-0.32380894 0.35095215 -0.8786242 
0.035874322 0.20086055 -0.9789627 
0.33912194 -0.18140423 -0.9230866 
-0.013482176 -0.14023118 -0.990027 
0.38507092 -0.082839355 -0.9191617 
0.4904403 -0.1653111 -0.8556521 
0.9859542 0.028710196 -0.16453013 
0.50324965 -0.76181304 -0.4078981 
0.8818716 -0.43879426 0.17251678 
0.93427324 -0.33761004 0.11468635 
0.8542325 0.5197614 0.0116148405 
0.47758338 0.87709814 0.0511168 
0.8840603 -0.28260636 0.37225142 
0.82252437 -0.27019176 0.50045013 
0.2601491 0.38707814 0.88458633 
0.23243088 0.7594168 0.6076694 
0.006624377 0.9486034 0.31639802 
-0.29558736 0.94153255 0.16169314 
-0.78731155 0.34950408 0.5079246 
-0.77915674 0.5494349 -0.30172187 
-0.37531424 0.27444774 -0.88533485 
-0.13480349 0.7839436 -0.6060203 
-0.31057462 0.92384255 -0.22373734 
0.32989565 0.83740485 -0.43580064 
0.3314209 0.7711961 -0.5435226 
-0.05128468 0.8806163 -0.4710466 
-0.23768461 0.87527215 -0.42119431 
-0.06329091 0.96458864 -0.25605285 
0.5713516 0.80985594 0.13300695 
0.022525152 0.9074817 0.41948727 
0.6938033 0.65785074 -0.2930349 
0.9197178 0.36256215 -0.15055892 
0.49792957 0.859281 0.117057346 
0.57357544 0.26819658 0.77400374 
0.4174737 0.61338925 0.6704248 
0.47906587 0.770007 -0.42140839 
-0.033731647 0.9971974 -0.06678069 
0.05521013 0.9734094 0.2223196 
-0.055612307 0.9688896 0.24116461 
0.7809569 0.5806746 0.23005046 
-0.14343984 0.016877115 0.9895151 
-0.6588213 0.6151816 0.43301973 
-0.33954826 0.5838818 0.7374206 
-0.8371709 0.20022985 0.50897247 
-0.57365304 0.09898081 0.813096 
-0.84131753 0.13509941 0.52338606 
-0.5070422 -0.8383541 -0.20017639 
-0.77256984 -0.22305754 -0.5944587 
0.44768456 0.0066560875 -0.89416677 
0.8239643 0.09297902 -0.5589614 
0.7686778 0.6187847 0.16198781 
0.6507267 0.35448736 0.67148614 
0.018864922 0.7518826 0.6590271 
0.004367372 0.4108851 0.91167676 
-0.18680282 0.42443046 0.8859817 
-0.103006005 0.668831 0.73624384 
0.0471817 0.9499375 -0.30885708 
0.3258816 0.5387781 0.7768651 
0.014929227 0.8106878 0.5852883 
0.2699148 0.8802689 0.39022142 
-0.25504172 0.66166055 0.7050952 
0.43814906 0.25803867 0.86107004 
0.17286552 0.6465169 0.74305683 
-0.32928813 0.92678297 0.18067282 
-0.6168639 0.7548067 0.22303781 
-0.5538962 0.7945376 0.2488152 
-0.8377694 0.4655146 0.28537452 
-0.5099573 0.79380006 0.33139858 
-0.43433097 0.60420406 -0.66805243 
0.051326826 0.4359777 -0.89849275 
0.023164496 0.6534767 -0.75659215 
0.20098166 0.9599708 -0.19509584 
0.16888244 0.94565815 0.2778661 
0.28708506 0.31787878 0.90362346 
-0.42603245 0.85592103 0.29307973 
-0.31177667 0.77414036 0.55091035 
-0.5264515 0.8330172 0.17009214 
-0.5652836 0.7086901 -0.42215255 
0.07235608 0.75220454 -0.6549451 
0.57958686 0.5438533 -0.6068794 
0.88123655 0.45960373 0.11039318 
0.5877237 0.80904526 0.0051608016 
0.9667525 0.15179561 0.20578572 
0.97302973 0.20866826 0.09834 
0.31443015 0.6460623 0.6955122 
-0.23046836 0.586204 0.7766912 
-0.038431782 0.92352283 0.3816132 
-0.3532748 0.52453786 0.7746335 
0.020661425 0.2130465 0.9768236 
-0.35210696 0.7117558 0.607803 
-0.44799584 0.10210059 0.8881866 
-0.948634 -0.18368207 -0.25759375 
-0.93212336 -0.31986606 0.16979927 
-0.51847804 -0.51261514 -0.6844021 
-0.5064063 -0.66763353 -0.5457272 
-0.6246295 -0.673207 -0.39576554 
-0.43652448 0.14607914 -0.88775414 
0.42156035 -0.17915274 -0.88892704 
0.63484126 -0.62144065 -0.45911673 
0.8229144 -0.51744896 -0.23464529 
0.7363446 -0.55768996 0.3831171 
0.855424 -0.32452318 0.40365154 
0.29576582 -0.33447856 0.8947887 
0.2715369 0.34630904 0.8979632 
0.7472231 0.35512185 0.56173503 
0.6737305 0.57857007 0.4597217 
-0.57074815 0.18449378 0.80013037 
-0.10313153 0.51634866 0.8501459 
-0.5803938 -0.40191022 0.7082453 
-0.8060397 -0.56086004 0.18903983 
-0.63425547 -0.60078424 -0.48659882 
-0.5946505 -0.574565 -0.5623753 
0.2309166 -0.54893464 -0.8033358 
0.10599299 -0.12887223 -0.98598045 
0.28442898 -0.5371031 -0.79411614 
0.71083295 -0.5173982 -0.47646168 
0.6407122 -0.61361074 0.46148646 
0.9316209 0.331344 0.14931075 
0.85847425 -0.47310638 0.19797103 
0.7692305 -0.31033108 0.55855095 
0.68652713 -0.7014361 0.19148885 
0.7829591 -0.37135208 0.49907187 
-0.18031871 0.24758743 0.95193785 
-0.07319923 0.11388906 0.9907932 
-0.24065635 -0.3137473 0.9185027 
-0.9386188 -0.3381211 0.06832992 
-0.8237421 -0.56014216 0.087691195 
-0.90400743 0.42751685 0.00037305706 
-0.8289082 -0.21791023 -0.51519555 
-0.48104405 -0.05086274 -0.87521976 
-0.3696723 -0.21491656 -0.9039653 
0.27522993 0.116287656 -0.9543195 
0.6648706 0.57737297 -0.4739067 
0.93097985 0.2880934 0.22422914 
0.8619862 0.2909023 -0.41515726 
0.9817995 -0.017651679 -0.18909892 
0.9577508 0.20258422 0.20414014 
0.248392 0.74394727 0.620358 
0.29357785 0.9148608 -0.27720374 
0.16143467 0.37904108 -0.9111897 
-0.15488945 0.61690074 -0.7716495 
-0.5057703 0.6275021 -0.5919776 
0.12827478 0.5433779 -0.8296301 
0.23970264 0.300809 -0.9230691 
0.88678604 -0.23717307 -0.3966855 
0.59065497 -0.13225709 -0.79601187 
0.91982466 -0.18112436 -0.34801805 
0.71886784 -0.01990635 0.69486177 
0.36010084 -0.06758435 0.9304622 
-0.53499067 -0.46628168 0.70453274 
-0.36900488 -0.11016465 0.9228755 
-0.8447505 0.3740537 0.3827275 
-0.42021972 0.43182483 -0.79808694 
0.12795636 -0.6082771 -0.78334296 
0.6996615 0.4643315 -0.5430195 
0.1342787 0.48690954 -0.8630692 
0.56657076 0.14829028 -0.81056017 
0.6209801 -0.17519331 -0.7639968 
0.9833788 -0.16716607 -0.07086415 
0.95020396 0.13692886 0.27993396 
0.533398 -0.4716197 0.70218337 
-0.60572433 0.17287232 0.7766681 
-0.46019897 0.6017076 0.65281314 
-0.15258747 0.8555485 0.4947259 
-0.31374532 -0.04961695 0.94821 
-0.5845356 0.810689 0.033189815 
-0.47352603 0.77001 0.42761874 
-0.5095263 0.8566711 -0.08060782 
-0.7721035 0.30658746 -0.55665106 
-0.51692563 0.13321401 -0.8456015 
-0.6454918 -0.64504004 -0.40897885 
-0.42056763 -0.0033853024 -0.90725493 
-0.6794568 0.49447536 -0.54206336 
-0.46971935 0.6391359 -0.6089902 
-0.30394128 0.8848256 -0.3531337 
-0.23244566 0.5922325 -0.77151126 
0.12702549 0.10580663 -0.98624015 
0.04999943 -0.49998188 -0.86459136 
0.055013947 -0.56319475 -0.8244909 
-0.88572145 0.012774704 -0.46404135 
-0.83760774 0.038133338 -0.5449397 
-0.6457092 -0.6548915 -0.39265358 
-0.48416406 -0.8000838 -0.3541909 
-0.8233952 -0.47363868 -0.31254882 
-0.3635472 -0.7497034 -0.5529722 
-0.17617126 -0.055131357 -0.98281443 
0.48295805 -0.01595296 -0.8754983 
0.6482783 0.14699648 -0.74707925 
0.870606 -0.2734054 -0.40901667 
0.80756944 0.018826352 -0.5894719 
0.87516385 -0.40747485 -0.26086912 
0.79963773 -0.53913754 -0.26440525 
0.90643656 0.15940084 0.3911065 
0.7968813 0.2780283 0.53635865 
-0.17879029 0.6216853 0.7625887 
0.9041481 -0.0031783627 0.42720738 
0.7447252 0.3873267 0.54347265 
0.46028155 0.31966314 0.82822484 
0.99755293 -0.014252389 0.0684486 
0.7027736 0.2943881 0.6476457 
0.65793717 0.46498957 0.59237105 
0.38175878 0.88056934 0.2808166 
-0.25011227 0.9090992 0.3331403 
-0.6082753 0.6996019 0.37491137 
-0.5485705 0.512224 0.6608305 
-0.7069196 0.5289604 -0.46953756 
-0.30587286 0.8945191 -0.32600227 
-0.19151208 0.4249324 -0.88473475 
-0.47676787 -0.69620353 0.53664994 
0.98423487 0.13181181 -0.11792947 
0.91898346 0.3694376 0.13778688 
0.3251926 0.9071986 -0.2669089 
0.60168546 0.79545647 0.072275124 
0.6715866 0.40328243 -0.62155837 
0.69225025 0.71555734 0.09363413 
0.80573183 0.22174683 0.5492037 
0.28646 -0.25552619 0.92338896 
-0.011048166 -0.09524125 0.9953929 
0.26420718 0.82698697 0.49627325 
-0.6567397 -0.054483775 0.75214666 
-0.77031755 -0.16906333 0.6148402 
-0.24529605 -0.71834046 0.65101224 
-0.119794875 -0.6895909 0.7142225 
-0.5669274 -0.5451143 0.6176114 
-0.28761202 -0.6802067 0.67423904 
-0.44804728 -0.8791563 -0.1622895 
-0.3640593 0.2746252 -0.8899674 
-0.7122376 -0.13946177 -0.6879448 
-0.14639555 -0.5702407 -0.808328 
-0.37054634 -0.3193564 -0.8721851 
-0.080442436 -0.46242517 -0.88300174 
-0.2540352 0.33605167 -0.90693736 
0.15163764 0.93892103 -0.30892298 
0.2858437 0.6827823 -0.67238516 
0.3908755 0.24418287 -0.8874633 
0.5688031 0.3069425 -0.7630527 
0.9660805 -0.013333624 0.2578969 
0.8588117 0.025882602 0.51163715 
0.8784351 -0.0976692 0.46777397 
0.06566984 -0.26474375 0.96208024 
-0.90263045 0.39323 0.17501031 
-0.7629532 0.62929076 0.14797176 
-0.60092854 0.542556 -0.5869565 
-0.17355472 0.68449324 -0.7080592 
0.6146405 0.092255116 -0.783394 
0.17356767 0.55548555 -0.81320983 
0.79710555 -0.23068106 0.5580403 
0.71619374 -0.5818554 0.38537112 
0.4102201 -0.2274925 0.88315725 
-0.17874913 0.67411596 0.71667045 
-0.6380977 0.5644649 0.5236513 
-0.39348632 0.016180957 0.919188 
-0.5032303 0.73135746 0.46029946 
-0.95734 0.2647336 0.11582901 
-0.8852042 -0.4455567 0.13376455 
-0.96645904 0.25594157 -0.021233898 
-0.50083774 -0.030206937 -0.8650139 
0.48691338 -0.27902558 -0.82768357 
0.6942581 -0.08706085 -0.7144412 
0.6475653 0.20667423 -0.7334474 
0.6194937 -0.0010687779 -0.785001 
0.741874 -0.14362322 -0.6549775 
0.72822845 -0.03272559 -0.68455267 
0.8936665 0.41876942 0.16122192 
0.96782786 -0.056751437 0.24512973 
0.76339895 0.3379818 0.5504457 
0.91797525 0.31926227 0.23535734 
0.343384 0.4705943 0.8127906 
0.7012505 0.44340518 0.558247 
0.26917735 0.45285803 0.84997845 
-0.3488414 0.44966242 0.8222612 
-0.01633578 0.8018133 0.5973513 
0.19381247 0.62928945 0.7526166 
-0.044343457 0.9393832 0.33998942 
-0.25218794 0.9515466 0.17595585 
-0.55462486 0.6337025 -0.5392702 
-0.4688982 0.5924866 -0.6550527 
-0.11442872 0.91721046 -0.3816164 
0.43887478 0.7986591 0.4117433 
-0.010409537 0.9232767 0.38399467 
-0.5440285 0.78172237 0.30486554 
-0.34861046 0.934786 -0.06816028 
-0.14213769 0.77067244 -0.62117714 
0.10739571 0.7192835 -0.6863654 
-0.24301031 0.9595182 0.14237636 
-0.15391628 0.9808787 -0.11910866 
0.76826537 0.63797563 0.052493256 
0.27006057 0.39938992 0.87610215 
0.050555374 0.721582 0.69048077 
0.46610937 0.52461576 0.7124047 
0.8597079 0.29420272 0.41754916 
0.24708039 0.80428666 0.540439 
-0.026354792 0.9639508 0.26477206 
-0.16365115 0.9534831 0.25315678 
-0.01657599 0.67649555 0.73626024 
0.49501684 -0.18894015 0.848092 
-0.13827838 -0.12866049 0.9820008 
-0.6360072 0.48256457 0.60218465 
-0.6232443 0.55585486 0.5500837 
-0.5751117 0.18222897 0.7975207 
-0.8315441 -0.28601983 0.47615886 
-0.79497206 -0.54703283 0.26224935 
-0.7810643 -0.39444888 -0.48409593 
-0.49320891 -0.25435555 -0.8318944 
-0.22336088 -0.25963452 -0.93952113 
0.3365648 0.35952008 -0.8703273 
0.97800326 -0.18786371 0.09064716 
0.67162937 -0.6249646 0.39791125 
0.69980675 0.53365 0.47485605 
-0.16848236 0.2553275 0.95206183 
-0.5103872 -0.4454938 0.7355544 
-0.020778647 0.029048353 0.99936205 
0.056841273 0.31989163 0.9457476 
0.21631554 0.38024148 0.89923525 
0.5350682 0.1872874 0.8237873 
0.0021837687 0.75988275 0.65005654 
-0.22121938 0.9050482 0.36324885 
-0.09470795 0.9010289 0.42329365 
0.028762238 0.8079231 0.58858573 
-0.5220488 0.78173167 -0.34111705 
0.068857424 0.9976165 -0.0044830157 
-0.3094811 0.7658347 0.56366545 
-0.706315 0.67826295 -0.20267853 
-0.7637445 0.015296439 -0.64533746 
-0.21801858 0.62450475 -0.7499745 
0.30677703 0.31951314 -0.8965485 
0.054195624 0.9769565 0.20644373 
-0.22218126 0.72484833 0.652097 
0.47122386 0.7494345 0.46507645 
0.6840259 0.6718162 0.28420353 
-0.25143293 0.79977274 0.5451102 
0.37674624 0.35233238 0.85669374 
-0.5336204 0.2330037 0.81299365 
-0.7117404 0.68297136 0.16424316 
-0.2634823 0.9502248 -0.16628268 
-0.10416915 0.8027628 -0.5871293 
0.3121833 0.94992095 -0.013852896 
0.8726599 0.47753266 0.10211414 
0.82601064 0.30525428 -0.47384197 
0.92751175 0.35160485 0.12687083 
0.67292464 0.46682894 -0.5737972 
0.5585154 0.6918793 0.4575628 
-0.2504351 -0.3399583 0.9064826 
-0.28269866 -0.13970722 0.9489802 
-0.042310245 -0.52384484 0.85076237 
-0.39220634 -0.080445215 0.916353 
-0.79524475 -0.051586017 0.60409003 
-0.8211515 -0.15956995 -0.54794866 
-0.9251638 -0.3344113 -0.17955847 
-0.7215819 -0.16073415 -0.6734124 
-0.3985023 0.4983785 -0.7699448 
-0.69615436 0.50913954 -0.5061089 
-0.27926752 0.033589706 -0.9596257 
0.029754307 -0.21772167 -0.9755573 
0.08277947 -0.14199631 -0.9863998 
0.84825146 -0.172304 -0.5007803 
0.96545625 -0.17889817 0.18944618 
0.8972243 -0.18905346 0.3990583 
0.3498331 -0.2563986 0.90104204 
0.8750456 0.2089272 0.4366287 
0.2948943 0.05766122 0.9537885 
0.0052782316 0.64851606 0.76118267 
0.32824397 -0.060065847 0.9426814 
-0.56482565 0.29978573 0.7688306 
-0.81014305 -0.001062931 0.5862313 
-0.9398344 -0.28177565 0.19316801 
-0.6461733 -0.21758692 0.7315163 
-0.91583407 -0.3304868 -0.22809306 
-0.5888168 -0.51632756 -0.6218527 
-0.5482014 -0.82861173 -0.113480374 
0.020728866 -0.6363038 -0.77116 
0.40259063 -0.59843045 -0.69267726 
0.7286529 -0.630037 -0.2685487 
0.64858615 -0.6230719 0.4371699 
0.4681606 -0.78680265 0.40220302 
0.82197946 -0.2148859 0.5274221 
0.37186745 -0.26086923 0.8908771 
-0.34494746 -0.52575886 0.77755326 
0.07595836 -0.119912475 0.9898744 
0.112554416 -0.28358406 0.95231915 
-0.36564308 0.045189705 0.9296575 
-0.65510225 -0.74672306 0.11509037 
-0.68160915 -0.41507468 -0.6025961 
-0.8841007 -0.3013882 -0.35711527 
-0.5508692 -0.7260744 -0.41153276 
0.110271744 -0.23984726 -0.9645276 
0.04982615 -0.019254968 -0.9985723 
0.1262907 0.102437586 -0.9866901 
0.99442065 -0.098668456 0.037310626 
0.91347307 -0.32234886 0.2483107 
0.83260006 0.1252262 0.53953284 
0.94797945 0.050475188 0.3143044 
0.70129395 0.44861805 0.55401146 
0.75142556 0.6516236 0.10366428 
0.27513784 0.93377715 -0.22882202 
0.48202264 0.75947005 0.43687487 
-0.7937663 0.6081758 -0.007572171 
-0.6113023 0.7206286 0.3271146 
-0.8096201 0.4855729 -0.32974872 
-0.25860706 0.65499383 -0.71000385 
0.17627573 0.42869776 -0.88608414 
0.32816878 0.8681832 -0.372241 
0.8231929 0.2739767 -0.49728283 
0.31692666 0.5841628 0.74720246 
0.44205284 0.12184998 0.88867426 
-0.41139603 -0.35207534 0.84071183 
-0.9793206 0.11276248 0.16797589 
-0.9812901 -0.08051191 -0.17489278 
-0.035137057 0.1619977 -0.98616534 
0.5982094 0.62195337 -0.50529164 
-0.39211515 0.57159984 -0.720777 
0.36650708 0.5253099 -0.76793367 
-0.054843243 -0.61419815 -0.7872439 
0.4016889 0.112145595 -0.9088837 
0.9766712 0.1381693 -0.16438553 
0.7407007 -0.43019685 0.51603603 
0.84054893 0.00016335901 0.5417356 
-0.18890849 0.27743575 0.9419888 
-0.034880508 0.32538745 0.9449373 
-0.1443387 0.627137 0.76541865 
-0.42411062 0.36462662 0.8289618 
-0.02321603 0.77546275 0.63096637 
-0.03767133 0.96580124 0.2565326 
-0.3363774 0.85760635 0.3890524 
-0.8503043 0.48786026 -0.19742107 
-0.9498247 0.18322016 -0.25350252 
-0.43483484 -0.22495247 -0.8719605 
-0.41592997 0.70510316 -0.5743098 
-0.41807076 0.7591498 -0.49890745 
-0.6065147 0.63327426 -0.4807324 
-0.47221607 0.85879195 0.19871709 
-0.3483244 0.8054256 0.47954127 
-0.46244347 0.6312284 -0.6226531 
0.2670598 0.048204478 -0.96247363 
-0.06329219 -0.14931425 -0.98676205 
0.048756596 -0.4425326 -0.89542603 
-0.32247624 -0.31370115 -0.893085 
-0.79795414 -0.55724394 0.22967051 
-0.4292635 -0.47937593 -0.7654617 
-0.39985794 -0.3121626 -0.8617821 
0.47790945 -0.3264389 -0.8155 
0.7951481 -0.60612136 0.018878233 
0.64797616 -0.37123513 -0.665065 
0.7123721 -0.6674452 -0.21689372 
0.110322 -0.049407486 -0.9926671 
0.8804054 -0.41921097 -0.22169448 
0.97657424 -0.026516031 -0.21354106 
0.99693453 -0.034949798 -0.07000111 
0.91360146 -0.2706774 0.30342415 
0.9091876 0.19002184 0.37049907 
0.5007068 0.021657795 0.86534595 
0.85398793 -0.1561587 0.49630553 
0.77422416 0.38955095 0.49882558 
0.66688925 0.24002595 0.7054405 
0.15285157 0.5748399 0.8038629 
0.2993949 0.8016248 0.51745594 
0.6433181 0.70123494 -0.30726448 
0.7732216 0.6339906 -0.013574416 
-0.095265515 0.16822197 0.9811351 
-0.73946 0.6593636 0.13578872 
-0.810654 0.55419654 0.18896165 
-0.9703768 0.23963709 -0.03070662 
-0.264159 0.7799605 -0.56734604 
-0.16583945 0.38959625 -0.9059317 
-0.25844216 -0.5303765 -0.8074086 
0.95445275 -0.24038666 0.17673202 
0.9242573 0.369583 0.09569218 
0.68340117 0.7039861 0.19330391 
0.67740524 0.7212692 -0.14454395 
0.7142292 0.63034785 0.30420098 
0.38214198 0.88248044 0.2742185 
0.4363456 0.76767844 0.46933165 
0.73098594 0.6341179 0.2520995 
0.58089584 0.2908163 0.76025385 
-0.18506381 0.5996269 0.77858776 
-0.7372996 0.029684702 0.67491347 
-0.9838833 -0.035666037 0.17521884 
-0.5994374 -0.6312767 0.49210227 
-0.6183517 -0.7667484 0.1724478 
-0.26982054 -0.952517 -0.14109713 
-0.20380257 -0.67710614 0.707101 
-0.932652 0.1690696 -0.3187095 
-0.94693744 -0.109211445 -0.3022953 
-0.29077595 -0.16441222 -0.94255936 
-0.20174278 0.56871325 -0.7974115 
-0.23311862 -0.048521087 -0.97123706 
-0.32520926 0.31291112 -0.8923709 
-0.05724977 0.6283942 -0.7757855 
-0.5158761 0.07383925 -0.853475 
-0.063297585 0.31195092 -0.94798744 
0.086654134 0.7236424 -0.68471366 
0.08001573 0.4699847 -0.87904036 
0.6360957 0.39369395 -0.66361684 
0.9788129 0.1407836 0.14867875 
0.8890858 -0.117833 0.44231406 
-0.3292222 0.62472194 0.70805043 
-0.6922207 0.5683382 0.44477224 
-0.48992255 0.8125848 -0.31572437 
-0.7478495 0.6102376 -0.2614025 
-0.2369728 0.79290766 -0.5613747 
0.6474856 -0.07397466 -0.75847894 
0.9200541 -0.24786553 -0.30341914 
0.9449437 -0.25869712 0.20039248 
0.000991015 -0.6172504 0.7867661 
-0.1823598 0.17876859 0.96684366 
-0.59873134 0.5603676 0.572284 
-0.7959166 0.20012872 0.57137144 
-0.36145973 0.9296121 0.0718914 
-0.3033555 0.8963535 0.32330465 
-0.86322486 0.3480967 -0.36561126 
-0.45508167 -0.850028 -0.26524153 
-0.8997443 0.1438564 -0.41202617 
-0.23469616 -0.16156393 -0.9585483 
0.46886587 0.02167533 -0.8830035 
0.48958728 0.35289267 -0.79735255 
-0.10921982 0.5880889 -0.8013879 
0.7981421 0.4469508 -0.40398556 
0.67590773 0.6098567 -0.41379166 
0.86609703 0.37067118 -0.33537877 
0.9171357 0.32539532 0.23017408 
0.8454962 0.24962525 0.4720418 
0.1296303 -0.01412548 0.99146175 
0.7580998 0.48276967 0.43842688 
0.63440424 -0.4322835 0.64082944 
0.5759943 -0.7278752 0.3720595 
0.30695367 -0.06391956 0.94957554 
0.82327104 0.004176308 0.56763315 
0.16066745 0.57445085 0.80261594 
0.37677866 0.6203457 0.687902 
-0.36475983 0.8094654 0.46012622 
0.3760731 0.002156652 0.9265876 
0.013286058 0.59610164 0.8027991 
-0.52366304 0.6294245 0.5741096 
-0.14997265 0.65566087 0.7400115 
0.65531856 0.233893 0.7182282 
0.16669083 0.45304668 0.87576425 
0.0203037 0.9334275 0.35819098 
0.16926172 0.98078924 0.09696928 
-0.024527328 0.96051157 -0.27715683 
0.4538882 0.7924316 -0.40747714 
0.012086947 0.9277783 0.3729361 
0.45678908 0.85599715 -0.24210037 
0.082679175 0.9295449 -0.3593194 
0.5485349 0.59367794 0.588775 
0.08033031 0.004347271 0.9967588 
0.54366726 -0.14782567 0.8261801 
0.38444066 0.77656126 0.4991574 
0.3872395 0.921979 0.00066157535 
-0.3788702 0.8052133 0.45616785 
-0.50819063 0.6642546 0.5481862 
0.40669256 0.6895746 0.59923965 
0.37161928 0.36488995 0.85367113 
-0.3193898 -0.35124058 0.8801252 
-0.15361068 -0.537021 0.829465 
-0.48803762 0.03602198 0.8720791 
-0.82992214 -0.15000239 0.5373347 
-0.8985617 0.03833662 0.43716955 
-0.6638809 -0.72600037 -0.17940342 