# OOMMF: rectangular mesh v1.0
# Segment count: 1
# Begin: Segment
# Begin: Header
# Desc: Time (s) :  3.219999999999999e-07
# Title: m
# meshtype: rectangular
# meshunit: m
# xbase: 2e-09
# ybase: 2e-09
# zbase: 5e-10
# xstepsize: 4e-09
# ystepsize: 4e-09
# zstepsize: 1e-09
# xmin: 0
# ymin: 0
# zmin: 0
# xmax: 1.024e-06
# ymax: 1.024e-06
# zmax: 1e-09
# xnodes: 256
# ynodes: 256
# znodes: 1
# ValueRangeMinMag: 1e-08
# ValueRangeMaxMag: 1
# valueunit: 
# valuemultiplier: 1
# End: Header
# Begin: Data Text
0.97519666 0.13878796 -0.17242233 
0.98485166 -0.17297646 0.012100929 
0.7759522 0.09609135 0.6234297 
-0.44710052 0.46731916 0.7627018 
-0.40034953 0.54904205 0.73367107 
-0.74853444 0.5383181 0.38718188 
-0.029731007 0.9927296 -0.11663593 
0.56028074 0.82456326 -0.07861935 
0.69467056 0.16733068 0.69959515 
0.5752273 0.47708613 0.6644565 
-2.2528064e-05 0.7394501 0.67321146 
-0.40819296 0.62979555 0.6608601 
0.338097 0.6645942 0.666337 
-0.49407864 -0.006341734 0.8693941 
-0.9977324 0.059629094 0.03121687 
-0.9916471 0.031669892 -0.12503242 
-0.3598008 -0.39077926 -0.8472515 
-0.3334525 0.19512963 -0.9223523 
0.061811734 0.30994377 -0.94874346 
-0.47151423 0.16356 -0.8665579 
-0.3790116 -0.0719357 -0.92259175 
-0.4923827 0.09570856 -0.86510074 
0.64033586 -0.63521737 -0.4318205 
0.7520604 -0.596346 -0.28067186 
0.50456935 -0.44053486 -0.742522 
-0.06166753 -0.31165078 -0.9481936 
0.40144053 -0.8345317 -0.3773625 
0.6039037 -0.03791955 0.79615486 
0.84382427 0.52769923 0.09743785 
-0.036231328 0.34112573 0.9393192 
0.15265056 0.6250387 0.76552236 
0.24391674 0.48638728 0.83900666 
0.6050695 -0.055407092 0.7942423 
0.69444495 -0.0014407608 0.7195445 
0.52579314 0.28660524 0.80087394 
-0.41637695 0.57164425 0.70700294 
0.57668877 0.6520739 0.4921684 
0.35974494 0.73848206 0.5702876 
0.44042328 0.48279446 0.756926 
-0.39518613 0.53227466 0.7486733 
-0.74159837 -0.5394921 0.39872333 
-0.5722374 -0.8040713 0.16128814 
-0.5002007 -0.8074702 0.31271565 
-0.71237755 -0.69319826 0.109519005 
-0.69387347 -0.23181628 -0.6817631 
-0.37929574 -0.7069901 -0.5969085 
-0.18218398 -0.12013975 -0.9758973 
0.22041477 -0.8725582 -0.4359584 
0.10439184 -0.41469994 -0.9039505 
0.74336225 -0.3995674 -0.5364313 
0.9251489 -0.3046294 0.22649635 
0.9059804 0.0033091027 -0.4233067 
0.19510263 -0.52277493 0.8298441 
0.3465176 0.35662413 0.86760867 
0.17494994 0.09405117 0.980075 
-0.018770054 0.20343745 0.97890806 
0.83681405 0.2468724 0.48866796 
0.23938276 0.67689097 0.6960708 
0.48154607 0.83144945 0.27713758 
0.6168357 0.4146214 0.66903126 
0.21901141 0.7759765 -0.59151894 
0.57184446 0.7534931 -0.3244104 
0.026312701 0.96269953 0.26929045 
-0.16748643 -0.22346075 0.9602154 
-0.10548912 -0.18035191 0.97792906 
-0.4100946 0.1384384 0.9014751 
-0.20864984 0.459428 0.8633604 
-0.13468768 0.13033181 0.9822794 
-0.5188922 -0.26632336 0.8122948 
-0.63032943 0.2071619 0.74817705 
-0.039258156 0.7528682 0.6569995 
-0.2919463 0.5424964 0.78769606 
-0.08485819 0.6810741 0.72728074 
-0.3767981 0.66696846 0.6427879 
-0.2588674 0.5921056 0.76315045 
-0.62405044 0.6775357 0.38923842 
0.31668836 0.8267749 -0.46492127 
0.08646137 0.705581 -0.70333487 
-0.41743958 0.89618385 0.15032904 
0.15458176 0.9843058 0.08512766 
-0.1670251 -0.23669435 0.95711994 
0.2884266 0.6090963 0.73879075 
-0.7564315 -0.013751765 0.65392834 
-0.9898451 -0.08362468 0.11495066 
-0.96192795 0.27075052 -0.037268043 
-0.8807535 -0.0517 0.47074437 
-0.8879738 -0.45931828 0.023009188 
-0.92070645 0.37725526 0.09989105 
-0.849357 0.41767952 -0.32270202 
-0.7342411 -0.01328827 -0.6787587 
-0.29101264 -0.18529417 -0.9386042 
-0.25878337 -0.43728495 -0.8612857 
0.22402382 -0.6419995 -0.7332462 
-0.20664471 -0.96179104 -0.1795997 
0.13845487 -0.9863668 -0.08894275 
-0.22659221 -0.7019511 -0.67521894 
0.24002707 -0.34687623 -0.9066774 
0.80479 -0.52262574 -0.28138134 
0.7260182 -0.44496062 -0.5243164 
0.79358053 -0.45441267 0.40464702 
0.7164789 -0.30529773 0.6272571 
0.53407276 -0.32929638 0.77867204 
0.83430403 -0.10901321 0.5404192 
0.7697925 0.17843275 0.61284685 
-0.28351933 -0.3904603 0.8758754 
-0.48929378 0.42859748 0.7595366 
-0.84449434 -0.34181923 -0.41229704 
-0.6704343 -0.41070554 0.61793107 
-0.9387433 -0.1066114 -0.32771203 
-0.86315125 -0.4880684 -0.12945788 
-0.95069283 0.30411902 0.06078455 
-0.6924111 0.112793714 -0.7126321 
-0.2672367 -0.69421536 -0.6683185 
-0.10940631 -0.24683529 -0.9628617 
-0.44692424 -0.36547044 -0.8165109 
0.60730195 -0.38451448 -0.69522154 
0.8798573 -0.4570702 0.130146 
0.9995056 -0.008233625 -0.030347824 
0.7994984 0.37998295 0.46520457 
0.7827572 0.57777566 -0.23122808 
0.49491495 0.505743 0.70659983 
-0.117439255 0.5678952 0.8146798 
0.83429176 0.28828725 0.46994427 
0.4860331 -0.03838333 0.8730972 
-0.7576463 -0.060802735 0.64982706 
-0.8962897 0.3790785 0.23013978 
-0.73830724 0.35591927 -0.57290834 
-0.78249353 0.58234626 -0.22040145 
-0.8010907 0.58414567 0.1304898 
0.5490941 0.6387255 -0.53900415 
-0.02554749 0.9899521 0.13907665 
0.21244916 0.97287315 -0.09156013 
-0.52043796 0.7434686 -0.41999862 
-0.7598964 0.64735985 0.059013654 
-0.2964763 0.8815636 -0.367352 
-0.34337288 0.40115368 -0.8492179 
-0.76202226 0.5790724 0.28982303 
-0.6061454 -0.011352893 0.7952728 
-0.89792657 0.30227894 0.31993026 
-0.9772786 -0.01654935 -0.21131223 
-0.38773847 -0.86402875 -0.3211125 
-0.56043136 -0.34515572 -0.7528508 
-0.6159283 -0.4500336 -0.6466082 
-0.00889292 -0.38246685 -0.9239264 
-0.4252579 0.66796494 -0.6107198 
-0.23884717 0.9242891 -0.29772756 
-0.77788544 0.5503688 -0.30329603 
0.41402167 0.32247204 -0.8512332 
0.14430167 0.53607404 -0.8317462 
-0.04584564 -0.043728065 -0.9979911 
0.17684703 0.9338399 -0.3109152 
0.40079087 0.37424868 -0.8362444 
0.9732009 -0.062567584 0.22128129 
0.89354736 0.41469464 -0.17205092 
0.24671866 0.37027434 0.89555955 
0.5709051 0.708622 0.41463512 
0.08330456 0.9703037 -0.22709301 
-0.5761956 0.81348217 -0.07902879 
-0.24250977 0.89738226 -0.3686384 
0.27769044 0.8426121 0.46140328 
0.22704594 0.5532241 -0.8014945 
-0.90082085 -0.41347253 -0.13252263 
0.018687697 -0.17371413 -0.9846188 
0.48208845 -0.14502032 -0.86403704 
0.5961573 -0.2736243 -0.7548021 
0.7273301 0.17077096 -0.66470176 
0.95328456 0.052242346 -0.29752213 
0.21884915 0.13219695 -0.9667622 
0.12133015 0.2319064 -0.96514165 
0.5531874 0.30493495 -0.7752409 
0.26068997 0.48885822 -0.83250123 
0.4113013 0.10110371 -0.90587497 
0.6044977 0.032296218 -0.795952 
0.5769948 -0.62274665 -0.5284541 
0.4426446 0.22490428 -0.86803454 
0.58159316 -0.3614645 -0.7287612 
0.5562467 0.68506837 0.47039467 
0.9089879 0.1475897 0.38981828 
0.6544944 -0.11944684 0.74657184 
-0.2859505 0.510975 0.8106398 
-0.012677273 0.68356943 0.7297754 
0.5166166 0.83316994 0.19732015 
0.6223833 0.7285248 0.2861654 
0.49249062 -0.1373042 0.85941875 
0.46225446 -0.825092 0.3248755 
0.88796633 -0.3991227 0.22850986 
0.5342913 -0.45502436 0.7123803 
0.16870806 -0.91643703 0.36287844 
0.16610585 -0.67275345 0.72097963 
-0.45731837 -0.75833476 0.46453032 
0.20895836 -0.82864475 0.5193115 
-0.14607686 0.06068065 0.98741055 
-0.43446615 0.507121 0.74435705 
-0.15145601 0.011746997 0.9883942 
0.23894759 0.84553665 0.47746414 
-0.16299321 0.62634975 0.7623117 
0.24061032 -0.19747093 0.9503221 
0.6791939 -0.17865488 0.7118835 
0.2784641 -0.40822643 0.86937267 
-0.90900946 0.39092126 -0.14450774 
-0.838802 0.107726425 0.5336726 
-0.85334337 0.38226998 0.35450652 
0.43471056 0.618869 -0.65423846 
0.47497115 0.7688617 -0.42808202 
0.3710615 0.69388306 -0.6171222 
0.5990011 0.64842075 0.4698386 
0.2915211 0.10827467 0.95041674 
0.31262583 -0.5570356 0.7694002 
-0.40492293 0.24330664 0.88138497 
-0.6461432 -0.7008768 0.30211058 
-0.41908365 0.39839688 -0.81587315 
-0.31628084 0.93911844 -0.13424997 
-0.54057175 0.77163714 0.33519906 
-0.47069535 0.7379137 0.48366243 
-0.6841905 -0.50670445 0.5245322 
-0.43602562 -0.6259835 0.6465496 
0.28129238 -0.84776074 0.4496402 
-0.65475345 -0.13666067 0.7433854 
-0.041328974 -0.9787217 -0.20098697 
0.036400132 -0.8068492 -0.5896351 
-0.584883 -0.7351774 0.34267488 
-0.4787511 -0.7306235 -0.48681295 
0.11078154 -0.9596311 -0.25852606 
-0.01630558 -0.99942684 -0.029667407 
0.26694825 -0.84191465 0.46895453 
-0.713688 -0.23606482 0.6594868 
-0.9504766 0.019038994 -0.31021246 
-0.5794324 -0.35077032 -0.73567545 
0.09777773 0.3289103 -0.93928564 
-0.13954027 -0.01824041 -0.9900484 
0.28292412 -0.5816156 -0.7626778 
0.44021177 -0.8411588 -0.31411093 
0.43082258 -0.49328348 -0.7556875 
0.65547395 -0.2384493 -0.71658623 
0.98663545 0.109312095 -0.12083686 
0.17154483 0.9824778 0.07286885 
0.8616025 -0.0016031583 -0.50758135 
0.70992255 0.64993656 -0.27127945 
-0.22710375 0.83883524 -0.49475205 
0.058423657 0.73707837 -0.6732772 
0.01534023 0.9344347 -0.35580418 
0.56869537 0.63928735 -0.517588 
0.6789275 0.27457294 -0.68093115 
-0.008230111 0.86747015 -0.4974213 
-0.51859236 -0.39823058 -0.7566203 
-0.668188 -0.2454528 -0.7023373 
-0.61647534 -0.23407756 -0.75177515 
-0.8773721 -0.31260127 -0.36400393 
-0.11017081 -0.21564017 -0.97023803 
-0.32853264 -0.67475605 -0.6608862 
-0.7219985 -0.20611207 -0.66048163 
-0.278314 -0.26181534 -0.9241181 
-0.90451443 0.09567317 -0.41557252 
-0.6730144 -0.43397793 -0.5989281 
-0.83069485 0.34325877 -0.43831435 
-0.1966051 -0.09079649 -0.9762697 
0.82827014 0.16746205 0.5347196 
0.7484174 0.47474748 0.4631267 
0.44536516 0.12840934 0.88609314 
0.046184767 0.3135234 0.94845676 
0.47859102 0.68424886 0.5502311 
-0.244135 0.9114542 0.33113346 
-0.49559942 0.8112879 0.31015038 
0.24692796 0.82380164 0.5102721 
-0.080130644 0.7657622 0.63811237 
0.13446079 0.46009195 0.87763083 
-0.18507177 0.47578576 0.8598701 
0.025065802 0.9213575 0.38790745 
-0.37949833 0.5904549 0.7122809 
-0.8645939 -0.4593457 0.20366356 
-0.9345707 -0.28284883 0.21581063 
-0.94827247 0.22603887 0.22290298 
-0.91631603 -0.22698362 0.3299143 
-0.31791118 -0.37257046 -0.87185085 
-0.4290448 0.54789054 -0.71814805 
-0.19171943 0.3707501 -0.90872884 
-0.122548796 0.1222575 -0.9849035 
0.13002923 -0.055840135 -0.9899366 
0.6669998 -0.17967798 -0.7230678 
0.16693014 -0.76471925 -0.6223656 
0.22958587 -0.38176927 -0.8952891 
0.20716535 -0.21726371 -0.95387584 
0.4101564 -0.8060971 -0.42659006 
0.9725896 0.0058762124 0.23245436 
0.5463929 0.12243643 0.8285313 
0.4334411 -0.13713647 0.8906866 
0.25429448 0.55479753 0.79217046 
0.43194973 -0.12019608 0.89385265 
0.18016098 0.056693077 0.9820021 
0.42344823 0.08562423 0.9018648 
-0.18456618 -0.14699584 0.97176516 
-0.8283705 -0.227593 0.5118631 
0.0539188 0.5191386 0.85298765 
-0.0057329237 0.7536602 0.6572394 
-0.35931918 0.12148853 0.92527306 
-0.21182641 0.27218813 0.93863904 
-0.91069263 0.22796075 0.34448928 
-0.56287646 -0.7569453 0.33196983 
-0.8306203 -0.54211587 0.12720278 
-0.9587325 -0.01794363 -0.28374317 
0.07206443 -0.07436503 -0.9946239 
0.13300602 -0.6959536 -0.7056615 
0.44826853 -0.23270981 -0.86307687 
0.06360031 0.03537876 -0.9973482 
0.46823385 0.15119545 -0.8705729 
0.9214669 -0.1677634 -0.35036305 
0.91472036 -0.2665496 0.30370706 
0.44704574 -0.1490934 0.88199854 
0.17274007 -0.55286163 0.8151717 
0.008744032 0.121187605 0.9925912 
-0.526158 -0.4150347 0.74222904 
0.28891337 -0.32611516 0.90009886 
0.5630211 -0.30292585 0.7689234 
-0.14910066 0.5689138 0.80876833 
-0.0014254518 0.9760526 -0.21753033 
0.006502872 0.9891318 -0.14688799 
-0.14584339 0.4745443 -0.86806536 
-0.2550675 0.77891713 0.5729126 
0.041704 0.878602 0.47573018 
0.0768876 0.1944083 0.97790277 
-0.4996842 0.6684073 0.5509515 
-0.82884634 0.36239192 0.42624614 
-0.5033248 0.16104259 0.8489579 
-0.27663782 -0.45394936 0.8469956 
0.095060125 -0.6584738 0.7465761 
-0.06727096 -0.0017460292 0.99773324 
-0.42561626 0.89870495 0.10573675 
-0.37661 0.7986112 0.4694519 
-0.16857827 0.4005943 0.9006141 
0.16412915 0.6479023 0.7438308 
0.62886876 0.28029618 0.72522974 
0.1444726 0.45668688 0.87781817 
0.4376835 0.14220871 0.8878119 
0.39029127 0.3567077 0.8487829 
0.69596034 -0.11403201 0.7089682 
0.30026445 -0.46970502 0.83019185 
0.7815353 -0.24383356 0.57423675 
0.37075895 0.1597375 0.914889 
0.22405824 -0.3609401 0.90527356 
-0.5574325 0.5105257 0.65470046 
-0.66808546 -0.30039337 0.68075377 
-0.9316371 -0.12805529 0.34007967 
-0.9691467 0.24210675 -0.046251066 
-0.61381024 0.16380285 -0.77227306 
-0.86733145 0.16885781 -0.4682129 
-0.6587606 0.731473 -0.17601638 
-0.5011628 0.5466631 -0.6708169 
0.25803438 -0.07853235 -0.96293867 
0.2200403 -0.22143513 -0.95002574 
0.11390219 -0.5794582 -0.8070035 
-0.52533096 -0.579065 -0.623467 
-0.29823044 -0.92431843 -0.2381053 
0.29023924 -0.95217675 -0.09550237 
0.6387364 -0.7691062 -0.02217131 
0.96051717 -0.2240028 -0.16501427 
0.9885627 -0.13176191 -0.07336736 
0.020641312 -0.33463362 0.9421222 
0.8884292 -0.13853374 0.4376095 
0.5547392 0.25830323 0.79091346 
0.5554931 0.30390525 0.77399546 
-0.42330214 -0.27522138 0.86317354 
-0.8091185 0.05641604 0.5849312 
-0.94705576 -0.09565922 -0.30648777 
-0.9965704 0.033591975 -0.07562437 
-0.75983846 0.6480484 0.051758703 
-0.7917825 -0.18926977 -0.5807387 
-0.76682544 -0.57173866 -0.29170802 
-0.5100685 0.051695816 -0.858579 
-0.7931817 -0.52726096 -0.3047274 
-0.14630377 -0.7285877 -0.66914517 
-0.31925613 -0.040810075 -0.94678944 
0.80965006 -0.4661939 -0.3565531 
0.63609356 -0.7607511 0.12900735 
0.6047556 -0.5160836 0.60657114 
0.764963 -0.2416411 0.59702706 
0.5371128 0.7092891 0.45652935 
-0.009594591 0.4427756 0.8965812 
0.486841 -0.07750285 0.87004554 
-0.0031957694 0.19355956 0.9810834 
0.3465591 -0.56452096 0.7491415 
-0.54313225 -0.15262058 0.82566 
-0.76838547 -0.11309112 0.6299161 
-0.55685854 0.8153556 0.1584422 
-0.34788904 0.6934777 -0.6309215 
-0.8291257 0.21542703 0.51588947 
-0.59343356 0.7531002 -0.28403643 
-0.11886499 0.6837654 0.7199556 
-0.061510395 0.7670556 0.6386252 
0.3269367 0.8358415 0.44100046 
0.016828848 0.95229673 0.30470964 
-0.4264711 0.9022748 0.0634256 
-0.15061218 0.9722934 0.1787783 
-0.99757344 0.055968482 -0.041409492 
-0.9732234 -0.068419054 0.21944283 
-0.73439795 0.5397782 -0.41145995 
-0.9731961 0.22965318 -0.01220221 
-0.83987343 -0.033692356 -0.5417357 
0.061850533 0.20975655 -0.97579545 
-0.21627335 0.6763807 -0.7040845 
-0.10207214 0.4291171 -0.8974631 
-0.55196095 0.42639598 -0.716607 
0.22068396 0.77586144 -0.59104806 
0.1718177 0.94122493 -0.29081658 
0.08518484 0.7639154 -0.6396693 
-0.16522944 0.77954924 -0.60415417 
0.15867351 0.57718426 -0.80105007 
0.578814 0.80581516 -0.12504552 
-0.17118251 0.8492293 -0.49950597 
-0.03364207 0.8022292 -0.59606755 
0.5145328 0.7901335 0.3330842 
0.14042503 0.6647789 0.73372334 
0.036656708 0.6004723 0.79880506 
0.18392102 0.96097285 0.20665014 
-0.7248827 0.429066 -0.53893185 
-0.39552066 0.89763755 -0.1944487 
-0.30491826 0.81862247 -0.4867053 
-0.44643238 0.6172775 -0.6478169 
-0.8749534 0.46070173 -0.14903155 
-0.2517023 0.73595476 -0.6285034 
-0.08943731 0.7584424 -0.64557433 
0.743171 0.6568373 -0.12752157 
0.6354486 0.7067444 -0.3109946 
0.5508793 0.5881778 -0.59209716 
0.54175055 0.65201014 -0.5304613 
-0.15335853 0.6039922 -0.7820963 
0.23421122 0.6211249 -0.74789643 
0.0669785 0.85914594 -0.5073285 
0.7408239 0.2594213 -0.6195809 
0.5154131 0.48225442 -0.7083644 
0.5922612 0.11356145 -0.7977032 
0.38597503 0.21472809 -0.8971706 
0.85532403 0.2828648 -0.4340603 
0.35543835 0.89260405 -0.27734765 
0.70055884 0.4951106 0.51388997 
0.3544727 -0.32574475 0.8764928 
0.11362479 0.53091216 0.83977485 
-0.6851483 -0.31916812 0.65475464 
-0.3779888 0.4321472 0.8187632 
0.55013496 0.60995233 0.5703594 
-0.042810276 0.14060692 0.9891395 
0.17177714 -0.9297116 0.32577437 
0.029130954 -0.85496086 0.51787406 
0.13854814 -0.7629638 0.63141966 
0.23876895 -0.8767194 0.41755548 
-0.1687321 -0.59736663 0.7840171 
-0.52368265 -0.6087854 0.59593356 
0.3651842 -0.49621758 0.7876603 
0.07993037 0.03178764 0.9962935 
0.08998534 -0.54623085 0.83278733 
0.11472707 -0.30144536 0.94655615 
0.27592534 -0.5380122 0.7964974 
-0.49116775 -0.1089632 0.864223 
0.10700632 -0.9101317 0.4002625 
-0.07947747 -0.60659564 0.79102784 
0.1259653 -0.011029514 0.99197334 
0.14637022 0.07115158 0.98666775 
-0.54968727 0.5386711 0.63849616 
0.18450643 0.95247215 -0.24239275 
0.5424842 0.83311206 -0.10786713 
0.23428267 0.73064584 -0.6413021 
0.3591512 0.92572814 -0.11848147 
0.6111765 0.40703496 0.6788122 
0.3217044 0.2873667 0.90217894 
-0.035968706 -0.12876844 0.9910222 
-0.8226654 0.4278389 0.3744002 
-0.5459125 0.49708897 -0.6744495 
-0.44437885 0.5844118 -0.67896277 
-0.63798517 0.59868443 0.48430565 
-0.7255338 0.6860552 0.054121334 
-0.8774063 0.47481018 -0.06865557 
-0.97607136 -0.18091682 0.12063909 
-0.70295656 -0.7102013 0.038292106 
0.27151638 -0.80536026 -0.5269477 
-0.22932485 -0.9389864 0.25634885 
0.30931878 -0.9509237 -0.008139283 
0.30614716 -0.94089216 -0.14489979 
0.06911618 -0.9528312 -0.29552594 
-0.29274383 -0.66842395 -0.6837474 
-0.1144686 -0.9246268 -0.36326596 
0.2270472 -0.95322144 -0.19954574 
0.023065636 -0.99357367 0.1108122 
-0.80782235 -0.349105 -0.47491977 
-0.9811612 0.19093677 -0.029426847 
-0.37570822 -0.22511381 -0.8989811 
0.3728841 0.5847383 -0.7204434 
0.15526727 0.50255585 -0.850488 
0.37543413 -0.13175581 -0.9174365 
0.903482 0.22523725 -0.36467573 
0.39843577 0.359713 -0.8437154 
0.7283385 0.3560341 -0.58545953 
0.93681073 0.2631112 -0.23056076 
0.77204204 0.61467105 0.16164987 
0.382195 0.107333794 -0.917827 
0.5986875 0.7416897 -0.30243972 
0.20021918 0.7954019 0.5720561 
-0.4245957 0.32944307 0.84331834 
-0.5809922 0.7745686 -0.2499835 
-0.096225455 0.71358097 -0.69393295 
-0.3640701 0.7569215 -0.5426995 
-0.16715586 0.52941936 -0.8317296 
-0.5803962 0.10509088 -0.80752486 
-0.5914543 0.22747229 -0.7735879 
-0.41732144 0.19003567 -0.8886672 
-0.63319993 -0.03689754 -0.77310836 
-0.85382456 -0.26891533 -0.4457221 
-0.72146845 -0.45158938 -0.52492887 
-0.449547 -0.12276637 -0.8847802 
-0.78695697 0.016311405 -0.6167922 
-0.2074176 -0.07465218 -0.9754 
-0.4282663 -0.4448834 -0.7865537 
0.21280083 0.6525272 -0.72727174 
-0.57201374 0.8195229 0.034388766 
0.8486862 0.37474602 0.37322542 
0.7381612 0.42130893 0.5268936 
0.05432746 0.1944454 0.9794077 
0.6047776 0.1757458 0.776761 
0.8299376 0.17361872 0.5301511 
0.12196152 0.7388209 0.66277385 
-0.64448243 0.64860225 0.40491685 
0.10824195 0.10403514 0.98866606 
-0.26701725 0.11102462 0.957275 
0.08308664 -0.5325431 0.842315 
0.04829657 0.33879784 0.9396189 
-0.22643766 0.5038057 0.8336102 
-0.8068641 0.47050187 0.35720903 
-0.63472337 -0.77270824 0.0069501298 
-0.8345313 -0.18063405 0.5205083 
-0.9680631 0.1322269 0.21300215 
-0.87285346 -0.06215132 0.48400837 
-0.8600083 -0.48365298 -0.16268249 
-0.65450567 -0.107359834 -0.7483958 
0.0007191614 0.03616442 -0.9993456 
-0.038456686 -0.029061249 -0.99883765 
0.24896713 0.7116239 -0.65696794 
-0.048953917 0.34545663 -0.93715703 
-0.32941756 0.3411013 -0.88041705 
0.36559787 0.14712614 -0.91907144 
0.5553543 -0.35179883 -0.7535379 
0.99404705 0.0971407 -0.049336344 
0.7158919 -0.3819389 0.58448404 
0.865194 -0.09348891 0.49264517 
0.50963783 0.0125022475 0.8602982 
0.310669 0.110236764 0.9441042 
-0.11097334 0.38550448 0.9160083 
0.47077936 -0.36724815 0.8021817 
-0.45337775 0.066908754 0.88880366 
-0.4446757 -0.53023416 0.7218831 
-0.7900072 0.009066887 0.6130307 
-0.11995432 0.19985278 0.9724556 
-0.3800161 0.23348723 0.8950261 
-0.7154253 -0.019419685 0.69841933 
-0.35296175 -0.013748116 0.93553674 
-0.7733515 -0.2222128 0.59375834 
-0.7842009 -0.52095765 0.33709362 
-0.70004994 -0.5866974 -0.4070827 
-0.88547075 -0.14344007 -0.4420029 
-0.14107215 -0.05750129 -0.98832804 
0.84318507 0.16437739 -0.511878 
0.6773198 -0.17707852 -0.71405965 
0.4198529 0.12322077 -0.8991887 
0.58971184 0.25214544 -0.7672436 
0.8407974 0.51054424 -0.18001251 
0.8637785 0.3768584 0.33446136 
0.78139216 -0.0076296125 0.6239937 
0.8255803 -0.19721858 0.52869844 
0.42210168 -0.30334994 0.85428864 
0.2659819 -0.025224319 0.963648 
0.13037539 -0.17707765 0.9755234 
0.6218401 -0.21909544 0.75187236 
-0.14264353 -0.068705685 0.98738664 
0.1767242 0.79768944 0.5765937 
-0.10918979 0.563035 0.8191882 
0.2931772 0.95571303 0.025684623 
-0.58577627 0.54010785 0.6042762 
0.043426022 0.7730727 0.6328293 
0.39161223 0.40722728 0.82510966 
0.41301626 0.5221641 0.74616504 
-0.5651591 -0.26743013 0.7804334 
-0.44940937 -0.5773516 0.6816865 
0.23255906 -0.13641596 0.9629679 
0.34625745 -0.6289934 0.69604105 
-0.123640165 -0.14787276 0.98124754 
-0.31506586 0.037629467 0.9483236 
-0.22737518 0.27433077 0.9343678 
-0.30792415 0.42122403 0.85308444 
-0.18643832 0.4046347 0.8952718 
0.18248746 0.32788244 0.92692584 
0.044007912 0.11007521 0.9929486 
0.26483265 -0.4436045 0.85620016 
0.65741503 -0.5111962 0.5536099 
0.27309924 -0.47603095 0.83594936 
0.59656006 -0.18568558 0.7807925 
0.27241337 -0.29304713 0.91646844 
0.9064809 -0.12229364 0.40414944 
0.7304915 0.3532344 0.58447206 
-0.12930736 0.8231695 0.5528758 
-0.7931274 -0.4016151 0.45788032 
-0.8014881 -0.11399076 0.58704597 
-0.34323463 0.90974855 0.23355436 
-0.7496771 0.60500294 -0.26824558 
0.18441254 0.9319862 -0.31207985 
-0.28477052 0.9465523 -0.15147471 
-0.13456267 0.97617114 -0.17024401 
-0.20720828 0.7610819 -0.6146699 
-0.4437984 0.15505658 -0.88261014 
-0.203844 -0.36291844 -0.9092513 
0.03527904 -0.61436 -0.7882368 
-0.21766812 -0.92612094 -0.30809173 
0.13460232 -0.84888434 -0.5111532 
0.23908849 -0.9296216 -0.28042918 
0.80631286 -0.16307332 0.5685655 
0.9721876 0.17976299 0.15012199 
0.44229567 -0.34174085 0.8292091 
0.8347242 -0.1766796 0.5215553 
0.67615664 -0.042720295 0.7355184 
0.11512271 -0.2449277 0.96268237 
-0.44469017 -0.2222802 0.86766475 
-0.9671997 -0.061316844 0.24650563 
-0.8608113 -0.06572214 0.50466275 
-0.98749685 -0.1347017 0.08188699 
-0.75694454 -0.20605819 -0.62014115 
-0.7105619 -0.006220932 -0.70360726 
-0.71856844 -0.19253674 -0.6682732 
-0.29071522 -0.45944047 -0.839285 
-0.43191412 -0.5132106 -0.7416638 
-0.06316697 -0.4833964 -0.8731197 
0.10127787 0.39225528 -0.91426396 
0.9927785 -0.040107436 -0.113058634 
0.77463216 -0.44990212 0.4444471 
0.8455528 -0.37318507 0.38180283 
0.46259227 -0.870214 0.1695171 
0.90230316 -0.0146092875 0.43085465 
0.5481968 0.10398124 0.8298603 
0.77764887 0.10784423 0.61938024 
-0.08843722 0.27076352 0.95857507 
0.44497353 -0.08291545 0.891697 
-0.360431 0.1140133 0.9257919 
-0.5412519 0.11789886 0.83255416 
-0.4255189 0.23319562 0.87438756 
-0.29907668 0.9505934 0.08321808 
-0.3295673 0.6147079 0.71660286 
-0.07139739 0.9688462 0.23714864 
-0.23322447 0.7402262 0.63061213 
-0.32145873 0.4274058 0.8449785 
-0.13184243 0.69103533 0.71069527 
-0.016588733 0.8749573 0.48391593 
-0.17276631 0.71330243 0.6792286 
-0.37272367 0.9106872 0.17811808 
-0.8889506 -0.17378071 0.4237537 
-0.95041966 0.12740062 -0.2836751 
-0.8631233 0.49125966 -0.11697017 
-0.9246021 0.32342324 -0.201267 
-0.699156 0.55544204 -0.45018348 
-0.8226044 0.4381912 -0.36236787 
0.22412439 0.73018074 -0.6454489 
0.5314755 0.5437914 -0.64948046 
0.15531088 0.96482915 -0.21209282 
0.2847241 0.82513595 -0.48793745 
0.09716086 0.7929038 -0.60155094 
0.84846 0.43397906 -0.3029483 
0.78911775 0.58590674 -0.18440856 
-0.12914439 0.8727629 -0.47075137 
-0.46923625 0.8735134 0.12958317 
-0.33558747 0.7328347 0.5918906 
-0.006644502 0.9862957 -0.16485347 
0.4233716 0.8999161 0.10443883 
0.72436106 0.5167359 0.45638275 
0.16218674 0.98346156 0.08061496 
-0.30090016 0.9536368 0.005999184 
-0.6502768 0.7592456 -0.026195487 
-0.24159943 0.9649193 -0.10276401 
-0.40014443 0.6588656 0.63700914 
-0.19156286 0.8504845 0.48987743 
-0.73220634 0.681052 0.006484007 
-0.08870506 0.9154241 -0.3925943 
0.48524642 0.56368315 -0.668429 
0.83436894 0.5393421 0.113748625 
-0.62060684 0.6992075 -0.3549029 
-0.040121198 0.9771719 -0.20862783 
-0.24953194 0.66181266 -0.7069214 
0.06300527 0.59035355 -0.804682 
0.3702046 0.65487635 -0.6588517 
0.36520267 0.9193053 0.14664507 
0.36309308 0.5404911 -0.7589683 
0.802565 0.20706666 -0.55947554 
0.91219395 0.310856 -0.2669657 
0.77921367 0.62666416 0.010874721 
0.8914469 0.43940833 -0.110647954 
0.8119294 0.4605991 0.3586353 
0.72747546 -0.29504558 0.6194575 
0.24023531 -0.8074572 0.53879476 
0.9712796 -0.14650251 0.18749139 
0.29941323 -0.64146835 0.70630735 
0.07295841 -0.53059363 0.84448063 
-0.27300248 -0.12862644 0.9533755 
-0.47125074 0.014449998 0.8818809 
-0.5123939 -0.82033026 0.25399 
-0.50162387 -0.7718298 0.39070776 
0.073307574 -0.9972076 0.014251892 
0.14335501 -0.88718075 0.43858838 
0.37006354 -0.7575529 0.5377422 
-0.083615355 -0.98494554 0.15129708 
0.52932334 -0.5641569 0.6336749 
0.02399848 -0.7095728 0.70422345 
0.35049465 -0.78230006 0.5149371 
0.6451047 -0.76409125 -0.0021726517 
0.68281126 -0.6057041 0.4085233 
0.6256019 -0.36192492 0.6911097 
0.7057802 -0.70841956 -0.004014368 
0.49259505 -0.6588728 0.56853926 
0.46970582 -0.15974924 0.86824924 
-0.7153573 0.16351224 0.6793583 
-0.17416942 0.8404712 0.5131015 
-0.33697525 0.9407125 -0.0388306 
-0.213947 0.95430624 0.20862979 
-0.2687262 0.93102145 -0.24695197 
-0.17255382 0.8474644 0.5020252 
0.24358866 0.75784004 0.6052629 
-0.23640287 0.3607202 0.90221655 
-0.043074336 0.5282969 0.8479665 
-0.7361119 -0.048566535 0.6751152 
-0.8915613 0.29217598 -0.34605172 
-0.47915763 0.8535685 -0.20452094 
-0.7219253 0.616896 0.3134699 
-0.79607457 0.513284 0.320632 
-0.9260239 0.3417498 0.16027084 
-0.95412445 -0.28665817 0.08645078 
-0.88135666 -0.45761076 0.11748582 
-0.49714202 -0.18046881 -0.84869367 
0.21114905 -0.687098 -0.6952068 
0.39767826 -0.38663182 -0.83208644 
0.2594373 -0.9124063 -0.31655484 
-0.39329565 -0.853815 -0.34105492 
-0.2705689 -0.5614068 -0.78205824 
-0.02349755 -0.50426984 -0.8632264 
0.28706044 -0.69055194 -0.6638783 
0.24091633 0.106179245 -0.96472037 
-0.040230166 0.38534975 -0.9218933 
0.111348495 0.5403097 -0.83406645 
0.23564917 0.30763495 -0.9218624 
0.22064263 0.45309845 -0.8637237 
0.5732459 0.49675566 -0.651631 
0.33936563 -0.07636613 -0.93754965 
0.6869754 0.046129 -0.72521514 
0.89056677 0.26410037 -0.37032685 
0.99911034 -0.0012358644 -0.04215471 
0.4535991 0.61931056 -0.6408606 
-0.41856015 0.40775526 -0.8115068 
-0.102759205 0.5592941 -0.8225757 
0.48519793 0.8742153 -0.018188644 
0.16188543 0.9482418 0.27318618 
-0.046402287 0.43921703 0.89718187 
-0.74314976 0.19218439 0.6409319 
-0.8957862 0.42790648 0.12026321 
-0.7507696 0.65158457 -0.10854802 
-0.85408455 0.49097994 -0.17169224 
-0.89908576 0.3828699 -0.2122632 
-0.1488561 0.9605635 -0.23486108 
-0.39903638 0.5711715 -0.71730965 
-0.08662275 0.70462567 -0.70427215 
-0.51920825 0.46900225 -0.7144647 
-0.3914132 0.7319816 -0.5576727 
-0.44039387 0.098891795 -0.8923417 
-0.18973778 -0.24041834 -0.95194465 
-0.19688044 0.55606574 -0.8074832 
-0.15425926 -0.1015724 -0.98279566 
0.1383495 -0.5115498 -0.8480426 
0.7442593 0.6606492 -0.098086216 
0.5923087 0.4827797 0.64505374 
0.12274673 0.50147057 0.8564231 
-0.32188612 0.19526762 0.92642325 
0.551471 -0.049873285 0.832702 
0.3239023 0.4723349 0.8197482 
0.5263099 -0.16197847 0.83472204 
-0.51218903 -0.0013930559 0.8588717 
-0.18682969 0.2751597 0.9430705 
0.16340873 0.008954953 0.9865178 
-0.26470083 -0.3736933 0.8889808 
0.12526105 -0.27455825 0.95337695 
-0.19691074 0.39973983 0.8952287 
-0.465966 0.5881229 0.66105014 
-0.9180383 -0.28075254 0.27997106 
-0.81788063 0.17476073 0.5482062 
-0.91491854 0.17923531 0.3616613 
-0.97528285 -0.1924074 0.10864044 
-0.9143152 -0.33159614 -0.23253323 
-0.9728154 0.20346263 -0.11060429 
-0.48723447 0.5813753 -0.6516175 
0.48068154 0.08366544 -0.8728949 
0.7210774 0.4955816 -0.4841966 
0.30698174 0.4863433 -0.8180663 
0.21302049 0.38210797 -0.8992306 
0.46632475 0.4830826 -0.7410618 
0.10278001 0.79248667 -0.6011666 
0.5004012 0.13189988 -0.85568756 
0.95999867 -0.27359578 -0.05956445 
0.79467577 -0.60703254 -0.0013843803 
0.884277 -0.10899102 0.4540652 
-0.13439944 -0.8014284 0.5827946 
-0.5550685 -0.38666138 0.73647267 
0.48929882 0.2928411 0.8214809 
-0.32350767 0.11331244 0.9394164 
-0.37291852 -0.049372077 0.9265496 
-0.52130574 -0.44256693 0.7296402 
-0.5757224 -0.40142834 0.7123195 
0.53925025 -0.30120686 0.7864373 
-0.75857335 0.333001 0.56006855 
-0.51852214 -0.038413707 0.8542009 
-0.23904671 0.49928135 0.8328115 
-0.92348796 0.26674885 0.2757082 
-0.7560443 0.4018894 -0.5166061 
-0.73005676 -0.5582832 -0.39412817 
-0.3576547 0.3593437 -0.8619485 
0.43191838 0.81054676 -0.39555106 
0.72561145 0.21002121 -0.6552703 
0.72347015 0.0726695 -0.6865204 
0.8172493 0.4583091 -0.3493657 
0.26095176 0.88433886 -0.3871032 
0.7618164 0.5814308 -0.28561154 
0.5861628 -0.07549554 0.80666816 
0.56876135 0.24235041 0.78598785 
0.76927906 -0.3640895 0.5250226 
0.107132465 0.15417941 0.9822176 
0.16908833 0.42637104 0.8886039 
0.33850843 0.43118024 0.83635855 
0.33095688 0.13556245 0.9338578 
-0.5193115 0.7245724 0.45311198 
-0.3929441 0.91142225 0.12208371 
-0.36561447 0.75487876 0.5445037 
0.2079437 0.8206876 0.53219473 
0.3638744 0.6220044 0.6933297 
0.38771012 0.3162056 0.8658493 
0.34597126 -0.3141746 0.88408047 
-0.339903 -0.0042340024 0.94045097 
-0.20495781 0.03693812 0.97807354 
0.19834997 -0.4100252 0.8902454 
-0.07868561 -0.9656981 0.24745868 
-0.15213588 -0.64915997 0.74528253 
-0.50274634 -0.83285093 0.2315285 
0.0018021829 -0.94456846 0.3283098 
-0.6621021 0.012621451 0.7493074 
0.033518963 -0.267192 0.96306026 
-0.012841905 -0.04476076 0.99891526 
-0.27193525 -0.43794253 0.8568884 
-0.51181483 -0.8498277 0.12585151 
0.70378697 -0.6270307 -0.3339408 
0.7216651 -0.5608601 0.405753 
0.65172994 -0.4702552 0.59506994 
-0.3499556 -0.06837238 0.9342679 
0.12076265 -0.8602029 0.49544683 
-0.1444416 -0.31579918 0.9377673 
0.3268462 0.44979408 0.831178 
0.11515999 0.32670406 0.9380846 
-0.23670994 0.7693808 0.5933141 
-0.42897052 0.8317952 0.35228 
-0.49908334 0.59643674 0.6286327 
-0.42867303 0.550577 0.7163131 
-0.9919415 0.123196475 -0.02957576 
-0.6502952 0.5894838 -0.479192 
-0.7305992 0.6286546 -0.2664926 
-0.7951772 0.3561072 -0.49079606 