# OOMMF: rectangular mesh v1.0
# Segment count: 1
# Begin: Segment
# Begin: Header
# Desc: Time (s) :  3.4e-07
# Title: m
# meshtype: rectangular
# meshunit: m
# xbase: 2e-09
# ybase: 2e-09
# zbase: 5e-10
# xstepsize: 4e-09
# ystepsize: 4e-09
# zstepsize: 1e-09
# xmin: 0
# ymin: 0
# zmin: 0
# xmax: 1.024e-06
# ymax: 1.024e-06
# zmax: 1e-09
# xnodes: 256
# ynodes: 256
# znodes: 1
# ValueRangeMinMag: 1e-08
# ValueRangeMaxMag: 1
# valueunit: 
# valuemultiplier: 1
# End: Header
# Begin: Data Text
0.5784896 0.19802102 0.7912885 
0.2615764 0.6161525 0.7429226 
0.05478592 0.59941345 0.7985625 
-0.78037596 0.0047129216 0.62529296 
-0.810227 0.5121361 0.28504202 
-0.99447083 0.07201976 -0.07642625 
-0.50994724 0.20074214 0.8364548 
-0.6448163 -0.2311591 0.7285447 
-0.64727557 0.09451541 0.75637364 
-0.91760886 0.3935528 -0.055769037 
-0.6094191 0.29186285 -0.7371733 
-0.45398495 0.043622717 -0.889941 
-0.25649157 0.17039 -0.9514091 
0.35268855 -0.051280353 -0.93433464 
-0.13181494 -0.59326524 -0.79414177 
-0.8396608 -0.21656688 -0.4980649 
-0.2156538 0.53453255 -0.8171711 
-0.186556 -0.13774206 -0.9727405 
-0.07367366 0.93972486 -0.33390027 
0.47193167 0.03104108 -0.8810885 
0.24218266 0.22257845 -0.944355 
0.42596173 0.679906 -0.59689575 
0.7283029 -0.6506109 -0.21512878 
0.92797387 -0.058321055 -0.36805323 
0.51191056 0.83493745 -0.2020573 
-0.028605213 0.77625245 0.629773 
-0.79040825 0.5860027 0.17848155 
-0.57464284 0.6497486 -0.4976067 
-0.30624115 0.7940422 -0.5250842 
-0.5746266 0.7454937 -0.33770332 
-0.09881582 0.47171834 -0.8761948 
0.12054856 0.0029142213 -0.9927032 
0.7896095 0.3234961 -0.521409 
0.8397034 -0.2940855 -0.4565217 
0.8685948 0.05147102 -0.49284264 
0.6652781 0.62260133 -0.41203487 
0.6373609 0.45503762 0.6218617 
0.742287 0.0020759988 0.67007893 
-0.013248111 0.28859156 0.9573607 
-0.32500646 -0.8170052 0.47631222 
-0.31219432 -0.21340075 0.9257401 
-0.4563139 0.7175464 0.5262175 
-0.6998118 0.6785172 0.22333372 
-0.9890965 -0.013548015 -0.14664431 
-0.18934618 0.03772559 -0.98118544 
-0.4778698 0.44997197 -0.75443083 
0.057739288 -0.33678415 -0.93981 
-0.3207606 -0.20991933 -0.92360514 
0.13287668 -0.021619383 -0.9908968 
-0.48052663 0.040801 -0.87603056 
-0.33905002 0.05841316 -0.9389531 
-0.077563055 0.19457272 -0.9778167 
0.24639362 0.92868745 -0.27718204 
-0.24596445 0.93924206 -0.2394283 
0.6242158 0.47489396 -0.620347 
0.8556172 0.49891147 -0.13786417 
0.5266149 0.83723426 0.14736183 
-0.10712564 0.5466156 0.8305033 
-0.52580065 0.75075674 0.3998724 
-0.116950415 -0.43701488 0.8918187 
-0.9413693 0.23726839 0.23984908 
-0.91127294 -0.34062472 0.23142299 
-0.85595 -0.38198426 -0.3484789 
-0.93909484 0.02866107 0.34246087 
-0.7092323 -0.63349366 -0.3093145 
-0.5458771 -0.70078003 -0.45926636 
-0.26717353 -0.79176676 -0.549294 
0.89948946 -0.43489233 0.042278323 
0.14639679 0.10789013 0.9833248 
-0.19688709 -0.75551814 0.6248422 
-0.057830293 -0.56967586 0.8198323 
-0.52459824 0.058074247 0.84936684 
-0.15755448 -0.52427596 0.8368462 
0.36059582 -0.5798647 0.7305667 
0.028696386 -0.17754023 0.9836951 
-0.65354675 0.6982168 0.29218146 
-0.8641583 0.5024583 -0.027681818 
-0.12394296 0.9326544 0.3388128 
-0.35445917 0.8882952 0.29204544 
-0.3873864 0.88402015 -0.26161072 
-0.86750895 0.18844506 -0.46034425 
-0.8909561 -0.30174002 -0.33933803 
-0.4252142 0.024631152 -0.90475756 
0.086490385 -0.3867405 -0.91812384 
-0.4003032 -0.712689 -0.5760484 
-0.1470977 0.2741096 -0.9503822 
0.3384892 0.16552803 -0.9262967 
-0.23832636 0.6920364 -0.68138546 
0.04601849 0.34280983 -0.938277 
0.14540167 0.6818176 -0.7169263 
0.30072144 0.93175805 -0.20345412 
-0.14198436 -0.1299935 0.9812962 
-0.82861125 -0.5327826 0.17189024 
-0.3397895 0.19105366 0.92089176 
-0.25154942 -0.7849452 0.5662013 
-0.34729066 -0.9373867 -0.026369547 
0.4248957 -0.90067655 -0.09080438 
0.12714663 0.024953166 -0.99157 
-0.2151335 -0.6006786 -0.7700018 
0.75927055 -0.30721346 -0.573697 
0.6323567 0.053021275 -0.7728608 
0.66088295 -0.5368631 0.5244157 
0.48954403 -0.4869817 -0.7233226 
0.83523124 -0.36084265 0.41494736 
0.6201128 0.14106773 0.77172536 
0.95148575 -0.2895449 -0.10410953 
0.7602433 0.6378741 0.12307278 
0.29644406 0.35380673 0.8870974 
0.4467583 -0.6391302 0.6260349 
-0.18671753 -0.82872885 0.5275842 
-0.44175777 -0.60826427 0.6594428 
-0.7761211 -0.4394379 0.4522504 
-0.7970403 -0.49304354 0.34876204 
-0.63123244 -0.70124424 0.33136415 
0.08150862 -0.8398935 0.53659606 
0.067548074 -0.25752982 0.96390647 
-0.4113708 -0.5931418 0.6920672 
0.15943645 -0.6678044 0.7270608 
0.114294425 -0.4260584 0.897447 
0.22216761 -0.3762376 0.8994926 
-0.5477825 -0.66837275 0.50320196 
-0.8727088 -0.25494447 0.41639262 
0.2721589 -0.6967603 0.6636676 
-0.113776356 -0.6289277 0.7690935 
-0.5840362 -0.5461547 0.6005138 
0.000808314 -0.9339007 -0.35753173 
0.78557235 -0.48710865 -0.38157725 
0.87259936 0.42564857 0.23957016 
0.5882983 -0.19579634 0.78458196 
0.26020965 -0.005864319 0.9655343 
0.19876562 -0.29700124 0.9339607 
-0.38549373 0.20702487 0.89918596 
-0.094596945 0.98452896 0.14749289 
-0.20126648 0.4140563 0.88772136 
-0.809315 -0.16113213 0.5648412 
-0.71371275 -0.18736301 0.67491424 
-0.84607077 -0.4778479 0.23627457 
-0.9117145 0.33048818 0.24403733 
-0.63672286 -0.7700974 0.03916638 
-0.9147638 -0.33493373 0.22589056 
-0.8982648 -0.41454726 -0.1458458 
0.20130406 -0.61461926 -0.7627057 
0.7157092 -0.58272296 -0.38496017 
0.64730704 -0.6281944 -0.43170065 
0.29026803 -0.8964573 -0.33482647 
0.9532353 0.07609911 -0.2924915 
0.9596384 0.2754934 0.056547605 
0.8547307 0.5035653 0.12592658 
0.42739233 0.3308095 0.84136856 
0.5670274 0.3825327 0.7294853 
0.16911994 0.96322024 -0.20881909 
0.84207255 0.1377564 0.5214758 
0.89921516 0.4305579 0.07766628 
0.6144809 0.78888476 -0.008606633 
0.95982355 0.08515814 0.26737025 
0.46589595 0.20033585 0.86186236 
0.6063341 -0.11496166 0.78685635 
-0.10752087 0.084775664 0.9905818 
0.075183846 -0.2188771 0.9728516 
0.50001425 0.37006387 0.7829677 
-0.044630345 0.4073038 0.91220164 
-0.8210967 0.07322971 0.5660722 
-0.64356405 -0.5752089 -0.50493574 
-0.9016946 -0.1536677 -0.4041449 
-0.48755875 0.7091096 -0.50936246 
-0.4853207 0.15962961 -0.85964084 
0.33927998 0.48338342 -0.80698794 
0.27703947 0.21546948 -0.9363878 
0.5963601 0.27000186 -0.7559456 
0.3198529 0.7459586 -0.5841574 
0.56704324 0.56291986 -0.60131794 
0.37580854 0.7751496 -0.5078495 
-0.14247705 0.80152005 -0.58074594 
0.022348283 0.97071713 -0.23918381 
0.22806591 0.94244146 0.24451995 
-0.13078444 0.9906521 -0.03877977 
-0.63680655 0.7279553 -0.25408387 
-0.007882205 0.6490309 -0.76072115 
0.84292024 0.26435524 -0.4686169 
0.751694 0.062449764 0.6565487 
0.6138576 0.1421861 0.77650625 
0.32968917 -0.041139323 0.9431928 
0.46244192 0.070846714 0.88381463 
0.31574127 0.82586896 0.46717012 
0.9188682 0.065606266 0.3890724 
0.8667764 -0.23914538 0.43761656 
0.74180263 -0.159227 0.6514412 
0.5255746 -0.06710039 0.84809726 
0.33987015 0.38115937 0.8597709 
0.36240003 0.124086246 0.9237255 
-0.49892935 -0.04908669 0.8652515 
-0.7199592 0.3394846 0.6053173 
-0.17926152 0.070485994 0.9812732 
0.36250404 0.8653717 0.3460097 
0.77344394 0.6190121 0.13641344 
-0.041444056 0.84171885 0.53832304 
-0.36924833 0.87239635 0.32028157 
0.06793772 0.98676646 0.1472297 
-0.35001785 0.9352543 0.05279169 
-0.3897378 0.35769472 -0.84862185 
-0.201236 0.85876673 -0.47119388 
-0.25426355 -0.12326508 -0.95924747 
-0.0934263 -0.66585743 -0.74020636 
-0.14831729 -0.7751138 -0.6141665 
0.096959084 0.10072201 -0.99017876 
0.5940852 0.7336793 -0.32981437 
0.92154294 -0.37089905 0.11485878 
0.33225217 -0.46318775 0.82162386 
0.06659733 -0.8490847 0.524042 
0.1223755 0.40387636 0.9065915 
-0.3021633 -0.74530345 0.5943232 
-0.35096025 0.37541285 0.8578415 
-0.82750416 0.0059126485 0.56142837 
-0.885057 -0.17006166 0.4333051 
-0.70769006 -0.61070085 0.35527375 
-0.8520445 -0.117285095 -0.5101613 
-0.7789036 -0.48679522 -0.39539823 
-0.50467986 -0.47045138 -0.7238603 
-0.012481818 -0.89109904 -0.45363715 
0.2067444 -0.6342774 -0.744949 
0.8110202 -0.2873602 -0.5095787 
0.32528883 0.81481063 0.47986546 
0.19004837 0.82322955 0.53495306 
0.7275718 0.56920207 -0.38294703 
-0.18620472 0.5855866 -0.7889335 
0.14942671 0.73662806 -0.65958387 
0.12765396 0.41615134 -0.9002903 
0.15645584 -0.05326378 -0.9862478 
0.25003898 0.5926194 -0.76569104 
0.15417233 0.7518675 0.6410353 
0.13946423 0.7482468 -0.6485958 
-0.39817673 0.6937143 -0.60017985 
-0.69913447 0.36392072 -0.6154452 
-0.1910329 0.20928806 -0.95901257 
-0.46667856 0.33211252 -0.8197026 
0.12476309 0.021951184 -0.9919438 
0.837868 0.40228626 0.36897588 
0.24923252 0.16114755 -0.9549423 
-0.019492496 0.7403696 0.6719173 
-0.7592438 -0.3340412 0.55853873 
-0.91242397 -0.3373209 0.23172672 
-0.8326145 0.1957581 -0.5181043 
-0.5756531 0.17428936 -0.79890347 
-0.44271597 0.66467005 -0.6018441 
-0.05436263 0.90511155 -0.42168453 
-0.5563935 0.18681204 -0.80964667 
0.2575219 0.16399217 -0.9522548 
0.4356185 0.10495012 -0.89399225 
0.86796314 0.32543537 0.3751425 
-0.0060892142 0.62274414 -0.7824019 
0.5440829 -0.15261868 -0.82503426 
-0.30338034 0.123945 -0.9447741 
-0.09901468 -0.26995805 -0.9577676 
0.6848976 0.04938481 -0.72696394 
0.2891842 -0.100935265 -0.9519373 
-0.21850099 0.2569985 -0.94138676 
-0.93142134 0.112974785 0.34596404 
-0.6846901 0.39375806 0.613314 
0.17450085 0.8062344 0.56527483 
-0.99540883 -0.053140424 0.079608046 
-0.98324776 0.17813157 0.03863917 
-0.7884675 0.47099784 -0.39557573 
-0.8828203 -0.2606368 0.39076442 
-0.717996 0.08962397 0.69025314 
-0.74104905 -0.37757412 0.5552335 
-0.7896461 0.07003301 -0.60955274 
-0.31419006 0.8713509 -0.37687182 
-0.6291182 0.23341651 -0.74143577 
-0.7955257 -0.22031084 -0.56444836 
-0.35062778 0.23847024 -0.90564466 
0.094458 0.06372736 -0.9934871 
-0.61182564 0.31064934 -0.72743833 
0.14463343 0.44752243 -0.8824992 
0.6543773 0.41888145 -0.6295464 
0.44669938 0.89142644 -0.076280214 
0.7484487 0.19245 -0.6346554 
0.6010703 0.12933896 -0.78866094 
0.5831851 0.24109909 -0.7757361 
0.7033196 0.6786653 -0.21155396 
0.92060953 0.19460423 -0.338537 
0.46979845 0.8213544 0.32352218 
-0.063308515 0.97610873 0.20785537 
-0.74747586 0.30785686 -0.5886459 
-0.5148833 -0.19326068 -0.83519197 
-0.33168048 0.67305696 -0.6610465 
-0.14239529 0.9610626 0.2368169 
-0.38142306 0.8393848 -0.38723326 
-0.1466304 0.93848425 0.3126449 
-0.42268363 0.8803679 0.21515328 
0.031249605 0.7322993 -0.6802655 
0.5819043 0.69622314 -0.42031047 
0.76316553 0.57244384 0.2998106 
0.5245284 0.50453335 0.685796 
0.15201844 -0.49661973 0.85455215 
0.1712263 0.26761484 0.9481898 
0.26448575 -0.26727545 0.92661273 
-0.6036214 0.12511249 0.78739333 
-0.9566736 0.2876535 0.045067824 
-0.75098425 0.35122213 -0.5591651 
-0.6812031 -0.30444506 -0.6657894 
0.17713705 -0.02875072 -0.98376626 
-0.32926062 -0.1579565 -0.9309336 
0.17574628 -0.6208387 -0.7639848 
-0.43547705 -0.8750214 -0.21141724 
-0.4730965 -0.15145293 -0.86789495 
0.17347531 -0.97347665 -0.14916292 
0.23412319 -0.77168256 -0.591348 
0.721147 0.568047 -0.3965725 
0.31282082 0.50558025 -0.8040721 
0.2508453 0.94953495 -0.18830809 
0.37384918 0.90387493 -0.20795865 
0.41940603 0.9017168 -0.10490667 
0.39123735 0.8456835 -0.36297768 
-0.17159726 0.6591054 0.7322121 
0.48056993 0.7610778 0.4356755 
-0.3216913 -0.9345419 0.15213874 
-0.6103464 -0.7917943 -0.023218729 
-0.40034232 -0.82168514 0.4056594 
-0.41988277 -0.83152634 0.36367905 
-0.6874726 -0.67005074 0.28002414 
-0.8650439 -0.4970925 -0.0678105 
-0.68813306 -0.5398252 -0.48483154 
0.23677424 -0.9470417 -0.21691005 
0.003927656 -0.7467051 -0.6651437 
0.15641144 -0.69371694 -0.7030593 
-0.20005025 -0.9419266 -0.2697301 
0.6911468 -0.6748071 -0.2587502 
0.69300574 -0.6853008 -0.22384343 
0.6845977 -0.023299493 0.72854877 
0.7878069 0.2563607 0.56003517 
0.62341243 0.64201903 0.44628295 
-0.2833116 0.2814245 0.91680694 
-0.78951275 0.5803598 0.19963005 
-0.7623545 0.47738805 0.43693984 
-0.95287234 0.2702132 -0.13791059 
-0.9865863 -0.15196577 0.059616514 
-0.99382967 -0.04550303 -0.101153776 
-0.4876638 0.70376915 -0.5166169 
-0.31000978 0.38699517 -0.8684059 
0.7868341 0.38940138 -0.4788097 
0.602295 -0.46588856 -0.6482196 
0.6052708 0.684147 -0.40692773 
0.2520354 0.317879 -0.9140193 
0.79885805 0.48906812 -0.35019752 
-0.020377792 0.3011139 -0.95337045 
0.6012572 0.78259623 -0.16134734 
0.4231856 0.5847575 0.6920786 
-0.18997557 0.7192765 0.6682445 
-0.061602283 -0.551592 0.8318362 
-0.6997157 0.039856043 0.7133089 
-0.88504905 -0.14114718 0.44358283 
-0.8756879 -0.48199993 -0.029102776 
-0.08611381 -0.9952354 0.04572848 
-0.16421606 -0.6684823 -0.725372 
0.22710235 -0.7156401 -0.6605179 
0.33720848 -0.40430117 -0.85019475 
0.84105605 0.34518263 -0.4165017 
0.7707973 -0.3790377 -0.5120567 
0.8265467 -0.0566338 -0.56001186 
0.9611054 0.24037713 0.1359975 
0.7957389 0.29470435 0.5291022 
0.98548454 0.10147595 0.13609865 
0.4929073 -0.20992453 0.84437793 
0.8766713 -0.36956045 0.30801398 
0.69783586 0.118895754 0.7063207 
-0.4853598 -0.004791009 0.8743015 
-0.35424376 -0.24131405 0.9034816 
-0.900617 -0.05066488 0.4316503 
-0.8553467 -0.47943273 -0.19628179 
-0.056809496 -0.9202616 -0.38715807 
0.27967128 -0.8020111 0.52779007 
-0.29197598 -0.73064405 0.61717856 
-0.0507432 -0.99871045 0.0015997095 
0.9862514 0.06419872 0.15227212 
-0.040402655 -0.88132405 0.47078195 
-0.40938243 -0.903606 -0.1261048 
-0.44056174 -0.8768583 -0.19241834 
-0.2372081 -0.9487499 0.20882055 
0.31575364 -0.9297963 0.18915212 
-0.2474265 -0.8737961 0.41864148 
-0.053056546 -0.9807867 -0.18773022 
0.4656856 -0.83883023 0.28195903 
0.93787545 -0.34421197 0.04367996 
0.748361 -0.21208663 0.6284704 
-0.06529325 -0.13745321 0.9883539 
0.18919535 -0.3929867 0.8998703 
0.45758128 0.68624747 0.5654059 
-0.042287298 0.68691355 0.72550786 
0.10222733 0.9942301 -0.032499127 
-0.20506553 0.008506529 0.9787113 
-0.6390643 0.13668731 0.75691044 
-0.8307913 0.5355302 0.15163557 
-0.7316481 0.64307404 -0.22615677 
-0.4673939 0.8713916 0.14906316 
-0.64270484 -0.3717437 -0.6698784 
-0.784432 -0.115805835 -0.60930735 
-0.8122861 0.22076377 -0.5398655 
-0.40441656 -0.11030262 -0.90789896 
-0.0124027785 -0.7583276 -0.6517558 
0.6129971 -0.21028057 -0.7615883 
0.4153347 -0.7271034 -0.5466422 
0.6658882 -0.7456394 -0.024798483 
0.72105247 0.43459073 0.5396428 
0.9291532 0.24359877 0.27808985 
0.80063885 0.097276 0.5911978 
0.49882266 0.2539528 0.82866406 
0.60751814 0.7312975 0.3100416 
0.9587422 0.1950671 -0.20679049 
0.72393084 0.6898115 -0.009184509 
0.5773447 0.7277979 0.3701126 
0.82084954 0.16566522 0.54659057 
0.6056727 -0.67318845 0.42423797 
0.70292264 -0.16992106 0.6906712 
-0.34347695 -0.044950157 0.9380849 
-0.39728668 -0.23159565 0.88799024 
-0.085108295 -0.27926075 0.95643616 
-0.4023077 0.123503074 0.90713596 
-0.7345235 -0.40501046 0.5444648 
-0.7269511 0.5064338 -0.4637532 
-0.65318763 0.5231691 -0.547394 
-0.49381006 0.85019404 0.18254246 
-0.057791032 0.6057451 -0.7935572 
-0.29820037 0.9289706 -0.2192949 
-0.08079096 0.55036974 -0.831003 
0.20008129 0.9171818 -0.34459403 
0.37704942 0.92166674 0.091455534 
-0.112124816 0.8027197 -0.58572114 
0.40044895 0.84832394 -0.3463918 
0.3528934 0.86863947 -0.34775245 
-0.68120646 0.6713431 -0.29198667 
-0.13628404 0.98947656 -0.048607957 
-0.32309636 0.9436477 0.07167923 
-0.1979004 0.85246795 -0.48387378 
0.52848905 0.7427849 -0.41105953 
0.8895688 0.41643798 -0.18774158 
0.8726536 -0.4727039 0.12258381 
0.7385661 -0.34464732 0.5794293 
0.2930449 0.0022205152 0.9560962 
0.53932863 0.36713162 0.7578516 
-0.022666447 -0.22193627 0.9747978 
0.63306373 -0.24385357 0.7346876 
0.66929173 0.21495138 0.7112275 
0.50170964 -0.079033636 0.8614181 
-0.13629457 -0.10874941 0.9846814 
0.21682383 0.030480415 0.97573483 
0.1351082 -0.3570577 0.9242595 
0.19777286 -0.30553588 0.9314149 
0.040678643 0.49477085 0.86807084 
0.44604525 0.0015493156 0.8950091 
0.28510144 0.34339648 0.89487207 
0.6371418 0.77063876 0.012890377 
0.32736754 0.27758774 0.903203 
0.042090047 0.7563011 0.6528684 
-0.08482569 0.14920926 0.9851605 
-0.822391 0.5566292 0.1176305 
-0.71524537 0.5906913 -0.3735075 
-0.99820155 -0.033876173 -0.0494577 
-0.42024228 0.19191246 -0.8868856 
0.38352454 -0.50309247 -0.7744721 
0.4591029 -0.060094252 -0.88634825 
0.77169657 -0.044039916 -0.6344643 
0.69573253 0.5081128 -0.5077182 
0.41260818 -0.037510216 0.910136 
0.75472724 -0.27373007 0.5962035 
0.87491286 -0.47461 0.09629547 
0.15587927 -0.13450438 0.9785757 
0.17451908 -0.23248182 0.95681524 
-0.5454448 0.58782303 0.59745646 
-0.4838786 0.40676516 0.77485716 
-0.5030518 -0.45103657 0.7372279 
-0.9756806 0.1859123 -0.1161208 
-0.7822326 -0.09371405 0.6158977 
-0.2654033 -0.69995797 0.66303843 
-0.54146534 -0.78091615 -0.31142482 
-0.034608953 -0.38833493 -0.9208683 
-0.3235509 -0.37599975 -0.86829674 
0.6510361 0.15068382 -0.7439398 
0.4853246 0.8743145 0.005844709 
0.19819339 0.9428773 0.2677723 
-0.1967804 0.8133971 -0.54741454 
-0.5199746 0.79486024 -0.31276795 
-0.3297766 0.9205355 -0.20943213 
0.13227168 0.7086747 -0.6930255 
0.33237958 0.10197067 -0.9376171 
0.5841512 0.57775944 -0.57005394 
0.457324 0.035433397 0.88859403 
-0.5062195 0.857344 -0.093290426 
-0.38047034 0.69225895 -0.6132047 
-0.32683063 0.86751175 -0.37497342 
0.027248565 0.35648227 -0.93390477 
-0.42745656 0.84968936 -0.3087214 
0.21584108 0.7517616 -0.62311095 
0.2760368 0.9535784 -0.12038242 
0.4507893 0.86706823 0.21208899 
0.05710265 0.57661027 0.81502146 
-0.9872766 0.103255145 0.12092719 
-0.9435638 0.24998535 0.21724346 
-0.8810486 0.07432133 -0.4671506 
-0.732591 0.52764803 -0.4299977 
-0.21217541 0.778948 -0.5901032 
0.10301323 0.84379333 -0.52668893 
-0.7949819 0.5977392 -0.10349689 
-0.64155036 0.15284811 -0.7516985 
-0.28695616 0.17062722 -0.94262534 
0.5679853 0.4170469 -0.7095524 
0.2503759 0.6195059 -0.74399227 
0.31345946 0.06813475 -0.9471541 
-0.0036049185 0.33961758 -0.9405567 
0.21242353 0.13525803 -0.9677714 
-0.3366406 -0.09852125 -0.936465 
0.39456314 0.64854395 -0.65093076 
0.36255595 0.5358677 -0.7624953 
-0.75206727 0.044638548 0.65757316 
-0.5363168 0.0057398495 0.84399724 
-0.39673525 0.52436614 0.7534198 
-0.91868484 -0.20545848 0.33734992 
-0.7293047 -0.1742371 -0.66163146 
-0.49037337 0.32676792 -0.8079337 
-0.9135751 -0.2986765 -0.2759945 
-0.83331156 0.014506534 0.5526134 
-0.97196794 0.15515134 -0.1766538 
-0.42716476 0.7727095 -0.46952143 
-0.8180388 0.43657684 -0.37445042 
-0.95941275 -0.0005215627 -0.28200525 
-0.6270189 0.4487368 -0.6367752 
-0.7278086 -0.0021790373 -0.6857768 
-0.007801152 0.12569517 -0.9920383 
-0.2598859 0.6705604 -0.6948439 
0.3855933 0.57430947 -0.7221402 
0.50908786 0.8573037 0.07655171 
0.5541617 0.8090332 0.1958828 
0.020555088 0.84758365 -0.53026366 
0.7132785 0.44597945 -0.5406812 
0.40639225 0.8616996 -0.30384108 
0.4491622 0.7258752 0.52092093 
0.81520855 0.5785562 0.02660392 
0.432057 0.70764047 0.55908126 
-0.32772413 0.09263794 0.94022083 
-0.37571108 0.85727483 -0.35202432 
0.32432622 0.8932905 0.3111985 
-0.20850666 0.85091114 0.4821569 
0.09278819 0.88854533 0.44930813 
0.10532618 0.94219214 0.31808868 
0.33829996 0.71096724 0.61650527 
0.5866979 -0.007913134 0.80976737 
0.025734533 0.7451378 0.6664139 
-0.13286965 0.68170047 0.7194652 
0.47283363 0.7321716 0.49025822 
0.9840624 -0.15379572 -0.08926524 
0.98804253 0.15399992 0.007488128 
0.16149792 0.93914145 0.3032027 
0.001886961 0.39413387 0.9190511 
-0.9385744 0.21639891 0.26879296 
-0.94478637 0.17756273 -0.27540916 
-0.6257948 0.13047944 -0.76899683 
-0.59594315 0.28612483 -0.7503228 
-0.31039977 0.57274044 -0.75869656 
-0.7917838 -0.16824618 -0.58717275 
-0.76545346 -0.31435165 -0.5614839 
-0.08600855 -0.47870377 -0.87375355 
0.38905427 -0.15957355 -0.9072889 
0.34519744 -0.19051155 -0.91899085 
0.56676364 0.61224383 -0.5513044 
0.6950373 0.69703984 0.17623459 
0.24684648 0.86687714 0.43311787 
0.4930313 0.82319206 0.28155833 
-0.17872502 0.84581923 0.5026403 
0.4348856 0.5338829 0.7251507 
0.37498185 0.6341646 0.67618334 
-0.24486196 0.061847925 0.9675833 
0.08606203 -0.044563342 0.9952927 
-0.9939028 -0.042528503 0.101728566 
-0.4732499 -0.8649406 -0.16707005 
-0.26471093 -0.96406174 0.02265201 
-0.13008389 -0.9757912 0.17581137 
-0.38344973 -0.5490082 0.74266845 
-0.3663272 -0.8825107 -0.2949227 
-0.12760249 -0.7486869 -0.6505272 
0.47818154 -0.87739503 -0.03899113 
0.22500211 -0.6813941 -0.6964742 
0.07312414 -0.7304875 -0.6789999 
-0.6336163 -0.67939246 -0.37007597 
0.1653535 -0.9503424 0.2636431 
0.792378 -0.6033114 -0.09029133 
0.83551013 -0.079938725 0.5436293 
0.13191977 0.6899588 0.7117261 
0.49450025 -0.2289784 0.8384739 
0.34151495 0.63048774 0.69703144 
-0.3830817 -0.06148123 0.92166615 
-0.50659156 0.5358103 0.6754795 
-0.96214056 0.26025787 0.08094109 
-0.96202856 0.27286914 -0.0065910085 
-0.86246437 0.48892003 -0.13081487 
-0.6940464 0.6282679 -0.3515383 
-0.2837236 0.77918607 -0.5589008 
0.2526167 0.36045906 -0.8979165 
0.28943485 0.06481285 -0.955001 
0.70587 0.26327324 -0.6575978 
0.37473157 0.7638277 -0.52549374 
0.85156447 0.22333394 -0.47429955 
0.14458683 0.9688387 -0.20111276 
0.5206216 0.7067276 -0.47905034 
0.47103193 0.7761492 0.41919145 
0.114383996 0.52630854 0.84256494 
0.16955684 -0.4417029 0.8809932 
-0.36136457 0.058046862 0.93061614 
-0.37646756 -0.8184412 0.43408087 
-0.05326873 -0.7978682 0.6004739 
-0.60381985 -0.7558816 -0.25307047 
-0.39684328 -0.5915808 -0.70181733 
-0.43140352 -0.27788758 -0.8582946 
0.23012234 -0.50475925 -0.8320228 
0.6390667 -0.7589383 -0.12492655 
0.47070035 -0.7999343 0.37221837 
0.9047968 -0.12673916 -0.40654644 
0.83742684 0.46695402 0.284025 
0.97149926 -0.23101193 0.053128008 
0.8272938 -0.5425658 -0.14562738 
0.16278462 -0.68403476 0.71105397 
0.7306771 -0.21732911 0.64720863 
0.8597945 0.08700203 0.503174 
-0.47380152 -0.47797725 0.7396283 
0.18472198 0.1723941 0.96755266 
-0.8427402 -0.48509073 0.2334012 
-0.68705916 -0.6248061 -0.37090048 
-0.5933507 -0.80048037 -0.08465355 
-0.105092436 -0.95989656 -0.25991184 
-0.50534314 -0.71476793 -0.48346165 
-0.5787444 -0.13211133 -0.804737 
-0.55063504 -0.6825872 -0.48049545 
-0.67592967 -0.65993464 -0.32803252 
-0.4064218 -0.7722736 -0.48827732 
-0.007948908 -0.84208965 -0.53927904 
0.4651071 -0.8466951 -0.2584236 
0.17415573 -0.9805704 0.09028632 
-0.18434617 -0.95434994 -0.23501639 
0.18301693 -0.9119212 -0.36729348 
0.9003318 -0.20684479 0.38290715 
0.6933533 0.6852394 0.22295356 
0.8105633 0.52748746 0.2544485 
0.69409585 0.1538923 0.7032412 
0.24950403 0.34997922 0.9029188 
0.74652827 0.37756148 0.5478531 
0.5253495 0.45074916 0.7216877 
0.7078786 0.17703316 0.6837889 
-0.15976475 -0.008179948 0.9871212 
-0.110551365 0.54888684 0.82855403 
-0.898632 0.09760604 0.4277075 
-0.97333 -0.203444 -0.10601576 
0.0037041134 0.2011011 -0.97956353 
-0.9225794 -0.24398132 -0.2988654 
-0.79550207 -0.19318904 -0.5743297 
-0.71184915 0.30867603 -0.6308645 
-0.3560668 -0.7888692 -0.500901 
0.21317136 -0.80884963 -0.54801494 
0.7077977 -0.46021616 -0.5359325 
0.30297276 -0.16061054 -0.9393678 
0.9068456 -0.40355036 -0.12156591 
0.5907236 -0.24557325 0.7685957 
0.5928278 -0.5257949 0.60999596 
0.84453106 0.10763241 0.5245785 
0.41892225 -0.24607044 0.87404436 
0.5820001 0.6976655 0.41777846 
0.73226404 -0.00017618337 0.6810209 
0.52023727 0.74569184 0.4162895 
0.6958607 0.7036643 -0.14364733 
0.7724446 -0.09461485 0.6279948 
0.42308882 0.6077787 0.67201257 
-0.2797225 -0.73203087 0.6211974 
-0.30060163 -0.76896316 0.5642112 
-0.7465177 -0.10572272 0.65691257 
-0.49263373 -0.3026291 0.8159213 
-0.14642021 -0.89622104 0.41874707 
-0.8667716 -0.36005458 0.3450619 
-0.49975467 0.6702858 0.5486002 
-0.5787068 -0.10641192 0.80856353 
-0.7046677 0.19458705 0.6823338 
-0.643694 0.7503129 0.15062794 
-0.38156727 0.9005598 0.20832318 
-0.077682294 0.9550855 -0.28596714 
0.5033468 0.7662286 0.39941922 
0.6194402 0.7771582 0.11099164 
0.0826706 0.99490607 0.057685576 
0.6880736 0.6551357 -0.31201276 
0.2768177 0.78446275 0.55496883 
0.20853706 0.87326384 0.4403666 
-0.25422654 0.72957647 0.6348914 
0.22068582 0.84963185 0.47898194 
-0.41229382 0.8908823 -0.19063713 
0.079489514 0.79048383 0.60730284 
0.8068903 0.4076533 -0.4274889 
0.8919727 -0.36501494 0.2667375 
0.74717796 -0.07377218 0.66051704 
0.40576336 -0.17684814 0.89670557 
0.16329573 -0.08931469 0.98252606 
0.16113357 -0.2392735 0.9574885 
0.21795733 -0.08689434 0.9720824 
0.24157108 -0.020003367 0.970177 
-0.22736673 0.050113443 0.972519 
-0.14857733 -0.6065138 0.7810672 
-0.7472542 -0.45144242 0.48765862 
-0.10142742 -0.9666727 0.23506694 
0.063293464 -0.86326844 0.500761 
-0.08113928 -0.16482817 0.98297924 
0.2962686 -0.30002367 0.90675837 
0.9460495 -0.16295882 0.28006238 
0.1438956 0.4658108 0.87310624 
-0.54776025 0.13279742 0.8260289 
-0.58934367 0.74154305 0.32060573 
-0.82658905 0.39803392 0.39789376 
-0.7126667 0.62725264 -0.31410256 
-0.6816105 0.27260318 -0.67903954 
-0.93536454 -0.23547229 -0.26390544 
-0.9736276 -0.19009385 0.12614943 
-0.45048293 0.07527077 -0.8896063 
-0.3420805 0.3734775 -0.86226195 
0.28518566 0.07118825 -0.95582503 
0.90753156 0.41511336 0.0637769 
0.91830856 0.09898682 0.38328987 
0.82472914 -0.5542745 0.11225754 
0.9486994 0.09995819 0.29996327 
0.6845811 -0.2852046 0.67082566 
0.205843 0.0866799 0.9747386 
-0.6892107 -0.2162612 0.69153434 
-0.57514656 -0.23797794 0.7826704 
-0.2763079 -0.32632095 0.90397376 
-0.7046344 -0.69382554 0.14864914 
-0.75862616 -0.6303833 0.16463111 
-0.6520047 -0.74992543 -0.11181109 
-0.4171126 -0.6355687 -0.64966893 
-0.24490283 -0.6057388 -0.75703573 
0.61039054 -0.02903143 -0.79156846 
0.55231196 0.48396024 -0.678774 
0.5783819 0.8126434 -0.071309775 
0.13266312 0.4709766 0.8721133 
-0.0011189309 0.9848594 0.17335154 
0.2199965 0.9716813 0.08623788 
0.7833374 0.62139565 -0.015815591 
0.59201294 0.74230385 -0.31385636 
0.5112167 0.85913044 -0.02350189 
0.46999323 0.8176572 -0.3324805 
0.6764598 0.38029698 0.6306952 
-0.061527297 0.973529 0.22012703 
-0.79433024 0.5889103 0.14907748 
-0.4773173 0.70406914 -0.5257898 
0.13746999 0.5901126 -0.7955307 
-0.17868793 0.6064614 -0.7747744 
-0.29713875 0.8479018 -0.43905702 
-0.18221688 0.93056023 -0.31757647 
-0.7983659 0.5541204 0.23571724 
-0.61324024 0.39759126 0.6825376 
-0.50702083 0.81662005 -0.27579302 
-0.4768478 0.8525169 -0.21408251 
-0.6607651 0.5921988 -0.46118337 
-0.47888738 0.83321553 0.27643988 
-0.012556429 0.9959728 -0.08877208 
-0.38591474 0.8201632 -0.42237687 
-0.8022181 0.5258766 -0.2826659 
0.06631134 -0.08789268 -0.99392045 
0.18590562 0.18799639 -0.9644152 
-0.23957348 0.9039787 -0.3541568 
-0.03951623 0.7049325 -0.7081728 
-0.4148732 -0.31338197 -0.85420847 
-0.66425717 0.43966326 -0.6045318 
-0.5621464 0.8269814 -0.009651942 
0.018365098 0.49539444 -0.8684741 
0.44710112 0.57927424 -0.6815732 
-0.42562142 0.79509026 -0.43206227 
-0.38362807 0.29167673 0.8762159 
-0.78967744 0.06359188 0.61021775 
-0.7783272 -0.08581587 0.62196666 
-0.96445304 -0.06512171 -0.25610444 
-0.3334676 0.16735134 -0.9277893 
-0.80658406 0.34321523 -0.48127493 
-0.6253896 -0.060416296 -0.7779703 
-0.93829054 0.14056195 -0.31599566 
-0.6786016 0.65440714 0.33354333 
-0.7872108 0.6075187 0.10592556 
-0.60693437 0.6436063 0.46626365 
-0.5892842 0.62165165 0.5160364 
-0.8925377 0.3106283 -0.32693532 
-0.57054436 -0.5235136 -0.6327817 
0.3250098 0.12724183 -0.9371116 
0.2137765 0.37355703 -0.9026377 
0.32000902 0.82603997 -0.46395287 
0.37842584 0.7409967 -0.5547232 
0.49981746 0.84295434 0.19902416 
-0.6338937 0.6946392 0.3400813 
-0.00022049488 0.7287845 0.6847431 
0.44330576 0.60286105 0.6633541 
0.9264649 0.32096615 0.19657981 
0.24436474 0.39279452 0.88656557 
-0.5443488 -0.17498273 0.8204057 
-0.27970743 0.058918584 0.95827574 
-0.5177959 0.5205357 0.6789183 
-0.6802442 0.68548805 0.25956497 
-0.7424318 0.6643978 0.085852645 
-0.22072661 0.33207646 0.91706324 
-0.0471309 0.50356567 0.86267054 
0.7274086 0.18328787 0.6612733 
0.85356575 0.077500544 0.51518863 
-0.31866103 0.5780564 0.75120306 
-0.3325001 0.517876 0.7881929 
-0.05543992 0.6829202 0.7283862 
0.16682333 0.8630348 0.47680283 
0.35647893 0.68154824 0.63907343 
-0.15160562 0.86447304 0.4792725 
-0.2763631 0.73849237 0.61502236 
-0.49211857 0.5299761 0.6906119 
-0.34511024 0.8099794 0.4741648 
-0.46396342 0.7621846 0.45145625 
-0.95424235 0.29283023 0.060596667 
-0.6979252 0.5474464 -0.46173906 
-0.2678027 0.6034584 -0.75107914 
-0.1913809 0.48407385 -0.85384184 
0.19754682 0.09189199 -0.97597706 
0.11002699 0.5489442 -0.8285858 
0.34792033 0.664502 -0.6613535 
0.88090545 0.39291966 0.26385567 
0.72060364 0.6423757 0.26092896 
0.8079106 0.58381 0.08028998 
0.5679351 0.4356247 0.6983415 
0.18696931 0.71945524 0.66889966 
-0.14204584 -0.15590374 0.97750556 
-0.11854263 -0.1802499 0.97645164 
-0.53509647 -0.02501871 0.8444204 
-0.516574 0.018445913 0.85604393 
-0.94868356 -0.29726055 0.10786873 
-0.31263718 -0.8760579 -0.36712462 
-0.34553692 -0.8975697 0.27381155 
-0.10159296 -0.9931829 -0.05715422 
-0.3006436 -0.94637287 0.11828707 
-0.51767313 -0.6675017 -0.5352159 
0.16276337 -0.750488 -0.64052796 
-0.010576638 -0.89036995 -0.45511502 
0.35266778 -0.7978927 -0.48886898 
0.11328437 0.03298629 -0.99301493 
-0.60221016 -0.7426551 0.29292715 
0.53498733 -0.84077775 0.082954034 
0.7663786 -0.4579996 -0.45044452 
0.95687574 -0.1005387 0.27254534 
0.7891677 -0.18666783 0.5851234 
0.31741303 -0.31767887 0.89349264 
-0.17771305 0.08238108 0.98062813 
-0.8037426 -0.44215837 0.39811277 
-0.7525876 0.56831604 0.33260912 
-0.8677139 -0.057930507 -0.49367678 
-0.8168001 0.57686543 -0.008004606 
-0.8573646 0.4680862 -0.21405919 
-0.7116802 -0.040431112 -0.7013393 
-0.28399068 0.07950114 -0.9555255 
0.10525177 0.58727163 -0.8025174 
0.3572762 0.37121484 -0.8570609 
0.3586606 -0.29025692 -0.8871942 
0.121981554 0.39037025 -0.91254133 
0.681091 0.61089385 -0.40363833 
0.67877007 0.5456144 0.49150398 
0.19678989 0.3722872 0.90701485 
0.05627054 -0.043925397 0.9974489 
-0.39923042 0.08864877 0.91255504 