# OOMMF: rectangular mesh v1.0
# Segment count: 1
# Begin: Segment
# Begin: Header
# Desc: Time (s) :  3.43e-07
# Title: m
# meshtype: rectangular
# meshunit: m
# xbase: 2e-09
# ybase: 2e-09
# zbase: 5e-10
# xstepsize: 4e-09
# ystepsize: 4e-09
# zstepsize: 1e-09
# xmin: 0
# ymin: 0
# zmin: 0
# xmax: 1.024e-06
# ymax: 1.024e-06
# zmax: 1e-09
# xnodes: 256
# ynodes: 256
# znodes: 1
# ValueRangeMinMag: 1e-08
# ValueRangeMaxMag: 1
# valueunit: 
# valuemultiplier: 1
# End: Header
# Begin: Data Text
-0.7576213 0.58682793 -0.2857324 
0.2826323 0.7726118 -0.5684982 
0.1329535 0.8290746 -0.543101 
0.24224451 0.5577846 -0.7938476 
0.594059 -0.23601498 -0.7690194 
0.23558256 0.835148 -0.4970198 
0.21852295 0.7592647 0.61299664 
0.3879375 0.648684 0.65476227 
-0.20554332 0.81628877 0.53983766 
-0.108483 0.1218159 0.98660654 
-0.52072334 -0.2592199 0.8134202 
-0.23236041 -0.32797992 0.9156626 
-0.30999133 0.0071752253 0.9507124 
-0.72968984 -0.5814615 0.35979906 
-0.76164967 -0.6254495 -0.16941908 
-0.5927751 -0.4904949 -0.63877416 
-0.6863566 -0.6011578 0.40929693 
-0.0801705 -0.72093165 -0.6883533 
-0.051595937 -0.9062151 -0.41965732 
-0.7250046 0.02844411 -0.6881564 
0.18871468 -0.84864473 -0.49415472 
0.5407026 -0.68357575 -0.49027026 
0.8027338 -0.36926904 -0.46825084 
0.6423105 0.19072951 -0.7423339 
0.40674618 0.77943313 -0.4764888 
0.9985434 0.01459159 0.051945046 
0.62546986 0.4750964 0.6189273 
0.24011886 0.9705895 0.01729288 
-0.6361391 0.76614386 0.091382936 
-0.7372315 0.669796 0.088673905 
-0.8663073 -0.32933125 0.3755697 
-0.68290025 -0.45938364 0.56799114 
-0.6991497 0.243612 0.6721927 
0.11731872 0.9302972 -0.34753922 
0.1908656 0.1395235 -0.97164994 
-0.20855704 0.5168389 -0.8302901 
-0.008588985 -0.15896393 -0.98724705 
0.14184056 -0.45478904 -0.87923163 
0.3800909 -0.26932397 -0.88487035 
0.24635717 0.34394196 -0.9060972 
0.14545815 -0.5482101 -0.8235944 
0.43183106 0.029725736 -0.9014646 
0.4845994 -0.787 0.38183036 
0.2973737 -0.25842455 0.9191222 
0.20587271 -0.972064 0.11273012 
0.18967228 -0.88777614 0.41937825 
0.45880306 0.29772598 0.83717334 
0.13344955 -0.2606252 0.9561725 
-0.609107 0.43128106 0.6655715 
-0.37108788 0.90701437 -0.19904481 
0.0042224596 0.89985573 0.4361672 
-0.8758582 0.3787221 0.29906872 
-0.052968785 0.58237374 0.81119365 
-0.8054123 0.3349349 0.489009 
-0.81304914 0.48535672 0.32152778 
-0.8015649 0.49262318 -0.3388455 
-0.8677204 0.4894103 0.08682683 
-0.73822886 0.5432337 0.39989412 
-0.80449444 -0.018476283 0.59367275 
-0.57613075 -0.10630275 0.81041545 
-0.39001334 0.49554154 0.776098 
-0.13874052 -0.98398066 0.11195223 
0.0009998509 -0.9999108 -0.013319878 
-0.38190007 -0.286901 -0.87854433 
-0.8201229 0.11288876 -0.56094074 
0.8871633 -0.45950547 0.042380556 
0.8949993 -0.4330784 -0.10686191 
0.40040416 -0.6355802 -0.6600867 
0.8734295 -0.0806668 -0.48022273 
0.986855 -0.15466972 -0.046846364 
0.5592448 0.26877242 0.7842237 
0.6068425 0.12556043 0.7848419 
-0.43750805 -0.23893431 0.86688936 
0.25849754 0.039810445 0.9651913 
0.11912572 -0.5705008 0.8126119 
-0.7353464 -0.08802786 0.67195004 
-0.86735004 -0.32413924 -0.3776743 
0.17336047 0.3657528 -0.914424 
-0.5732452 0.72141415 0.38852486 
-0.6371178 0.55990493 0.5297051 
-0.5315329 -0.087891765 0.8424654 
-0.7010728 0.29227328 0.6504408 
-0.43441424 0.5339361 -0.72539407 
-0.4035514 -0.33895725 -0.84985554 
-0.29785332 -0.04004431 -0.9537715 
0.08780394 -0.69473654 -0.71388495 
-0.42650202 -0.3432875 -0.8368093 
0.15317447 -0.6579965 -0.7372777 
-0.0011295895 -0.7640849 -0.6451149 
0.19773608 -0.66636515 -0.7189284 
0.61267555 0.39525452 -0.68439937 
0.85349584 -0.05414278 0.5182794 
0.8133822 0.42586756 0.3962907 
0.2502817 0.5277196 0.81170875 
-0.29678154 0.8437544 0.4472128 
-0.49524033 0.76879776 -0.40458256 
-0.0787913 0.82813036 -0.5549703 
-0.036464773 0.9359407 -0.35026473 
-0.54730177 0.75251275 -0.36631346 
-0.09896694 0.9626722 0.2519285 
-0.7230812 0.68972313 -0.037891384 
-0.62784106 0.23114052 -0.7432292 
-0.9093675 -0.0646319 -0.41094223 
-0.5585617 0.08106959 -0.82549185 
-0.53833115 0.63645273 -0.5523835 
-0.5606813 0.78333896 0.26835907 
0.13285466 0.8286115 -0.5438315 
-0.17630799 0.9840832 0.022265473 
-0.64681065 0.7593292 0.07110014 
-0.9907441 -0.12751059 0.046552867 
-0.22540005 0.10771672 -0.9682933 
-0.028782455 -0.23445733 -0.97170025 
-0.1507074 -0.112843536 -0.982117 
-0.7204104 0.43371254 -0.5412046 
-0.76643676 -0.37202844 -0.5236121 
-0.18370047 0.065909624 -0.9807701 
0.1543051 0.6628356 -0.7326929 
0.4817862 0.86329776 0.15033047 
-0.46141297 0.8627319 -0.2068615 
-0.04846094 0.52393377 -0.85037935 
-0.5019053 0.34789318 -0.79187214 
0.24947204 0.6180678 -0.7454904 
0.55935913 0.8262588 -0.066436544 
0.1897564 0.81777114 -0.5433626 
0.13875026 0.96200573 0.23514545 
-0.63582486 0.7681103 0.07571891 
-0.85501045 0.0031796629 -0.51860106 
0.3063228 0.09616307 -0.94705814 
0.1913683 -0.48034677 -0.8559469 
-0.6317332 0.055091217 -0.7732259 
0.7330587 0.5774317 -0.3594407 
0.79474497 -0.04849904 -0.60500276 
0.7465824 -0.6126465 -0.25938195 
0.8881504 -0.4255799 -0.17340875 
0.8719778 0.13809194 0.46966517 
0.06395694 -0.1781381 0.9819249 
-0.26297042 0.66535985 0.6986723 
-0.3901959 0.6490745 0.6530311 
-0.7474836 0.3984234 0.5315329 
-0.56471896 0.6161008 0.54910135 
-0.5322678 0.13717732 -0.8353881 
0.19040911 -0.01037527 -0.98165005 
0.78835225 -0.15685947 -0.59489155 
-0.11031114 0.21142322 -0.97114974 
0.089942604 -0.21411127 -0.97265965 
0.0029019732 0.08287649 -0.9965557 
0.66568226 -0.73379046 -0.13571586 
0.53960115 -0.5242431 0.6587866 
0.3072164 -0.48754954 -0.81725985 
0.26419246 -0.63158935 -0.7289014 
0.37571728 -0.1443894 -0.915417 
0.9886655 -0.011254189 -0.1497128 
0.44106612 -0.24171464 -0.86431175 
0.7337802 -0.3072998 -0.6059154 
0.92209244 0.28459585 -0.26220354 
0.92097384 0.37547347 0.10405271 
0.36530358 0.7963245 0.48210037 
0.12565713 0.86428064 0.4870619 
0.33378342 0.89903224 0.28342506 
0.6171078 0.7067936 0.34586242 
0.10172781 0.5845449 0.8049588 
-0.011669839 0.8500321 0.52660185 
-0.6584242 0.74720997 0.09030472 
-0.39745435 0.89820236 0.18778387 
0.17595865 0.82468975 0.5375178 
0.7830064 0.6019303 0.15678252 
0.9310923 0.3524491 0.094057664 
0.82297003 -0.26308966 0.5034921 
0.86760956 0.05222764 0.4944957 
0.60593057 0.022593766 0.79519665 
0.6509754 0.41517386 0.63550115 
-0.04179411 0.36890313 0.9285277 
-0.4880291 -0.1258381 0.86370856 
-0.58900595 0.618328 0.52032924 
-0.9095449 -0.1213705 0.39748886 
-0.91042984 -0.11194582 0.39822835 
-0.6219909 0.34893736 -0.700978 
-0.6273467 0.7471848 -0.21943332 
-0.7994616 -0.40606117 -0.44269148 
-0.71750194 -0.69004524 -0.09501884 
-0.3036421 0.10424119 -0.9470667 
0.10468915 -0.18350439 -0.9774285 
-0.3055854 -0.40170252 -0.8632801 
0.193533 -0.6075666 -0.7703297 
0.38320246 -0.7117739 -0.58867127 
-0.212981 -0.15349537 -0.96492404 
0.19718838 0.40488434 -0.89285237 
0.4568338 -0.63261116 -0.6253847 
0.14366628 -0.8110081 -0.5671206 
0.359663 -0.5345647 -0.7647765 
0.5053295 0.28798348 -0.8134543 
0.7032909 0.039210312 -0.7098201 
0.54205024 0.7814597 0.3090344 
0.95237446 0.28316158 0.11314783 
0.0005520949 0.4659274 0.8848229 
-0.17580442 -0.069503985 0.98196846 
-0.86524564 0.41314197 -0.28401348 
-0.840562 -0.13286555 -0.5251689 
-0.89917064 -0.34794563 -0.265379 
-0.29317284 -0.19396804 -0.9361763 
-0.7571003 -0.4268368 -0.49458033 
-0.23698573 -0.6965005 -0.67729235 
0.17674026 -0.76377606 -0.62081325 
0.28336704 -0.8486332 -0.44668213 
-0.43067783 -0.6531401 -0.622836 
-0.28340822 -0.9413721 -0.18302558 
0.72634363 -0.5386347 0.42696327 
0.4497547 -0.7426684 0.49614957 
0.25661588 -0.67858374 -0.6882387 
0.14022963 -0.61676896 -0.7745526 
-0.25085598 -0.59306175 -0.7650811 
0.5320107 0.21856564 -0.8180427 
0.73777723 0.20435643 -0.6433687 
0.8284931 -0.37945026 -0.41184542 
0.86854315 0.058888927 -0.49210268 
0.46105006 0.6438018 -0.6106981 
0.6848864 0.59475034 -0.42095453 
0.3119124 0.9465345 0.08235964 
0.05969878 0.83016354 0.5543145 
0.017929846 0.21909614 0.97553855 
-0.060993414 0.27297878 0.96008456 
-0.41353068 0.8908205 0.18823151 
-0.59252405 0.011784063 0.8054666 
-0.27683982 0.50558865 0.8171536 
0.3646249 0.50939256 0.77946657 
0.4649471 0.23963708 0.85229003 
0.8523264 -0.11337139 0.510575 
0.17238204 0.43564856 0.88345623 
-0.63735574 -0.05804398 0.76838046 
-0.4556012 0.1865899 0.870409 
0.29464582 -0.10150195 0.9502006 
0.5701028 0.52905315 0.6285583 
0.37755522 0.5139196 0.7702849 
0.6724524 -0.1961396 0.7136786 
0.6268119 0.74500114 0.22821085 
0.463204 -0.12848556 0.87688863 
0.19062606 -0.9748439 0.11550304 
-0.51235837 -0.7330113 0.4474187 
0.35003445 -0.9366946 0.008891715 
-0.15769511 -0.9697946 0.18609329 
0.053333033 -0.84452885 -0.5328476 
-0.15901907 -0.71202433 -0.683911 
-0.44319814 0.026323915 -0.8960371 
0.21014026 0.4698404 -0.85737455 
0.5792606 0.81126356 -0.07942652 
0.22499208 0.9029908 0.36604127 
0.68604183 -0.30242786 0.66172814 
0.030624196 0.52752954 0.8489846 
-0.66611063 0.6607105 0.3460612 
-0.36929098 0.92702246 0.06521913 
-0.54102945 0.49148592 0.6824432 
-0.15623268 0.10771137 0.98182976 
-0.80505705 0.42605004 0.4127526 
-0.71339566 0.5546967 0.42822695 
-0.42342445 0.54798645 0.7214033 
-0.6459867 0.74798256 0.15239228 
0.13211782 0.6690846 0.7313485 
-0.61428094 0.6915287 -0.38006186 
0.27516973 0.5640576 -0.7785375 
0.5492797 0.8288767 0.10609073 
0.15120998 0.9870855 -0.052893896 
0.13824563 0.9672826 0.2127264 
0.6294465 0.7690324 -0.11129363 
0.32186836 0.7474189 0.5811763 
0.74898386 -0.4517586 0.4847034 
-0.29634774 0.44933924 0.8427765 
0.2270384 -0.14752546 0.9626473 
-0.56524897 -0.5566887 0.6087622 
-0.62628734 -0.64535743 0.43735334 
-0.47927052 -0.7450093 -0.46396226 
-0.3464127 -0.93655956 -0.053427685 
-0.61652696 -0.77286553 -0.1502441 
-0.8231548 -0.3663865 0.43379375 
-0.38211048 -0.54020095 -0.74978304 
-0.32276958 -0.7220764 -0.6119032 
-0.099603884 0.24829096 -0.9635511 
0.7121968 -0.331523 -0.61876345 
0.6471822 -0.30081928 -0.7004734 
0.8613415 0.22982146 -0.45307076 
0.9625548 0.2650103 -0.057077758 
0.8848198 0.44162682 0.14852518 
0.94237345 -0.106355436 0.31720772 
0.603141 0.6607136 0.44685394 
0.32909194 0.3583139 0.87367606 
0.09363235 0.8008913 0.5914441 
-0.61656946 0.78573465 -0.049631175 
-0.09824989 0.68534917 0.7215564 
-0.6301022 -0.36048558 0.6877655 
-0.8240603 0.13306516 0.5506527 
-0.11134452 0.6163509 -0.7795602 
0.29594123 0.5378844 -0.78936636 
0.15202549 0.6500628 -0.74451774 
-0.43466848 0.8369691 -0.33248484 
-0.2284903 0.73051107 -0.6435416 
-0.42064938 0.41053736 -0.80901986 
-0.27361497 0.1338283 -0.95248353 
0.1902542 -0.65795773 -0.7286255 
0.18800104 -0.8629972 -0.4689259 
0.7921898 -0.5106132 0.33422974 
0.9800873 0.13413928 0.14640902 
0.8741221 -0.23048846 0.42753458 
0.5591999 -0.31360286 0.76743007 
-0.100530975 -0.06662276 0.9927008 
0.20942897 -0.26402786 0.94150347 
0.3723736 0.47508055 0.79726803 
-0.060691908 0.23660067 0.9697096 
-0.38887492 0.38640437 0.83634204 
-0.50245255 0.33440036 0.7973193 
-0.37696198 0.00079936517 0.92622846 
-0.76025575 0.38472578 0.5234477 
-0.9456155 -0.07959008 0.31539935 
-0.94760555 0.12680963 0.29319477 
-0.9784 0.15982373 0.13111049 
-0.8220009 0.5285918 0.21190818 
-0.40465313 -0.72772986 0.55377364 
-0.8324743 -0.5336264 -0.14909548 
-0.565925 -0.7846731 0.25301588 
-0.32237616 -0.69265354 -0.6452168 
0.4067818 -0.82330626 -0.39584765 
-0.21232982 -0.3720897 -0.9035848 
-0.12711026 0.040089983 -0.9910781 
0.655832 -0.2122472 -0.72445536 
0.78716975 0.0060830247 -0.6167065 
0.84097415 -0.43074396 -0.32744798 
0.82010645 -0.21404423 -0.53067005 
0.95048124 0.073308066 0.3020123 
0.92969894 -0.28486738 0.23347495 
0.17010523 -0.20575112 0.9637068 
0.03906619 -0.54119456 0.8399894 
0.47504064 -0.3137021 0.8221481 
-0.101807155 -0.21501637 0.9712896 
-0.7340865 -0.37360466 0.56704193 
-0.6152073 0.67886233 0.4008315 
-0.11563687 0.7354242 -0.6676671 
0.016863981 0.9914199 0.12962346 
-0.52996975 0.6125093 0.58648485 
-0.39259374 -0.2299664 0.89049745 
-0.8385673 0.3682839 0.40146208 
-0.9940011 0.10924399 0.0052716397 
-0.3322681 -0.41314527 -0.84788495 
-0.33782396 0.03343393 -0.9406154 
0.5455565 -0.5188422 -0.6581572 
0.23164813 -0.4705396 -0.8514291 
-0.105629794 -0.39868292 -0.9109854 
0.62366664 -0.2264048 -0.7481851 
0.39775681 -0.21368411 -0.8922604 
0.8337999 0.041236896 -0.5505246 
0.87889266 0.30731797 0.36483347 
0.576973 0.80103886 0.15949586 
0.0030886515 0.9714671 0.23715444 
0.18249153 0.9556266 0.23124605 
-0.42034718 0.80615073 0.4164484 
-0.06401632 0.88659596 0.4580935 
-0.4044666 0.8165255 0.41193822 
-0.2813828 0.94548845 -0.16393676 
-0.8290089 0.5561693 0.05848044 
-0.8165092 -0.5579737 0.14825009 
-0.960104 0.21468401 -0.17919584 
-0.8419027 -0.1637688 -0.51417875 
-0.71688855 0.583738 -0.38120955 
-0.25405502 0.9032993 -0.3456973 
-0.49403036 0.8508416 -0.17889264 
0.05659126 0.8490519 -0.52526987 
-0.12572664 0.8658113 -0.48431772 
-0.41481367 0.77936274 -0.46959916 
-0.8155597 0.5202261 -0.2534311 
-0.5145378 0.40022972 -0.7583317 
-0.122230776 0.479205 -0.8691502 
0.055583213 -0.103963844 -0.99302673 
-0.4577545 0.61517495 -0.64188844 
-0.63516 0.73829633 -0.226915 
0.027488 0.3860944 -0.9220497 
0.2881056 0.76602465 -0.5746317 
-0.024940299 0.8946331 -0.44610497 
-0.135796 0.91884834 -0.37050948 
-0.26019907 0.53040993 -0.80682206 
-0.015345836 0.78361875 -0.6210526 
0.031035576 0.8907731 -0.45338726 
0.31689414 0.9135604 0.2549226 
-0.013921004 0.8963231 0.44318318 
-0.30406463 0.8667831 0.3952618 
-0.4410321 0.54508454 0.7130033 
-0.5375012 0.17217651 -0.8254984 
-0.66447914 0.043429147 -0.7460439 
-0.585378 0.2628338 -0.7669752 
0.07432591 0.40221402 -0.91252375 
0.36566275 0.248424 -0.89698184 
0.8643101 0.08974729 -0.49488747 
0.73162633 -0.4961093 -0.4675452 
0.41416535 -0.2732127 0.86822927 
-0.014303074 0.885223 0.46494713 
0.07193031 0.6324079 0.7712887 
-0.30575353 0.15959322 0.93863994 
-0.3100281 0.5634783 0.7657511 
-0.73652595 -0.020759033 0.67609066 
-0.59205866 0.35002205 0.72591406 
-0.70347905 0.71070015 -0.0047592805 
0.060137026 -0.021589234 -0.9979567 
-0.041348208 -0.15613331 -0.9868702 
0.4790789 0.5844664 -0.6548912 
0.45840472 0.888648 -0.013041004 
0.46446887 0.17938405 -0.86723137 
0.8264214 0.19019677 -0.52995557 
0.8290295 -0.20592211 -0.51990986 
0.6957123 0.24144569 -0.6765268 
0.2974092 0.43650863 -0.84912187 
0.3842942 0.001029863 -0.92321014 
0.45359436 -0.5751357 -0.6807872 
0.82815075 0.1512319 -0.53971785 
0.6415276 0.14165814 0.7539067 
0.19419502 0.88840646 0.41595936 
0.7747788 0.29226395 0.5606245 
-0.10032769 0.034298226 0.9943631 
0.51071125 0.0020557211 0.8597499 
-0.079773255 0.6653411 0.74226516 
0.33860144 -0.2879343 0.89579177 
-0.18676963 0.35880315 0.9145368 
0.042819947 0.77521235 0.6302478 
0.2726641 0.65841305 0.7015316 
-0.599628 0.8002768 0.0018683879 
0.22951809 0.88090837 0.41391057 
0.8876897 -0.09411999 0.4507201 
0.92189705 -0.38742083 -0.003336233 
0.9409591 0.04340506 0.33572608 
0.8229555 0.15462868 0.54665744 
0.57342565 -0.31735992 0.7552919 
0.32358092 0.024619332 0.94588023 
-0.83302516 -0.32740217 0.44595638 
-0.8788334 -0.23841065 0.41329426 
-0.97830296 0.20291501 0.04181907 
-0.97966766 -0.09680759 -0.17572582 
-0.85642636 0.33578867 -0.39214775 
-0.15957591 0.3824299 -0.9101006 
-0.900265 0.34991643 -0.25900108 
-0.31525457 -0.062849246 -0.94692373 
-0.34226048 0.37900066 -0.85977685 
-0.31191188 -0.02321487 -0.94982743 
-0.11122794 0.14723538 -0.9828276 
0.2305459 0.46207818 -0.8563482 
0.55234486 0.2952069 -0.7795949 
-0.101114824 -0.3791272 -0.9198035 
0.13949329 0.37421128 -0.916792 
0.70851284 0.5063097 -0.49158937 
0.43612465 0.56171805 -0.70304215 
0.39315057 0.39797676 -0.82888305 
0.34325925 -0.24827856 -0.9058317 
0.80444294 -0.3149557 -0.50366104 
0.8548185 0.06865619 0.5143655 
0.18840078 0.5358644 0.8230156 
0.68139046 0.4382642 0.58620095 
-0.12941676 0.3598874 0.9239764 
-0.72684264 -0.65812886 0.19638285 
-0.94794923 0.0067628548 0.31834975 
-0.8545783 0.034716666 -0.5181609 
-0.9301252 0.080114834 -0.35839748 
-0.886557 -0.28602836 0.36359957 
-0.5443643 -0.5152346 -0.6619674 
-0.37331468 -0.32801908 -0.8677786 
-0.14139293 -0.10835262 -0.98400605 
0.11993731 -0.83726513 -0.53348124 
0.13457128 -0.4729725 -0.87073976 
0.06538284 -0.86400694 -0.4992166 
0.52761376 -0.39116183 -0.7540665 
0.33163545 -0.5233832 -0.78491277 
0.59269834 -0.7354894 -0.32827446 
-0.06839427 -0.03914169 -0.99689025 
0.27851248 -0.8275527 -0.48742935 
0.78499645 0.19364443 -0.5884577 
0.935909 0.24246423 0.25551018 
0.8926111 0.33615652 0.300407 
0.9821164 0.1844295 0.03785756 
0.8780986 0.44468507 0.17662986 
0.76161456 0.64700645 -0.03641529 
0.09800005 0.5303415 0.8421009 
0.45567924 0.037530888 0.88935256 
0.5335936 0.19438377 0.82309955 
0.26038015 0.93230766 0.2510072 
0.3583225 0.65353984 0.66670144 
-0.17402361 0.46541807 0.8678145 
0.3602362 0.07171246 0.9301007 
0.039632246 0.018092608 0.99905056 
-0.06954263 0.093409814 0.9931961 
0.29427153 -0.3500856 0.88929427 
-0.2624136 0.09925673 0.9598371 
-0.18809456 -0.19502038 0.9625942 
0.037012085 0.2808406 0.9590406 
0.05793928 0.33754787 0.9395236 
0.23069498 -0.04172822 0.97213095 
0.16457464 -0.11091505 0.9801087 
-0.060061365 -0.27321857 0.96007514 
0.2608684 0.020929176 0.96514755 
0.065540195 -0.3363662 0.93944794 
-0.24139893 -0.5950282 0.7665951 
-0.66209406 -0.45414007 0.5961446 
0.2990748 -0.75251323 -0.5867523 
0.9346032 -0.13828072 -0.3277124 
-0.08707824 -0.46743545 -0.87972814 
0.35426083 -0.292648 -0.8881759 
0.31876358 0.5422465 -0.77740496 
0.33162564 0.69010663 -0.64325535 
0.5209693 0.70807415 -0.4766781 
-0.22074771 0.76592726 -0.6038428 
0.10652809 -0.32926795 0.9382081 
-0.25989747 0.7076563 0.65702045 
-0.50341403 0.8635466 -0.029352454 
0.33009726 0.86706984 0.37312984 
-0.5535287 0.67328537 0.49019673 
-0.64604115 0.23499736 0.726228 
-0.29347345 0.60077035 0.743605 
0.024106005 0.3529051 0.9353486 
-0.12340497 0.17413601 0.9769585 
0.046342857 0.7954508 0.60424364 
-0.22623624 0.13330871 0.9649073 
0.22000839 0.51605815 0.8278166 
0.106201135 0.9024253 0.41755238 
0.29786938 0.5859142 0.7536434 
0.3104356 0.7839797 0.53759235 
0.8401512 0.35683346 0.40843114 
0.82067925 0.037619393 0.57014936 
0.23475137 0.3589739 0.9033436 
0.15348077 -0.228289 0.96141976 
0.17327963 0.23646446 0.9560642 
0.023138313 -0.15326391 0.98791444 
-0.73801816 -0.30496678 0.601934 
-0.8606255 -0.25688314 0.43969843 
-0.89000213 0.17145304 0.42249286 
-0.9707634 -0.15711197 0.18147805 
-0.73169535 -0.44753966 -0.5141306 
-0.16187176 0.043632172 -0.9858468 
-0.10057405 -0.10111778 -0.98977786 
0.03323724 -0.29758766 -0.9541158 
0.099894516 0.4351563 -0.89479613 
0.72426987 0.5273736 -0.44419616 
0.85844713 -0.37853593 -0.34609133 
0.94349414 0.33120364 0.011093881 
0.96910906 0.105170995 -0.22308472 
0.8927308 0.4427106 -0.083899006 
0.9218434 -0.17936653 0.34355843 
0.99216044 -0.037244897 0.11929239 
0.51132035 0.8056735 0.2990683 
0.17268181 0.47099113 0.8650714 
-0.23137325 -0.23779677 0.9433553 
-0.9574367 0.20546302 -0.20273148 
-0.74139917 0.5840516 -0.33047098 
0.004425021 0.5895324 -0.8077326 
0.24726015 0.8067415 -0.5366849 
0.14768513 0.8063746 -0.57266855 
0.5849129 0.63716966 -0.50188833 
-0.53087187 0.8199438 -0.2141669 
-0.07533465 0.8514869 -0.5189361 
0.12656614 0.92053443 -0.36959097 
0.16552836 0.37994957 -0.9100762 
0.18952973 -0.38123363 -0.9048422 
0.7259382 -0.6356663 -0.26256838 
0.8289847 -0.45626065 -0.3234358 
0.9681285 0.14122 -0.206843 
0.6773426 -0.41325483 0.6086276 
0.63860744 0.35171223 0.6844553 
-0.20378856 -0.2592745 0.94405884 
-0.24689901 -0.03376519 0.96845275 
-0.4325523 0.36888573 0.8226919 
-0.05932857 0.11748218 0.9913013 
0.28535485 -0.6025585 0.745316 
0.50684637 -0.07001664 0.8591882 
-0.34400705 -0.4587079 0.8192962 
0.14383413 0.3092045 0.9400555 
-0.64440733 0.60624176 0.46605805 
-0.8840153 -0.10425344 0.4556844 
-0.67912394 0.33842525 0.65135175 
-0.7856385 -0.15779391 0.59822506 
-0.57807815 -0.76694554 0.27860415 
-0.69191396 -0.7119318 -0.12003461 
-0.97089285 -0.23509115 -0.045818377 
-0.7123292 -0.5001453 -0.49238384 
-0.6917143 -0.7200104 0.05582421 
0.58829355 0.029508108 -0.8081089 
0.4992262 0.13428007 -0.8560036 
0.9121084 -0.08940216 -0.4000818 
0.95239335 -0.12466855 -0.27821714 
0.99973166 0.006014442 -0.022373267 
0.32428458 -0.3117576 -0.8931107 
0.75442314 -0.6546287 -0.048032038 
0.09979024 -0.9939172 0.046588607 
0.34667012 -0.4798408 0.80596066 
-0.12018896 -0.85714865 0.50085 
0.6071317 -0.61386704 0.50453776 
0.7263888 -0.097956754 0.6802675 
-0.20251754 -0.2821729 0.93774474 
0.18650427 0.90925163 0.37212583 
0.015654173 0.9570352 0.2895493 
0.32650915 0.77573186 0.5400295 
0.038418066 0.80327326 0.59437037 
-0.82734716 0.10391317 0.5519953 
-0.8867177 0.1566443 0.43496478 
-0.96257204 0.1548241 -0.22245121 
-0.098987654 0.30565807 -0.94698185 
-0.4865921 0.13972203 -0.86238384 
0.11563058 -0.046899874 -0.99218446 
0.1563069 -0.20464511 -0.96627563 
0.17101237 0.39596072 -0.90220284 
0.12759444 -0.7472054 -0.65222996 
0.65000784 -0.32557523 -0.68665177 
0.6451653 -0.2232569 -0.73069704 
0.9531269 -0.2815972 0.11068893 
0.6155393 0.4763518 0.6278538 
0.6588962 0.16651355 0.73357284 
0.027321387 0.08677991 0.9958528 
-0.46243167 0.8864974 -0.016714824 
-0.5063166 0.6795864 0.530854 
-0.9284993 0.2676173 0.25742996 
-0.9319199 0.3516774 0.0885919 
-0.8931128 0.34434298 -0.2894438 
-0.85721004 0.3289442 -0.39621538 
-0.6482966 0.70557964 -0.28612763 
-0.8486393 0.417112 -0.32531372 
-0.18376485 0.68663365 -0.7033951 
-0.38591003 0.9218622 0.035267107 
-0.23223332 0.8571907 -0.45966497 
0.14477465 0.89680105 -0.4180768 
-0.3886365 0.9149244 -0.108973034 
-0.55267376 0.56997484 -0.60801363 
-0.2848561 0.8945414 -0.34446025 
0.11602328 0.7691649 -0.6284299 
0.19500692 0.28824764 -0.93748903 
0.037532058 0.88153744 -0.47062016 
-0.3665865 0.8769418 -0.3107854 
0.4615296 0.8093083 -0.36333275 
0.027317269 0.98815435 -0.15101294 
0.3432838 0.90019375 -0.26796952 
-0.22581434 0.8432598 -0.4877712 
0.069940254 0.89117783 -0.44823033 
-0.36876306 0.8230944 -0.43189058 
0.7371385 0.6095527 0.2916719 
0.5937347 0.7983962 0.10021318 
0.36228904 0.8894279 0.27868414 
-0.18707529 0.55905664 0.80774915 
0.11087946 0.086837396 0.99003285 
-0.45400274 -0.39963788 0.7963487 
-0.5503503 0.49050772 -0.6756602 
-0.5375655 0.62488574 -0.56616366 
-0.28383344 0.5234745 -0.8033761 
0.13387576 0.40029338 -0.90655535 
0.24548827 0.032593414 -0.96885157 
0.96009654 0.04172915 -0.27653816 
0.93789214 -0.2170722 0.2706256 
0.6570947 -0.018726135 0.7535755 
0.1302027 0.36133957 0.9232991 
0.29184216 0.09769752 0.95146376 
-0.008377658 -0.5368006 0.84366757 
-0.44047767 0.24552798 0.8635366 
-0.6309596 0.26331267 0.72976476 
-0.50194985 -0.14155237 0.8532346 
-0.42117205 0.36193827 0.8316338 
-0.157443 0.83771604 -0.52291846 
0.2598208 0.26710153 -0.9279817 
0.4919358 0.2797032 -0.82447886 
0.29739547 -0.21205163 -0.9309082 
0.30693206 0.6907615 -0.65470713 
0.4235074 -0.5891239 -0.68816763 
0.19751972 -0.040727418 -0.9794526 
0.21324125 0.18458544 -0.9594043 
0.2443175 0.012367153 -0.9696164 
0.77412534 0.548692 -0.3157012 
0.18952015 -0.20317589 -0.96062577 
0.47704232 0.69142205 -0.5425553 
0.9517917 -0.07510817 -0.29740763 
0.807912 -0.043313265 0.58770925 
0.47314987 0.18052137 0.8622885 
0.33062273 0.31959245 0.888003 
0.50759435 0.8073147 0.3009834 
-0.54827636 0.5459064 0.6335449 
-0.5885496 -0.056685854 0.80647147 
-0.14361681 0.24165508 0.9596755 
-0.029626798 0.39410603 0.9185874 
0.53603244 0.72780836 0.42774314 
0.04779421 0.78121233 0.62243325 
0.48403907 0.6232065 0.6142637 
0.7111218 0.2532938 0.6558567 
0.91579103 -0.055854794 0.39775255 
0.99970734 -0.020933302 0.012125534 
0.83084977 -0.30429694 0.46593156 
0.11288465 0.2418689 0.9637202 
0.0155934645 -0.31990552 0.9473212 
-0.009436452 -0.13481687 0.9908256 
-0.5144357 -0.2231893 0.827975 
-0.6493039 0.17860638 0.73925924 
-0.69958645 0.70234877 0.1314727 
-0.40326592 0.9150829 -0.0003418154 
-0.25884226 0.91983366 -0.29479954 
-0.8210587 0.54876494 -0.15722486 
-0.545429 0.35952997 -0.7571297 
-0.73309505 0.53147846 -0.4243847 
-0.9180054 0.36044255 -0.16537073 
-0.31832245 0.48594955 -0.81395566 
0.6757786 0.06841235 -0.7339231 
0.24147083 0.55487317 -0.79612046 
-0.11386945 -0.25486678 -0.96024823 
-0.19949175 0.5196403 -0.83076894 
0.8205826 0.39337522 -0.4146084 
0.48894048 0.5916864 -0.6409714 
0.4780863 0.716687 -0.5077334 
0.5900661 0.68555343 -0.42642528 
0.776041 0.46015137 -0.4313019 
0.6283517 0.022178197 0.7776133 
0.55791926 -0.0501278 0.82837987 
0.59225035 0.17886448 0.78565085 
-0.4155351 0.69951016 0.5813916 
-0.79779094 -0.2573926 0.5452328 
-0.9814855 0.147671 0.12198228 
-0.9208293 -0.22424607 -0.3190408 
-0.5542094 -0.35346755 -0.7535998 
-0.6554162 -0.25602293 -0.7105505 
-0.65159243 0.020240262 -0.7582991 
-0.50321794 -0.20481685 -0.8395366 
-0.5094282 -0.37575132 -0.77414066 
-0.35090977 -0.06349072 -0.9342544 
-0.3699312 0.073896386 -0.92611575 
0.52564466 -0.5731794 -0.62861997 
0.39655796 -0.41426066 -0.81922525 
0.3790599 -0.05801052 -0.9235521 
-0.06877953 -0.13661645 -0.98823345 
0.5377526 -0.13027301 -0.8329773 
0.62901586 -0.45244378 -0.63216597 
0.83614236 0.34942546 -0.42280957 
0.95313585 0.11742867 0.27882388 
0.9150865 0.37891808 0.13797821 
0.9264946 -0.36269662 -0.10029493 
0.6095223 0.4706627 0.63793355 
0.7782217 0.5614892 0.2812488 
0.76717746 0.09177309 0.6348358 
0.7704908 0.59835184 0.21981579 
0.9029375 0.32341716 0.28302893 
0.35536432 0.81004924 0.46640792 
0.37440303 0.8116186 0.44843912 
0.041888744 0.69802725 0.71484494 
0.3054112 0.11991051 0.94464046 
0.58334816 -0.11208352 0.8044515 
0.7040989 -0.23532529 0.66997534 
0.5002207 -0.2746361 0.82119083 
0.31642583 -0.11287084 0.9418784 
-0.20166974 -0.41681078 0.8863398 
-0.19208929 -0.25264376 0.9483 
-0.59680593 0.5113295 0.6183567 
0.63596714 -0.325534 0.6996952 
0.37145305 -0.72783494 0.5764366 
0.17895798 -0.94700944 0.26673454 
0.31659406 -0.9468115 0.057586096 
0.09648381 -0.9610702 0.25891116 
0.060796242 -0.9973019 0.041145235 
-0.26729468 -0.90732765 -0.32451525 
0.6264372 -0.12344785 -0.7696345 
0.6564633 -0.7543465 0.0041788574 
0.7133426 -0.44747037 -0.5393632 
0.6079492 -0.29839838 -0.7357692 
0.979276 -0.1782352 0.09618068 
0.49255192 0.8444583 0.21043472 
0.86564046 0.43536744 0.24722849 
0.20330669 0.76113373 0.6159075 
0.60496676 0.7493923 0.2691218 
0.53499377 0.5744934 0.6194667 
0.34187692 0.487669 0.80330527 
0.6039277 0.69460267 0.3908945 
0.5914208 0.57044566 0.5699239 
0.46507135 -0.07584432 0.8820184 
-0.20248823 0.28089988 0.9381332 
-0.17844096 -0.34358302 0.9220139 
0.24834374 -0.09446126 0.96405524 
-0.45080867 -0.2294428 0.8626284 
0.5930124 -0.51265 0.6209077 
0.8610929 0.1355318 0.49005127 
0.7832451 0.0657928 0.618222 
0.37942955 0.17273116 0.9089539 
0.7089765 0.6818646 0.18003617 
0.9283482 0.18514854 0.32231924 
0.5017449 -0.48303962 0.7175826 
0.5190985 0.022045884 0.85443014 
0.84598756 0.13533139 0.51574284 
0.59872335 -0.30252528 0.74162585 
-0.13803904 0.2645991 0.9544279 
-0.91775924 0.06416614 0.39191943 
-0.9591506 0.009554278 0.28273484 
-0.9585135 0.22017473 -0.18103895 
-0.53942186 -0.51810086 -0.6637738 
-0.06953478 -0.31597358 -0.9462165 
-0.6885175 -0.09394453 -0.7191093 
-0.63101685 0.34610847 -0.6942814 
-0.46079037 0.4638922 -0.75662166 
-0.34474948 -0.1449295 -0.9274391 
0.62618786 0.22982673 -0.74502915 
0.5697218 -0.114541635 -0.8138165 
0.89378047 0.4152019 0.16959947 
0.6365638 0.36274242 0.6805913 
0.6839506 0.5397255 0.49082378 
0.72083074 -0.39840424 0.567166 
0.24973269 -0.4000925 0.88179344 
0.6276769 -0.030493109 0.7778765 
0.35058123 0.454147 0.8190502 
-0.07320191 0.40958303 0.9093312 
-0.5078758 0.65427256 0.56034774 
-0.74547446 0.66343 0.064253755 
-0.18827717 0.7005678 -0.6882998 
-0.06131195 0.8955375 -0.44074187 
-0.0875909 0.9253046 0.36897072 
0.16297936 0.8904241 0.42495033 
-0.39862028 0.9148999 0.06371993 
0.239557 0.8976378 -0.3699444 
-0.30772182 0.34826696 -0.8854477 
-0.69334704 0.6674951 -0.2715148 
-0.50794506 0.7513675 -0.42123464 
0.5614505 0.40859693 -0.7195985 
0.82322603 0.3995403 -0.40331924 
0.29386887 0.0666112 0.9535219 
0.69167113 0.03710675 0.7212588 
0.6275283 0.68465203 0.37075585 
0.18575552 -0.25231493 0.9496484 
0.3416882 -0.16028227 0.9260447 
0.47198457 -0.016065963 0.8814604 
0.07818049 -0.7129444 0.6968487 
-0.18435873 -0.6341049 0.7509481 
0.1783923 0.08561553 0.9802276 
-0.042672668 -0.6240317 0.7802331 
0.30892384 0.119188376 0.94358903 
-0.94545585 0.27347818 0.17698303 
-0.48904312 0.68198025 0.5438196 
-0.51351315 -0.21491824 0.83073133 
-0.912104 -0.24106327 0.33159456 
-0.59972715 -0.7368865 -0.31197062 
-0.695518 -0.31486323 -0.6458451 
-0.8599211 -0.010500661 -0.51031905 
-0.44987974 -0.5364619 -0.71401465 
-0.46977338 -0.66327864 -0.5825585 
0.5001849 -0.33126137 -0.8000506 
0.27970284 0.09394725 -0.9554791 
0.36785227 -0.4374139 -0.82058144 
0.37121433 -0.116385534 -0.9212244 
0.56370264 -0.080392286 -0.82205623 
0.032462854 -0.96065134 -0.2758539 
0.76175517 -0.6139381 -0.2069035 
0.9987578 0.035713863 -0.03475001 
0.9148299 -0.40022653 -0.053897135 
0.7300412 -0.67995673 -0.068546936 
0.66950315 -0.6979297 0.25428265 
0.71122515 -0.47414634 0.51898366 
-0.19041866 -0.5038662 0.8425317 
-0.12712933 0.43861783 0.88963616 
0.06455762 0.35668355 0.9319921 
0.51851726 0.35154274 0.7794598 
-0.34745818 -0.36830553 0.8623363 
-0.9823326 -0.1739774 0.06895423 
-0.8133646 0.077857226 -0.5765208 
-0.5782545 0.001887902 -0.8158544 
-0.3525813 -0.55518544 -0.75329655 
-0.5287284 0.11759997 -0.84060484 
0.3363649 0.6295011 -0.70041925 
0.106488995 0.6384002 -0.76230264 
0.4427394 -0.00076960574 -0.8966501 
0.8194076 -0.57290715 -0.018675273 
0.76693404 -0.3998321 -0.50194275 
0.40078425 -0.5130479 -0.759048 
0.6575664 0.17818634 -0.73202187 
0.90957624 0.41528544 -0.014463272 