# OOMMF: rectangular mesh v1.0
# Segment count: 1
# Begin: Segment
# Begin: Header
# Desc: Time (s) :  3.46e-07
# Title: m
# meshtype: rectangular
# meshunit: m
# xbase: 2e-09
# ybase: 2e-09
# zbase: 5e-10
# xstepsize: 4e-09
# ystepsize: 4e-09
# zstepsize: 1e-09
# xmin: 0
# ymin: 0
# zmin: 0
# xmax: 1.024e-06
# ymax: 1.024e-06
# zmax: 1e-09
# xnodes: 256
# ynodes: 256
# znodes: 1
# ValueRangeMinMag: 1e-08
# ValueRangeMaxMag: 1
# valueunit: 
# valuemultiplier: 1
# End: Header
# Begin: Data Text
0.9595068 0.08704445 -0.26789913 
0.8287614 0.035441615 0.5584789 
0.640555 0.49848542 0.5841247 
0.8201852 0.08625483 0.56555843 
0.5685511 0.54807484 0.6134849 
0.5719938 0.6172084 0.54025626 
0.31009609 0.074622184 0.9477722 
0.59472114 0.20408286 0.777597 
-0.41434175 -0.070740834 0.90736806 
-0.86148316 0.010213804 0.5076836 
-0.91425145 0.2275069 -0.3352389 
-0.9810475 -0.102317736 0.164551 
-0.8637064 0.30547935 -0.40086606 
-0.59048223 -0.5843007 -0.5567077 
-0.4271395 -0.01648721 -0.9040354 
0.41963196 -0.35222158 -0.83656985 
0.87403 -0.43998483 -0.20611843 
0.9657103 0.24059331 -0.09756252 
0.98875093 0.07636207 0.1286096 
0.5023484 0.4838607 -0.7166065 
-0.35632458 0.75645435 0.54846126 
0.24693294 0.084413946 0.9653489 
0.1735414 0.6296244 0.757269 
0.1940041 0.35290673 0.9153247 
-0.099311024 0.44993356 0.8875231 
-0.79793054 0.6015207 0.03846727 
-0.6227076 0.32978293 -0.70956224 
-0.2912924 0.5998697 -0.74518794 
-0.070062846 0.1817224 -0.98085076 
0.024933888 0.6018359 -0.7982305 
0.19905342 0.04522472 -0.97894454 
0.83442754 0.34306014 -0.43132398 
0.44769162 -0.3557662 -0.8203674 
-0.19508441 -0.075717434 -0.97785944 
0.19396847 -0.3094648 -0.93091774 
0.80460846 0.45365733 -0.38314545 
0.6680666 0.15976357 -0.726748 
0.88123256 0.16029233 0.44467485 
0.6000073 -0.18511267 0.7782831 
0.4978075 0.8406012 0.21348837 
0.41576907 0.8998654 -0.13182777 
0.59278065 0.77670825 -0.21292092 
0.84282213 0.26078647 0.47078794 
0.9199981 0.38010195 -0.09553059 
0.8351012 0.26252186 0.48341334 
0.74905807 -0.4390561 0.4961268 
0.41779956 -0.20692205 0.8846621 
0.44277948 -0.2128036 0.87101156 
-0.20224743 0.7705468 0.60444486 
0.5068253 0.14810592 0.8492307 
0.5552 0.58383584 0.5923587 
0.8102085 0.39927396 0.42911848 
0.48103422 0.25843263 0.8377462 
0.04533806 0.036082853 0.9983199 
0.14826913 -0.2456101 0.95796245 
-0.40166718 0.44347087 0.8012472 
-0.4774488 0.79264534 0.37915185 
-0.7234568 0.36586308 0.5854525 
-0.8126943 0.18309599 0.5531761 
-0.9894459 0.082867764 -0.118868284 
-0.78216106 -0.4643283 -0.41547987 
0.1682545 -0.91317946 -0.371206 
0.0019252714 -0.8258817 0.56384027 
-0.17090254 -0.9834746 -0.059749212 
0.45046896 -0.47972673 -0.7529542 
0.71234727 -0.093159765 -0.6956167 
0.6017841 -0.6666155 -0.4398633 
0.99537855 -0.06609163 0.06966613 
0.94194084 -0.18187076 0.28225988 
0.53668755 -0.2998867 0.78869164 
0.37899518 -0.66753733 0.64090306 
-0.57178783 -0.79728204 0.19339134 
-0.41105333 -0.56139153 -0.71824425 
0.316744 -0.7895764 -0.52558774 
-0.37624604 -0.54852164 -0.7467014 
-0.15228209 -0.2796118 -0.94795966 
-0.51214725 -0.14337756 -0.846846 
-0.6323311 0.4678933 -0.617441 
-0.32111508 0.038648557 -0.9462513 
-0.079005726 -0.2949453 -0.9522423 
0.6145438 -0.75443107 -0.23058543 
0.9937276 -0.11140514 -0.009720724 
0.99866784 0.041537333 0.03061611 
0.7842019 0.36887467 0.4989577 
0.8531426 -0.09689443 0.5126003 
-0.02889184 -0.19748028 0.9798811 
0.6499963 0.30915517 0.69421035 
0.6627448 -0.34983215 0.6621078 
0.23271511 -0.3739205 0.89779013 
0.46360517 -0.2722882 0.8431664 
-0.14907649 -0.73744386 0.65875095 
-0.27882197 -0.9177675 -0.2827742 
-0.016068054 -0.4817058 0.8761858 
0.01644888 0.40833643 0.91268337 
0.022483662 0.7690331 0.6388134 
-0.015840042 0.12393248 0.9921643 
0.84173435 0.46083632 0.28127104 
0.7229893 -0.09264645 0.68461895 
0.8428369 0.029807417 0.5373429 
0.69539905 -0.35395807 0.62540704 
0.35018423 -0.4733955 0.8082498 
0.16495283 -0.7278856 0.66556233 
0.3552487 -0.12375593 0.92654353 
0.38786083 -0.2377523 0.8905268 
0.42542455 -0.86254007 0.27393174 
0.9452309 0.18299784 -0.27027828 
0.7720567 0.48906103 0.40589154 
-0.026136737 0.97732615 -0.2101203 
0.24834782 0.6784775 -0.6913694 
0.21303964 -0.040068753 -0.9762216 
0.6866301 0.32718238 -0.64922327 
0.3409971 0.5917208 -0.7304707 
0.0054043503 0.8023387 -0.5968445 
-0.079152614 0.4954195 -0.8650402 
-0.20712101 -0.38709903 -0.89847386 
0.02210807 -0.1745263 -0.98440427 
0.91234565 0.30387187 -0.27438533 
0.7315706 -2.0418353e-05 -0.6817658 
0.7605522 0.60931486 0.22426707 
0.6313226 0.22337024 0.74265575 
-0.5335507 -0.46595743 0.705838 
-0.6295861 -0.26604253 0.72996086 
-0.3603532 -0.29856962 0.88374305 
-0.27642438 -0.7500473 0.60084826 
-0.47932896 -0.47397965 0.7386387 
-0.34951696 -0.65098315 0.67383885 
-0.5617961 -0.8269037 -0.024806444 
-0.34920388 -0.366367 -0.8624569 
-0.19457239 -0.42237982 -0.88528913 
0.1252218 -0.59114385 -0.79678637 
-0.12069014 0.527354 -0.84103024 
0.14282933 0.875922 -0.46082583 
-0.11731095 0.87026817 0.47840515 
-0.48686928 0.80816793 -0.33139545 
-0.3670604 0.84396875 0.39113107 
-0.067544386 0.9865267 0.14900592 
0.04083384 0.9906494 -0.1301786 
-0.77833354 0.57341284 -0.2557235 
-0.8503889 0.08450049 0.51932496 
-0.9617048 0.0072353054 0.273992 
-0.8967205 0.42877725 -0.10973755 
-0.74044883 0.6203022 -0.25876796 
-0.28147846 0.09525018 -0.95482844 
-0.14116514 -0.12966514 -0.98145777 
-0.11837237 0.7766377 -0.618726 
0.0020974148 0.43163562 -0.90204567 
0.023223158 0.98575115 0.16659978 
-0.40972814 0.9122075 0.0005839235 
0.35024652 0.92702466 -0.13398808 
0.77355087 0.59473985 -0.21886913 
0.8865597 0.4509766 0.10311181 
-0.04263786 0.21978158 0.97461694 
-0.18522234 -0.1284357 0.9742674 
-0.8262004 0.05001847 0.5611515 
-0.36961514 -0.060637567 0.92720425 
-0.6243874 -0.46244386 0.62951267 
-0.47522587 -0.28415644 -0.83271575 
-0.40458068 -0.822757 -0.39923102 
0.3575816 -0.34121022 -0.8693164 
0.67014295 -0.5606824 -0.4863576 
0.023418507 -0.87126964 -0.49024567 
0.47498545 -0.7581445 -0.44677266 
0.829661 -0.3393407 -0.4432951 
0.952254 0.24637085 -0.18031597 
0.80718607 -0.3173325 0.49774572 
-0.11411164 0.38598394 0.91542065 
-0.6614853 0.45036677 0.59967244 
-0.3205228 0.818684 0.47646803 
0.0110239 0.5988096 0.8008155 
-0.2593106 -0.15685973 0.95297074 
-0.60862917 0.18305999 0.77204895 
-0.18990527 -0.58436143 0.78896 
-0.64673126 -0.043671645 0.7614667 
-0.8691239 -0.49176675 0.05281471 
-0.9797836 -0.19753623 -0.03167905 
-0.4145297 -0.90817785 -0.05812154 
-0.67067975 -0.7416803 -0.009952356 
0.511427 0.016047196 0.8591769 
-0.019726323 -0.5297299 0.847937 
-0.6447896 -0.5737195 0.50506663 
-0.16390449 -0.56872773 0.8060299 
-0.11410189 -0.5339504 0.8377814 
0.5407398 -0.6622292 0.5187033 
0.56563413 -0.46399575 0.68173754 
0.5782366 0.13465396 0.80468065 
0.5078692 -0.5439725 0.66795427 
-0.022872534 -0.575431 0.81753045 
0.40142146 -0.50658375 0.7630424 
0.6525144 -0.2690853 0.70839125 
-0.42656592 -0.51472104 0.74370956 
-0.11390601 -0.25959295 0.958977 
-0.092997566 0.8450305 0.52656907 
-0.15953925 -0.12139529 0.97969913 
-0.046733707 -0.1200445 0.991668 
-0.28843504 0.14777678 0.94602716 
-0.5575925 -0.033309896 0.8294463 
-0.61455464 0.37532422 0.6938692 
-0.44956818 0.08708077 -0.88899136 
-0.29416862 0.6883428 -0.66306037 
-0.33345813 -0.12136102 -0.93492097 
-0.11067979 -0.14859664 -0.9826846 
-0.1734845 0.3659524 -0.9143206 
-0.49836034 -0.08194943 -0.86308825 
0.15531172 0.06879364 -0.9854673 
0.22517732 0.19938159 -0.95369923 
0.64543563 -0.096032746 -0.7577536 
0.058550928 -0.07819672 -0.99521714 
-0.7160716 0.10041864 -0.690766 
-0.6463029 0.6213004 -0.44303334 
-0.3577812 0.8199298 -0.44688687 
0.6307195 0.6944069 -0.34639856 
-0.9454477 -0.17816214 -0.27273974 
-0.22739959 -0.39595574 -0.88966775 
0.44735208 -0.81417686 -0.37012455 
-0.52543414 -0.06868705 -0.8480573 
0.08898566 0.02948102 -0.9955965 
0.08716609 0.4468235 -0.8903656 
0.47993937 0.004395281 -0.8772906 
0.94559807 0.28995982 -0.14753914 
0.6883307 0.29639217 0.66208196 
0.3403937 0.42792818 0.8372632 
0.78676856 0.32956377 0.52190316 
0.67366284 0.6792901 -0.29110712 
-0.028756259 0.9004006 -0.43411052 
-0.37193114 0.9253451 -0.07351069 
-0.50385785 0.5355536 -0.6777239 
0.5162983 0.75142753 -0.4108438 
0.5092895 0.3013738 -0.80610055 
0.031512227 0.087337166 -0.9956803 
-0.068049274 0.5720069 -0.81742126 
0.29072252 0.4950265 -0.81879747 
-0.5784496 0.5245504 0.6246944 
0.07914638 0.9507895 0.2995586 
-0.742584 0.6693834 -0.02224705 
-0.8442687 0.20419522 -0.49549448 
0.0647932 -0.016964566 -0.9977545 
-0.37538654 -0.34429076 -0.8605514 
-0.42347592 -0.69890195 -0.57637167 
0.34058338 0.29353654 -0.8932185 
-0.82251215 -0.26902476 -0.50109845 
-0.45021987 0.43399614 -0.7803521 
0.3588943 -0.6722714 -0.6474922 
0.042314623 -0.0010054103 -0.99910384 
0.0576349 -0.19737826 -0.9786318 
-0.34998325 -0.006543682 -0.9367332 
-0.046551287 0.6140005 -0.7879318 
-0.8775391 -0.4792553 0.015478008 
0.16708855 -0.26046962 -0.95091385 
-0.3840701 0.43336812 -0.8152806 
0.33425558 0.43684295 -0.8351296 
0.3530044 0.77418405 -0.5253826 
0.7081825 -0.69078314 -0.14593221 
0.5814407 -0.1598811 0.79772484 
0.76907367 0.3576962 0.5296974 
0.44611874 0.37688604 0.8117481 
0.000521627 -0.17 0.98544395 
0.6394271 0.50489897 0.5798362 
0.81334156 -0.37636042 -0.44365352 
0.79083204 0.5060156 -0.34428602 
0.82495314 0.089750014 0.5580298 
0.027476987 0.4717713 0.88129276 
0.4561209 0.40320316 0.79333544 
0.120487124 0.26005 0.95804846 
-0.041505937 0.0329742 0.998594 
0.34536964 0.02277325 0.93819046 
-0.64200723 -0.7156931 0.27497303 
-0.81710804 -0.18142456 -0.5471926 
-0.95177925 -0.211584 -0.22214508 
-0.8096242 0.01832204 -0.58666265 
-0.591214 -0.56667936 -0.5738819 
-0.45605436 -0.09332256 -0.8850454 
0.09876619 -0.26977926 -0.95784366 
0.9506692 -0.24682127 -0.18790288 
0.77504265 -0.28554994 0.56371117 
0.83437026 0.52839446 0.15692544 
0.8166454 0.573697 0.062946275 
-0.135973 0.73337597 0.6660864 
0.3464492 0.44106433 0.8279102 
0.22236624 0.1930685 0.9556557 
-0.80518 0.16019025 0.5709854 
0.38263762 0.6013575 0.7013969 
-0.6954766 0.42897537 0.57644814 
-0.2402418 0.93467814 -0.26203173 
0.012954445 0.76083183 -0.64881986 
0.19625337 0.17993744 -0.96390206 
-0.53809315 0.62891936 -0.561174 
0.60669214 0.15990227 -0.77868867 
0.7917238 0.47992173 -0.37795308 
0.75301546 -0.4340552 -0.494534 
0.823035 0.014242224 -0.567812 
0.28889662 0.3069846 -0.9068071 
0.8710935 0.11210417 -0.47815153 
0.5247884 0.7019152 -0.48157275 
0.5777863 0.7857752 0.22072735 
0.55009276 0.450895 0.7029165 
0.39333287 0.85609657 0.33524328 
0.705316 0.633373 -0.31838349 
0.6809756 0.6742781 0.2856945 
0.8287637 0.48063996 -0.28659356 
0.8830295 0.41842052 -0.21256356 
0.98963505 -0.13529333 0.048148774 
0.77752066 0.45057955 0.43867958 
0.47556862 -0.31941155 0.8196407 
0.0157148 -0.29824007 0.95436156 
-0.74671453 -0.53031605 0.4014753 
-0.3902967 -0.1314421 0.91125816 
0.6151263 -0.10248608 0.7817393 
0.49782863 0.8259959 0.2643814 
-0.09788534 0.56760085 0.81746435 
-0.27737644 0.30239493 0.9119318 
-0.78141683 0.14178233 0.60768867 
-0.39249295 0.22089338 0.89283556 
-0.29024014 0.5163995 0.80566263 
-0.5546135 0.32130384 0.76757264 
-0.65343547 -0.5676901 0.5007496 
-0.92775804 0.3376921 0.15883672 
-0.99569386 -0.08063258 -0.045741145 
-0.7787837 -0.58879495 0.21637137 
-0.5719735 -0.79160786 0.21494997 
-0.08552289 -0.980505 -0.17690624 
0.050372012 -0.57319015 -0.8178727 
0.6165005 0.15114817 -0.77271044 
0.91591513 0.38667762 0.107610665 
0.8643544 -0.3997929 -0.30505276 
0.672742 -0.7223024 0.16030432 
0.47438997 -0.44249198 0.7610223 
-0.05958036 -0.36375514 0.92958724 
-0.7706967 -0.6305469 -0.09185517 
-0.55735934 -0.49964216 -0.6631051 
-0.12478115 -0.92675453 -0.35433853 
-0.8332898 -0.05129221 -0.550452 
-0.24797383 -0.349166 -0.9036549 
-0.643856 -0.22957893 -0.72989243 
-0.63777584 -0.7539172 -0.15764153 
-0.50774145 -0.23004517 -0.83022755 
-0.15368108 -0.25752196 -0.95397305 
0.2819623 -0.15247032 -0.94723284 
0.9162688 0.09029542 -0.39025393 
0.7523564 0.016142474 -0.6585584 
0.5814579 -0.36875343 0.7252087 
0.4430039 -0.097907454 0.8911575 
0.692278 -0.45185956 0.5626492 
0.7855594 -0.22124086 0.57788306 
0.59695804 -0.06913752 0.79928786 
0.7073025 -0.23040082 0.6683103 
0.115977116 -0.3755628 0.91951174 
0.14630635 -0.30129185 0.9422408 
-0.54221183 -0.67426044 0.5013774 
-0.66575676 0.010900734 0.7460893 
-0.058227796 0.2581272 0.9643547 
-0.17043015 0.09665159 0.9806182 
0.29849574 -0.6464189 0.7021702 
0.41649005 -0.77770215 0.47086653 
0.92013997 -0.35364658 -0.16815647 
0.6305841 -0.7329094 0.2553578 
0.66992414 -0.6397949 0.37664878 
0.8583716 -0.47138488 0.20247103 
0.888566 -0.20133401 0.41220745 
0.6530077 -0.16960177 0.73811674 
0.99736273 -0.049206916 0.05335159 
0.86013633 0.1366436 0.49142057 
0.83162785 0.5414605 0.123351805 
0.8306976 0.33761555 0.44267085 
0.08171683 0.40979755 0.9085089 
0.7601714 0.4818263 -0.4358701 
0.36046314 0.5576505 -0.7477248 
0.7038723 0.66466 -0.2505812 
0.040988583 0.8694886 -0.4922496 
-0.4908032 -0.13979082 -0.859983 
0.21015471 -0.22210845 -0.95210445 
0.43034524 -0.57407486 -0.6965925 
0.44754824 -0.51084226 -0.73398966 
0.6797473 -0.5255045 -0.5116528 
0.86519927 0.15991122 -0.47524583 
0.67226166 0.38214532 0.6340579 
0.65014815 0.5253939 0.54887956 
0.04799877 -0.72523785 0.6868233 
-0.13065413 -0.65343606 0.74562114 
-0.14740352 -0.25683954 0.955147 
-0.3733267 -0.44973347 0.81139827 
-0.84176314 0.13489133 0.52272284 
-0.3831006 -0.906198 -0.17899516 
-0.3588855 -0.8356857 -0.41572934 
-0.37670192 0.1935215 -0.90589464 
0.00023264666 0.12177882 -0.9925572 
0.34001273 0.3543261 -0.8711168 
0.49076277 0.39659747 -0.7757979 
-0.07664526 0.98982394 -0.11989232 
0.38415632 0.9219513 0.049293045 
0.5689815 0.73038054 0.3778947 
-0.22690746 0.62133616 0.74996966 
-0.7156325 0.6774292 0.17017625 
-0.22197483 0.76733774 0.60159785 
-0.5397351 0.7066963 0.45745653 
-0.2565824 0.11587919 0.95955074 
-0.34472463 -0.19688122 0.9178251 
-0.65507257 0.68859994 0.31098238 
-0.02622332 0.8101119 -0.58568853 
-0.3264121 0.61709774 -0.7159928 
-0.14184974 0.7238496 -0.6752189 
0.4802871 0.4249053 -0.7673199 
0.3453185 0.91336477 -0.21568483 
0.58590764 0.80960083 -0.035480328 
0.46770325 0.8168573 0.33763584 
0.37061328 0.8693817 0.32683516 
0.14505237 0.8099309 0.56830597 
0.710964 0.25179237 0.6566055 
0.16234028 0.21295659 0.9634807 
-0.22289743 -0.5605578 0.7975537 
-0.7474896 -0.38291344 0.5428045 
-0.9208986 -0.12851594 0.36800745 
-0.9486977 -0.046431307 -0.31275713 
-0.66241854 0.12014202 -0.7394374 
-0.65284264 -0.18182221 -0.73534834 
-0.009059157 -0.7000019 -0.71408355 
0.64737403 0.20213619 -0.73487955 
0.33345616 -0.61508864 -0.71447396 
0.41894782 -0.80007815 -0.42936906 
0.77707016 -0.4450232 -0.4451027 
0.9645567 -0.15162586 -0.21596304 
0.8916327 0.26907346 0.36413 
0.05197904 0.15707193 0.98621833 
-0.24956617 -0.24216747 0.9375882 
-0.3678042 0.4894912 0.79064435 
-0.029839046 0.47198725 0.88110036 
0.53350705 0.18694998 0.8248758 
-0.48464945 -0.15751179 0.8604098 
-0.78601366 -0.22058792 0.57751495 
-0.76717067 -0.32141048 0.55510783 
-0.8184882 -0.573689 -0.030954797 
-0.5782247 -0.77606016 -0.25176767 
-0.46162558 -0.88645595 0.0331314 
-0.74334085 -0.6230408 -0.24344328 
-0.28745753 -0.79454213 0.534856 
-0.27554637 -0.9612441 -0.009175402 
-0.13517696 -0.97079694 -0.19819349 
-0.39967814 -0.63596684 -0.6601542 
0.33963525 -0.89606196 -0.2858689 
0.41872954 -0.8795797 0.22584318 
0.7919228 -0.5148964 0.32823795 
-0.006774707 -0.4554159 0.890253 
-0.07164123 -0.73950577 0.66932714 
0.099918224 -0.7074709 0.6996438 
0.16481368 -0.66744757 0.72618884 
-0.10721469 0.009186409 0.9941935 
-0.32631478 -0.27347812 0.9048361 
0.094323836 0.07726447 0.99253875 
0.39504665 0.73471093 0.5514871 
0.2256199 -0.27003223 0.936044 
0.2505254 -0.2912213 0.92326987 
-0.16121173 0.23163559 0.9593518 
-0.6252124 -0.04313521 0.7792618 
-0.8693571 0.42669082 0.24930592 
-0.56905776 0.7826991 -0.25210205 
-0.2782778 0.29382417 -0.91445553 
0.19076455 0.5184124 -0.83358115 
0.2911111 0.69173896 -0.6608718 
-0.7211608 0.587763 -0.3666902 
0.16954076 -0.25078356 -0.9530811 
0.08731336 -0.01427146 -0.9960787 
0.36116308 0.38836122 -0.84778357 
-0.048562773 0.73182094 -0.67976457 
-0.54160315 0.57880825 -0.6096287 
0.21839726 -0.3938424 -0.8928555 
0.7121084 -0.03874112 -0.7009999 
0.55563396 0.5595507 -0.61495847 
0.43706253 0.5499901 -0.71167916 
-0.41300997 0.4407089 -0.79699343 
-0.29301876 0.56106186 -0.7741768 
-0.5208253 0.43950975 -0.73182803 
-0.21445917 0.92956805 -0.2998508 
0.26421252 0.5777813 -0.7722439 
0.23885216 0.050961744 -0.9697178 
0.9126774 -0.34933886 -0.21209031 
0.9759004 -0.16040292 0.14795083 
0.6969778 0.5409988 0.4706827 
0.0054522245 0.96906835 0.24673249 
0.1664315 0.98582566 0.021171566 
0.048192743 0.8533374 -0.519127 
-0.10469545 0.93002844 -0.3522585 
0.24144384 0.9652792 0.09970435 
-0.061738607 0.96819603 -0.24245577 
0.7220993 0.3742849 -0.5817933 
0.43256047 0.6669085 -0.60673267 
-0.2762385 0.35465768 -0.8932583 
0.6117991 0.7198245 -0.32795534 
0.14972472 0.12274431 -0.98107916 
0.848718 0.339357 0.40560403 
0.09067422 0.6325187 0.7692193 
-0.47384015 0.3528718 0.806819 
-0.8224403 0.4402916 0.360188 
-0.3695018 0.4361371 -0.82051986 
-0.22562914 0.32431984 -0.9186447 
-0.5443558 0.10524612 -0.83222604 
0.14532314 0.34427163 -0.927555 
-0.49196658 -0.08559361 -0.86639637 
-0.2612287 0.18229803 -0.9479066 
-0.24461797 0.47830635 -0.8434365 
-0.17837834 -0.21695328 -0.959746 
0.13831675 0.49034512 -0.8604826 
-0.5848973 0.25530878 -0.7698783 
0.06251443 0.8401505 -0.53873855 
-0.46480796 0.8396781 -0.2808812 
0.36564353 0.8261045 -0.4287846 
-0.2536509 0.8541728 -0.45392728 
-0.14962621 0.7669085 -0.62407005 
0.8350054 0.4407352 -0.3294215 
0.72221816 -0.691409 -0.018833103 
0.5578952 0.78435224 0.27119127 
0.8977865 0.30141616 -0.32113516 
0.9795629 0.16699485 0.11211376 
0.59203947 0.13323826 0.79481876 
0.17017426 0.77839273 0.6042727 
0.53758705 0.11178147 0.83576626 
0.9047817 0.16068721 0.39439806 
0.65346736 -0.116587654 0.7479223 
0.043166205 0.7415421 0.6695163 
-0.14311191 0.67078066 0.72771716 
-0.45937708 -0.2169097 0.8613495 
-0.9152353 -0.24974903 0.31618005 
-0.6623634 0.52302086 0.536399 
-0.84278727 0.14139417 0.5193432 
-0.7549924 0.45758718 -0.46968132 
-0.64415836 0.32911143 -0.6904678 
-0.46718866 0.19399844 -0.86261207 
0.15040484 -0.03703746 -0.98793054 
0.6567984 0.14241461 -0.7404958 
0.7340805 0.6290296 -0.25582737 
0.8440516 0.017152324 0.53598773 
0.9478052 -0.10660485 0.3005009 
0.7779234 0.6085043 0.15670937 
0.89029217 0.29139918 -0.34995186 
-0.37313947 0.71433824 0.59202015 
0.1603529 0.7536769 0.63738394 
0.12715739 0.7201603 0.6820559 
-0.38972062 0.44363627 0.8070346 
0.2701533 0.42765912 0.86262673 
-0.7065498 0.402437 0.5820927 
-0.1866319 0.87839705 0.43998563 
-0.6156919 0.25829598 -0.74445057 
-0.075141735 0.92471 -0.3731827 
-0.5888 0.8040718 -0.08236075 
0.4144775 0.6957989 -0.5865769 
0.8676858 0.25827453 -0.42475352 
0.68920404 0.63771045 -0.34398153 
0.8250626 0.5292038 -0.19802813 
0.7715375 0.39385435 -0.49960843 
0.6020176 0.3309727 0.72665805 
0.9875518 0.15728244 0.0019029218 
0.8605881 0.35460517 0.36557257 
0.6984802 0.7132976 0.057724275 
0.6848991 0.55877876 0.4676319 
0.80433 0.5940049 -0.014540914 
0.9671476 0.19443429 0.16377132 
0.6826218 0.6044376 -0.41071 
0.5900975 0.7862613 -0.18324322 
0.36826923 -0.33973077 0.8654252 
0.50136226 -0.5555284 0.66334313 
-0.012617192 -0.011317415 0.9998564 
0.1029144 -0.47612903 0.87333256 
-0.39480525 -0.6241249 0.674238 
-0.08766293 -0.085589506 0.9924665 
0.4188551 0.27180755 0.8664186 
-0.032201137 0.20699982 0.977811 
0.100242026 0.31008762 0.9454085 
0.14753243 0.33482715 0.93065834 
-0.24757706 -0.121487945 0.96122134 
-0.39113232 -0.20792882 0.89653844 
-0.22735849 -0.41454682 0.88116914 
-0.7428132 -0.20115589 0.63856477 
-0.58704805 -0.73452973 0.34035388 
-0.74372905 0.07393336 0.66438013 
-0.68717355 -0.7127784 -0.14049737 
-0.21904796 -0.971272 0.0929985 
-0.23333356 -0.81690025 0.5274747 
-0.033404417 -0.9986707 -0.039255597 
-0.21915905 -0.49868518 -0.8386195 
0.023753142 -0.08823656 -0.99581635 
0.8599395 0.4869669 0.15286416 
0.8510122 0.074106306 -0.51989084 
0.8580046 -0.3075814 0.41136587 
0.6371095 0.2747823 0.7201293 
0.11267718 0.4626424 0.8793554 
-0.8335772 -0.38426372 0.39685094 
-0.95257944 -0.043610107 0.301149 
-0.8372487 0.4490165 -0.312088 
-0.2639428 0.86353564 -0.42969802 
0.3906922 0.28898674 -0.87398297 
-0.39277425 0.38918746 -0.8332236 
-0.20346469 0.25885358 -0.9442442 
-0.446193 -0.20204237 -0.8718319 
-0.736646 -0.08862514 -0.67044634 
0.016043166 -0.22788054 -0.97355694 
0.25523406 -0.45698646 -0.85206753 
0.37424713 0.057838786 -0.9255235 
0.90751433 0.24002558 0.3446818 
0.51891136 0.062966414 0.85250586 
0.7382534 -0.15298258 0.65694624 
0.85200834 -0.5225222 0.032437727 
0.685286 -0.67226964 0.2800655 
0.30613586 -0.42385197 0.8524263 
-0.117792584 0.018323813 0.9928692 
-0.11024577 -0.46762758 0.87702364 
-0.9256906 -0.22303516 0.30553594 
-0.8749368 0.11889674 0.4694137 
-0.03788299 0.1500819 0.9879475 
-0.579879 -0.3342612 0.7429737 
-0.71123075 -0.67160034 0.20761442 
0.17809695 -0.8902845 0.4191361 
0.7056756 -0.70811826 -0.024300998 
0.034531582 -0.9816232 -0.18767959 
0.53049165 -0.8166044 -0.22745545 
0.42403412 -0.87114096 0.2476055 
0.7617832 -0.61866117 -0.19221063 
0.60909975 -0.1061292 0.78596073 
0.6550667 -0.74469984 -0.12770991 
0.86363655 0.38470688 0.32577994 
0.97922266 0.06335517 -0.19263785 
0.78212947 0.41465282 0.4651198 
0.6195809 0.6424884 0.4509193 
0.081061184 0.97308105 0.21573712 
-0.13677053 0.54471076 0.827396 
-0.6331929 0.7715488 -0.061476123 
-0.23118427 0.97007996 -0.07415353 
0.08907924 0.5148025 -0.8526683 
-0.9029958 0.33985516 -0.26286334 
-0.49856383 -0.17404562 -0.84920096 
-0.017765682 -0.23496534 -0.97184145 
0.90103614 0.0077903774 -0.43367428 
0.60985863 -0.13346761 -0.78119075 
0.8649564 -0.49173644 0.10022932 
0.0973042 0.14142694 0.985155 
-0.5400787 -0.6577147 0.52509665 
-0.12633774 -0.41000465 0.90329117 
0.088120654 -0.3001772 0.9498044 
-0.7149792 -0.27766314 0.64164484 
-0.9218834 -0.3717613 -0.109200396 
-0.36864397 -0.926857 0.07097832 
-0.71702033 -0.10832994 -0.6885831 
-0.20879437 0.5095461 -0.8347262 
0.5394076 0.7589995 -0.36463585 
0.5762538 0.7289235 -0.36959738 
0.5869428 0.70569843 -0.3968474 
0.36167023 0.8100276 0.46157342 
-0.03346872 0.8842079 0.4658929 
0.46727496 0.42622742 0.77458656 
-0.07896379 0.4159176 0.90596753 
-0.3086592 0.7455996 0.590602 
-0.10194377 0.5951744 0.7971041 
-0.5607738 0.16153228 0.8120592 
-0.38899004 0.28792158 0.87509316 
-0.86898756 0.13044001 0.47733238 
-0.63532805 0.72161555 -0.27500778 
0.6510718 0.53716654 -0.5362441 
0.22854069 0.4437876 -0.8664998 
0.44975522 0.89144135 -0.055251397 
0.8697964 0.48405078 -0.0956503 
0.868624 0.49452642 -0.030595716 
0.6877609 0.5128128 0.5138171 
0.9259054 0.3732364 -0.05825667 
0.48165777 0.2551646 0.83838946 
-0.044954136 -0.04570779 0.9979429 
0.8454704 0.1482473 0.51303273 
0.7859821 -0.15807395 0.5976995 
0.17895488 -0.060338154 0.9820054 
-0.15807335 -0.42701864 0.890319 
-0.50835615 -0.8379973 -0.19832993 
-0.6337862 0.17847757 -0.7526359 
-0.35048363 -0.38632545 -0.8531787 
-0.060347755 -0.43099606 -0.9003336 
0.36061898 -0.5708076 -0.7376535 
0.47796577 -0.08420814 -0.8743327 
0.94617736 -0.3165684 -0.067326546 
0.82996804 -0.3101964 -0.46360686 
0.65740013 0.0069661085 -0.7535095 
0.9994384 -0.01859925 -0.027873121 
0.7316169 0.23521818 0.63985085 
0.4816938 0.1615838 0.86131394 
-0.16291106 0.39494744 0.9041441 
0.12284068 -0.05082622 0.99112403 
0.51892763 -0.045227814 0.85362095 
0.33843607 0.17316718 0.9249185 
-0.1650758 0.3573707 0.91925853 
-0.3571414 -0.3882259 0.8495473 
-0.738834 -0.48310766 0.46982044 
-0.85074687 -0.51682734 0.09549575 
-0.7918187 -0.4918825 -0.3620427 
-0.7881877 -0.49595782 -0.36439824 
-0.724207 -0.4029879 -0.55957586 
0.042913765 -0.9986321 -0.029875675 
-0.2882738 -0.94137126 -0.17526637 
-0.4089947 -0.78080547 -0.47229895 
-0.134324 -0.82570136 -0.5478817 
0.15824375 -0.96583486 -0.20523655 
0.396485 -0.7153117 -0.57543796 
0.4989293 -0.80962145 0.30916443 
0.38511556 -0.90943277 0.15690154 
0.6384946 -0.6739517 0.37163678 
-0.032894652 -0.9046318 0.42492273 
-0.19555342 -0.7545567 0.6264209 
0.007551352 -0.87076825 0.49163565 
0.1124141 -0.7244545 0.68009466 
-0.31397146 -0.5607665 0.7661351 
0.56913745 -0.026025686 0.8218305 
0.3091487 -0.52993345 0.78968203 
0.14510924 -0.76070493 0.63267 
-0.42171255 -0.15657084 0.89310926 
-0.6755558 -0.08542565 0.73234344 
-0.97636646 0.14931391 -0.15624972 
-0.57760775 0.8025503 0.14927284 
-0.35802552 0.7932131 -0.4925758 
-0.13469656 0.83299387 -0.536636 
-0.4512575 0.8571406 -0.24834801 
0.083540194 0.92042416 -0.38189062 
-0.100091845 0.5951507 -0.79735637 
-0.5439904 -0.060018297 -0.8369422 
-0.15953615 -0.10260541 -0.9818454 
-0.0314854 0.0102956295 -0.9994513 
0.8266465 0.04799051 -0.56067145 
0.65236324 -0.59255415 -0.4725482 
0.76799524 -0.100779496 -0.6324768 
0.77849066 0.5217401 -0.34891206 
0.36564243 0.9201159 0.14032964 
-0.38922802 0.9203236 0.038807236 
0.13549688 0.78767544 -0.6010058 
-0.28857422 0.9355565 -0.20361519 
0.057273626 0.92043835 -0.3866693 
0.7894054 0.25646383 -0.5577326 
0.4717324 0.5804844 -0.6637066 
0.8360497 -0.078613184 -0.5429925 
0.8528877 0.3312999 0.40351334 
0.6987977 -0.3526812 0.6223325 
0.5204862 0.8195606 0.23961386 
0.34673366 0.92204726 0.17206049 
0.16418001 0.9609671 0.22268192 
-0.2521656 0.93797714 0.23793149 
-0.37114775 0.9256178 -0.07403469 
0.57584524 0.7919578 0.2029907 
0.19766098 0.7792759 0.5946926 
0.9086851 0.37274823 0.1880164 
0.8304467 0.50247216 -0.24058269 
0.34783602 0.865571 0.36027342 
0.6218836 0.7631243 0.17579006 
0.16008464 0.6905026 0.70539296 
0.37925586 0.35706294 0.8536224 
-0.5675632 0.5013336 0.65309775 
-0.5794344 0.25732502 0.77333033 
-0.5296296 0.8376456 0.13357551 
-0.56541365 -0.3916342 -0.7258996 
-0.41730776 0.513088 -0.7500633 
-0.04501243 0.46482655 -0.88425684 
-0.5999474 0.5573194 -0.5739845 
-0.32732782 0.4940961 -0.80543506 
-0.3546899 0.48231936 -0.80097646 
-0.14436513 0.15916216 -0.9766403 
-0.4215897 0.8808132 0.21547724 
-0.53678423 0.80323553 0.25821584 
-0.26117423 0.55574036 -0.78926605 
0.27314705 0.9526746 -0.13342288 
0.40231672 0.8343255 -0.37688497 
-0.29071814 0.9535369 0.07905847 
0.6886703 0.4203199 -0.5908168 
0.62828505 0.65075505 -0.4263518 
0.986522 0.15848443 -0.040708054 
0.45095107 0.7445749 0.49219048 
0.48341656 0.8245219 -0.29406142 
0.9616569 0.11454181 0.24919116 
0.27703568 0.5710824 0.77273285 
0.9727958 0.047881514 0.22666228 
0.6359464 -0.008438681 0.77168715 
0.5714501 -0.25578028 0.7797572 
0.012069612 0.41151783 0.9113219 
0.12735362 -0.06737474 0.9895665 
-0.093497075 0.11613718 0.9888228 
-0.21047866 0.48354682 0.849636 
-0.59067714 0.036446113 0.8060845 
-0.35601753 0.051872734 0.93303853 
-0.776812 0.28781718 0.560111 
-0.9114375 0.3945734 -0.11659138 
-0.3276244 0.7081515 -0.6254469 
-0.1592249 0.02126397 -0.9870133 
0.40039805 0.2773065 -0.8733743 
0.5624681 0.03269464 -0.8261723 
0.9949396 0.065962374 -0.07578966 
0.9718285 0.23233715 0.039609063 
0.6470006 0.072744615 0.75901145 
0.24281226 0.44032338 0.86438286 
0.19849247 0.42898598 0.88123316 
-0.33402658 0.78093415 0.52779555 
-0.059216462 0.9040605 0.4232825 
0.07486175 0.7407556 0.6675903 
-0.43785802 0.7579047 0.4835915 
-0.8671007 -0.043331303 0.49624464 
-0.34818023 0.34862828 0.870189 
-0.9604804 -0.018071054 0.27776068 
0.010037698 0.6668676 0.74510866 
0.18261307 0.5783511 0.79508656 
-0.71845055 0.68394196 0.12669763 
0.20796296 0.8586567 -0.4684658 
0.12038105 0.41045713 -0.903899 
0.56212604 -0.16207615 -0.81101525 
0.71877646 0.5477428 -0.42818022 
0.7677537 0.64065886 -0.010514396 
0.90591985 -0.26220128 -0.33250526 
0.8691875 -0.09425984 -0.48541552 
0.88931423 0.3308864 0.31564942 
0.71161216 0.42265183 0.56122506 
0.47749585 0.8121964 0.33516362 
0.88631094 0.32874793 0.32615605 
0.97104716 0.13841124 0.19470479 
0.38417578 0.91777587 -0.100480795 
0.61318296 0.74308366 0.26801753 
0.4190975 0.071546376 0.905118 
0.30658585 0.10236203 0.946323 
0.026013201 -0.93131995 0.3632719 
-0.20633943 -0.86468124 0.45798528 
0.45850962 -0.6534726 0.6022811 
0.18242083 -0.2587267 0.948569 
0.6203514 0.37812045 0.68716013 
0.022833845 -0.29657313 0.9547372 
0.23965508 -0.3833875 0.89195263 
-0.18715739 0.3553648 0.9157991 
-0.35274515 0.10526804 0.92977935 
-0.49329013 -0.80666274 0.32551512 
-0.58830464 0.0432477 0.80748206 
-0.46154287 -0.43974292 0.77045727 
-0.8173628 -0.5641211 -0.116985306 
-0.9599826 0.0480823 0.2759013 
-0.631601 0.21940312 -0.7436011 
-0.9195197 0.0058200816 -0.3930008 
-0.5740284 -0.7132853 -0.40213877 
-0.23264295 -0.9626764 -0.13831642 
0.005627967 -0.88440686 -0.46668294 
0.960882 -0.26745528 -0.07192776 
0.9974141 -0.06495317 -0.030760217 
0.93586224 0.2821594 -0.2110638 
0.85641694 0.0058239675 0.516252 
0.5522674 -0.2897291 0.781702 
0.2785089 0.27549556 0.92007345 
0.015687913 0.16771816 0.9857102 
-0.8087234 -0.17405719 0.5618457 
-0.9810752 0.07763824 0.17738023 
-0.41685182 0.5728273 0.7057646 
-0.92618537 0.34065035 -0.16167319 
-0.8808349 0.047629744 -0.47102177 
-0.7312941 0.090975456 -0.67596775 
-0.62382257 0.055702906 -0.77957857 
0.29987407 0.17011571 -0.9386886 
0.2957542 0.16771156 -0.94042665 
0.11370581 0.13503116 -0.98429555 
0.8635297 0.19504182 -0.46505398 
0.8437831 -0.501464 -0.19121699 
0.78834915 -0.24153206 0.5658338 
0.5713208 -0.8052357 0.15870772 
0.84337306 -0.5147473 0.15413335 
0.68369806 -0.6537397 0.32431695 
0.74336874 -0.40806982 0.52998304 
0.3333935 -0.18206511 0.92504114 
0.042915188 -0.45801622 0.8879074 
-0.3252579 -0.39727318 0.8581267 
-0.44328782 -0.4378483 0.7821667 