# OOMMF: rectangular mesh v1.0
# Segment count: 1
# Begin: Segment
# Begin: Header
# Desc: Time (s) :  3.49e-07
# Title: m
# meshtype: rectangular
# meshunit: m
# xbase: 2e-09
# ybase: 2e-09
# zbase: 5e-10
# xstepsize: 4e-09
# ystepsize: 4e-09
# zstepsize: 1e-09
# xmin: 0
# ymin: 0
# zmin: 0
# xmax: 1.024e-06
# ymax: 1.024e-06
# zmax: 1e-09
# xnodes: 256
# ynodes: 256
# znodes: 1
# ValueRangeMinMag: 1e-08
# ValueRangeMaxMag: 1
# valueunit: 
# valuemultiplier: 1
# End: Header
# Begin: Data Text
-0.41482225 0.05650583 -0.9081463 
0.09813594 -0.85531986 -0.5087213 
0.9394356 -0.28439823 0.19125518 
0.6489649 0.2398862 0.72201055 
-0.08159581 -0.028708411 0.996252 
-0.8240291 0.11608961 0.5545261 
-0.5712792 0.57578766 0.58490056 
-0.555809 -0.75121826 -0.35601643 
-0.7634222 -0.058585785 -0.6432375 
-0.8985162 -0.123542465 -0.421196 
-0.97072816 -0.22594938 -0.08144756 
-0.31856528 -0.78105015 0.5371005 
-0.57544094 -0.7529579 0.31925273 
-0.7751633 -0.057697326 -0.6291207 
-0.4621535 0.24443007 -0.85244834 
-0.019086186 -0.65605533 -0.7544714 
0.8085991 -0.5835527 0.07505765 
0.24370359 -0.7878411 0.56561035 
-0.15435354 -0.97803694 0.14006689 
-0.29665282 -0.8054021 0.5131516 
-0.74443877 -0.58147156 -0.3281795 
0.6024911 -0.7565385 -0.25427192 
0.83069396 -0.47418573 -0.2917112 
0.9559499 0.05572417 -0.28819215 
0.949469 -0.3136653 -0.0110820625 
0.98639965 -0.15492329 0.054904513 
0.37227494 -0.01935888 0.92792064 
-0.27168187 -0.27749872 0.9215116 
-0.30808246 0.72769994 0.6128117 
-0.21190594 0.8471471 0.48727575 
-0.21599594 0.845358 0.48858517 
-0.25584123 0.7645377 0.5916311 
-0.5870468 0.77736914 0.2259944 
-0.43254167 0.042292498 0.9006216 
-0.03220665 -0.03372929 0.998912 
-0.6718705 0.16134934 0.7228806 
-0.73536295 0.65256846 -0.18274508 
0.04134336 0.59676206 -0.8013525 
-0.18839382 -0.9819587 -0.016274855 
0.17610024 -0.98360336 -0.03890071 
0.42634106 -0.892078 -0.14976798 
0.80593485 -0.3939874 -0.44186318 
0.21007466 -0.976023 0.056990307 
0.36036935 -0.93150586 0.04930397 
0.6012704 -0.36488116 0.7108697 
0.8097916 -0.27129176 0.5202291 
0.44893333 -0.35331458 0.8207483 
-0.05657127 -0.03414178 0.99781466 
-0.63361996 0.1756521 0.7534402 
0.06067696 0.38826653 0.9195474 
-0.70006603 0.16895106 0.69380337 
-0.9238858 -0.2250222 -0.30951586 
-0.5783291 -0.3937986 -0.7144636 
-0.16747436 -0.85172653 -0.49650213 
0.11713094 -0.057226665 -0.9914664 
0.3050582 0.19393633 -0.9323777 
-0.27136087 0.0012225162 -0.9624769 
0.13961343 -0.15487707 -0.97801906 
0.54027855 0.091690324 -0.836476 
0.61737216 0.7865667 -0.012826726 
-0.34357727 0.7507384 0.5642221 
-0.16385211 0.8336265 0.527465 
-0.060817733 -0.049279533 0.99693173 
-0.03385144 0.053652324 0.9979857 
0.25627586 0.3072521 0.91647094 
0.058787283 0.35837963 0.9317233 
-0.795237 0.452948 0.4030337 
-0.8827553 0.16760297 0.438922 
-0.7080901 0.4292808 -0.5606483 
-0.69616985 0.6402561 -0.32468393 
-0.90759194 -0.35955352 0.21679094 
-0.8322338 -0.43800867 -0.33990508 
0.12594382 -0.51132035 -0.8501116 
-0.042983662 -0.28199106 -0.9584537 
-0.76659226 -0.33728877 -0.5464179 
-0.46093035 0.4190627 -0.7822594 
-0.45491752 0.63516384 -0.624193 
-0.3277091 0.3892078 -0.86088556 
0.093561605 0.26519033 -0.959646 
0.29893124 0.70762426 -0.6402406 
0.5697168 0.66854143 -0.4779907 
0.499755 0.5073478 0.7020279 
-0.04532843 0.75513357 0.654002 
-0.71450865 0.5868224 0.38094217 
-0.8843717 0.4630626 -0.058820378 
-0.897681 -0.047060497 -0.43812558 
-0.12928966 0.9706148 -0.20295624 
-0.26714534 0.94745296 0.17597261 
-0.52931184 0.4284699 -0.7322858 
-0.8904569 -0.08886828 -0.4463059 
-0.44356984 -0.30999148 -0.84092283 
-0.7157317 -0.45946863 -0.52594376 
-0.8525711 0.014896694 -0.52239895 
-0.15950759 -0.07721537 -0.9841724 
-0.48555893 0.34998494 -0.8010887 
0.90111357 0.11001401 -0.4193939 
0.9414943 -0.31642 0.116047084 
0.755666 -0.35119677 0.552838 
0.8379181 -0.49363768 0.23284169 
0.5806696 -0.79411715 0.17944606 
0.22991085 -0.427427 -0.87432677 
-0.7042992 -0.35440162 -0.61511153 
-0.79688257 -0.42431128 -0.4300445 
-0.79050964 0.60815454 0.072406836 
-0.36927405 0.21158127 0.9049144 
-0.5267316 0.75273025 0.39490628 
0.06791562 0.9878344 -0.13989536 
0.17938605 -0.500113 -0.8471763 
-0.050648447 -0.7020753 -0.71029925 
0.816661 0.24307421 -0.5234307 
0.95997 -0.20563973 0.19018388 
0.07113836 0.4716325 0.87892103 
-0.16196124 0.064676546 0.9846754 
-0.871713 0.2863555 0.39763948 
-0.90764755 -0.419708 -0.0046060695 
-0.9278788 0.02983549 0.37168637 
-0.5983989 -0.8010448 0.015688421 
0.60038865 -0.42472324 -0.67760146 
0.5271255 -0.5589438 -0.64009416 
0.33559978 0.2310231 -0.91323674 
0.79090977 -0.4678959 -0.39437938 
0.7198868 -0.56049263 -0.40940338 
0.9658805 0.17748047 0.18861511 
0.601114 0.5544697 0.5755219 
0.5028246 -0.08648492 0.8600511 
0.056032915 0.10837556 0.99252963 
-0.30977777 -0.14100796 0.94029486 
0.46124667 -0.37472647 0.80425847 
-0.010465497 -0.26403427 0.96445656 
-0.13720933 -0.939989 0.3124009 
-0.09493615 -0.7290803 -0.677812 
0.65290284 -0.66981477 0.35364676 
0.72716975 -0.66298616 0.17797059 
-0.27220967 -0.7910697 0.5478236 
0.2184208 -0.30417722 0.92723703 
-0.23460625 -0.84051466 0.48835945 
-0.38055378 -0.45791012 0.8034285 
-0.21981663 0.5233706 0.82326424 
-0.5838903 -0.22705774 0.7794338 
-0.6567516 -0.28071114 0.69991326 
-0.34668538 -0.7865536 0.5110213 
-0.8069728 -0.5738838 0.13947204 
-0.5430301 -0.7478214 0.38194433 
-0.9705791 -0.025884746 -0.2393875 
-0.5974185 -0.37678573 -0.70790094 
-0.46540925 -0.72435033 -0.5086363 
-0.3075628 -0.8661602 -0.39391828 
-0.78080416 -0.482185 -0.39729398 
-0.79538625 -0.45827544 -0.39666656 
0.11384834 0.550231 -0.8272149 
0.45993516 0.0055429596 -0.8879352 
0.53557545 0.6732932 -0.5097404 
-0.29306737 -0.10980612 -0.9497654 
-0.32221928 0.32040912 -0.8907934 
0.08181348 0.31148332 -0.9467232 
0.12157511 0.5288991 -0.8399318 
-0.42909977 0.8431439 -0.32400897 
-0.4980715 0.09621214 -0.86178195 
-0.5421551 -0.34115392 -0.76790744 
-0.7865827 -0.5764224 -0.22141565 
-0.81096464 -0.47125944 -0.34677213 
-0.034155916 -0.5657962 -0.8238374 
-0.29246998 0.026978334 -0.9558941 
-0.16791652 -0.40430197 -0.89907956 
0.50502735 -0.53159153 -0.6799691 
0.34762928 0.14951089 -0.9256351 
-0.4372431 0.4658175 -0.76930654 
0.34575856 0.19430749 -0.9179846 
0.02778192 0.6920057 -0.7213573 
0.2784334 0.7689422 -0.5755022 
0.65020186 0.7579325 0.052686967 
0.20306447 0.077300474 0.9761094 
-0.14018081 0.14397044 0.979603 
-0.054185335 -0.048718262 0.9973417 
0.6383511 -0.1465787 0.7556604 
-0.22459213 -0.6198142 0.7519234 
-0.93755835 -0.2530356 -0.23865719 
0.10387456 -0.9939309 -0.036215756 
0.17361614 -0.9794449 0.102689825 
0.8231791 -0.43242335 -0.3679487 
0.7987778 0.5989667 0.05650502 
0.37604252 0.68459356 0.6244387 
0.68510157 0.6871567 0.24176764 
0.46657297 0.8664311 0.17778334 
0.43932822 0.88413626 0.15904021 
-0.6755397 0.7371744 -0.014834931 
-0.8356427 0.46499768 -0.29236722 
-0.53249586 0.81317407 -0.2349388 
-0.33737805 0.7734314 0.5366376 
0.4581887 0.55071837 0.6976907 
-0.6865532 -0.70665455 0.17112575 
-0.984584 -0.14242756 -0.10153267 
-0.7521659 -0.5440682 -0.3718015 
-0.75908273 -0.6310669 0.15983729 
-0.8567963 -0.043091618 0.51385146 
-0.80771154 -0.13211104 0.5745858 
-0.9782773 0.20683129 -0.013937731 
-0.7950483 -0.27743366 -0.5393783 
0.26491573 -0.57098025 -0.77704644 
0.53492445 -0.14313237 -0.83268785 
0.8181362 0.4464916 0.3623512 
0.76010305 0.27141324 0.59040517 
0.36157635 -0.10809927 0.9260546 
-0.87445825 -0.15941136 0.4581602 
-0.67474777 0.73804826 0.00058575557 
-0.98534614 0.09839225 -0.13932697 
-0.7793069 0.61565995 0.11680654 
-0.8543583 0.4935236 -0.16280751 
-0.97268385 -0.1890294 0.13473701 
-0.65831864 -0.08635528 -0.74776965 
-0.40090623 -0.42410934 -0.8120379 
-0.6693153 -0.3996769 -0.626319 
0.26822504 0.41387597 -0.8699207 
0.19079068 0.16043165 -0.9684321 
0.18641713 0.16971181 -0.96770173 
0.26863226 -0.34324908 -0.90000933 
0.85626954 0.4845461 -0.17893457 
0.39451715 0.42669007 0.8138132 
0.489765 -0.1612593 0.85681146 
-0.14922097 0.6783657 0.7194116 
0.065907374 0.33916262 0.93841624 
0.51038945 -0.07495607 0.85667044 
-0.8689508 0.44791457 0.21046884 
-0.75959164 0.5004894 0.4153685 
-0.4361687 0.20521496 0.8761529 
-0.064454444 0.9466624 0.31571493 
0.5776092 0.08599896 0.8117708 
-0.86371684 0.24985814 0.43768042 
-0.060015902 -0.34050685 0.93832463 
-0.612777 -0.48097932 0.6270274 
-0.5153042 -0.6293285 0.5817279 
-0.9212117 -0.37905765 -0.08765954 
-0.3813011 0.41373056 -0.8267021 
-0.029400734 0.8710937 -0.49023625 
0.7861426 0.5506463 -0.28065732 
0.26687792 0.90221834 -0.3387896 
0.7573903 -0.61893845 -0.2080267 
0.3528703 -0.79430985 0.4945246 
-0.5991286 0.5523296 0.5796353 
-0.4315046 0.23465885 0.87105626 
-0.9671365 0.17172013 0.1875077 
-0.58172 -0.086901866 0.8087335 
-0.47776225 -0.68520033 0.5497671 
0.4926761 0.20729199 0.84516287 
-0.19903226 0.850431 0.48698387 
0.044216577 -0.3233609 0.9452421 
0.16808006 -0.08687665 0.9819377 
0.02709364 -0.026805937 0.9992734 
0.9076 0.33051953 -0.2588809 
0.7479538 -0.37386253 -0.5484451 
0.17876245 -0.9583848 -0.22258182 
0.23123166 -0.85799354 0.45867094 
-0.10823177 -0.99200577 0.06488905 
0.1449562 -0.98516726 -0.09183205 
0.06968209 -0.7870781 -0.6129051 
-0.20046577 -0.9272805 -0.3161716 
-0.19712783 0.5780984 -0.7917972 
0.7338241 -0.036061287 -0.6783818 
0.9234329 0.085217275 0.37417883 
0.5472796 -0.24163249 0.80131066 
-0.2772488 0.37102026 0.88627154 
-0.20939812 0.5890059 0.7805285 
-0.3349624 0.3321477 0.8817472 
-0.96683395 -0.050471745 -0.2503695 
-0.8003911 0.59546 0.069292955 
-0.8639926 0.50303334 -0.021778937 
-0.6585801 -0.6972677 -0.28300163 
-0.6785645 -0.5307074 -0.5078384 
-0.8180814 -0.45538077 -0.3512425 
-0.54380757 -0.65942466 -0.51906884 
-0.31195265 -0.17129892 -0.9345278 
0.33396232 0.08230737 -0.938986 
-0.11550517 -0.8462891 -0.5200514 
-0.0751393 -0.9696313 0.23274273 
0.3247296 -0.92588425 -0.19310433 
0.3656213 -0.9163123 -0.16337998 
0.90147686 -0.23709996 -0.36210927 
0.31022513 -0.7366993 -0.60086155 
0.69612664 -0.056624997 -0.71568245 
0.74061733 0.66571015 -0.091192394 
0.7924976 0.60598576 0.068766065 
0.35791323 0.38342676 0.8514 
0.75573766 -0.12922354 0.64199847 
0.67079645 -0.16471447 0.72311914 
0.31303272 0.58966136 0.74452007 
0.62988085 0.6750465 0.38413864 
0.122363 0.63658917 0.76143396 
-0.21322918 0.47617796 0.8531049 
-0.0683145 0.6548858 0.7526339 
-0.27105588 0.39569822 0.8774689 
-0.6802192 0.14122789 0.71927506 
-0.31852788 -0.72526956 0.61034757 
-0.88601285 -0.41362476 0.2095135 
-0.097044155 -0.8081465 -0.5809317 
-0.2172062 -0.7330135 -0.6446028 
0.46574286 -0.33405522 -0.81944543 
0.74473804 -0.47872975 -0.46495497 
0.8389363 -0.14771165 -0.5238008 
0.9893104 -0.13576059 0.05323598 
0.45067143 -0.8829741 -0.13134742 
0.82693225 -0.38707948 0.4078633 
0.9682591 0.097856194 0.22999668 
0.634377 -0.45682144 0.62360245 
0.2845728 0.027690547 0.9582545 
-0.5540348 -0.018148731 0.83229566 
-0.8196997 -0.49829945 0.28247142 
-0.32614934 0.46451363 0.8233187 
-0.60910714 -0.15482345 0.7778292 
-0.61309 -0.31849915 -0.7229654 
-0.5866326 -0.6938944 -0.41757962 
-0.1697824 -0.7078269 -0.6856786 
-0.0054540993 0.012635725 -0.9999053 
0.5551993 -0.3283386 -0.76416457 
0.119414896 0.25742885 -0.95889026 
0.86610085 -0.21908036 0.44930303 
0.71962345 -0.1693487 0.6733968 
0.76801974 0.33196276 0.54767376 
0.07469618 0.33783418 0.93823695 
0.06456219 -0.16500664 0.98417705 
0.24157481 0.30086616 0.92256236 
-0.13145728 0.44183522 0.88741237 
-0.31234175 0.40305895 0.86022455 
-0.7760064 -0.04084401 0.62940127 
-0.9141765 0.3430672 -0.2158387 
-0.81765467 0.32302955 -0.47654256 
-0.8746841 -0.008166784 -0.48462474 
-0.77847874 -0.36413166 -0.5112524 
-0.03840117 0.7137928 -0.69930345 
0.5855498 0.019740036 -0.8103962 
0.0029461223 -0.13574868 -0.990739 
0.19401021 -0.55439407 -0.8093252 
-0.110220656 -0.21371761 -0.97065765 
-0.32195404 0.040934786 -0.94587004 
0.4432038 0.48232287 -0.7556024 
0.16750227 0.734984 -0.65707046 
-0.056173224 0.60047615 -0.79766726 
0.10294501 0.9917362 0.07656227 
-0.5407197 0.83887815 -0.062497023 
-0.2910567 0.8892057 0.35298616 
-0.31128904 0.7947323 0.5210564 
-0.60904974 0.78737473 0.09539193 
-0.8614549 0.43705377 -0.25861073 
-0.642268 0.6748096 -0.36348858 
-0.38751122 0.6043455 -0.6961334 
-0.08761118 0.50113624 -0.8609221 
-0.35388395 0.8719724 -0.33827573 
-0.0957184 0.58194447 -0.8075758 
-0.97999585 0.06715197 -0.18734686 
-0.6293756 0.3438818 -0.69687283 
-0.33895516 0.3362171 -0.8786738 
-0.2539122 0.4701308 -0.8452844 
-0.08678056 -0.34024853 -0.9363226 
0.85896945 -0.12848006 -0.49564534 
0.79592097 -0.6042141 -0.03788336 
0.5033072 -0.864039 -0.010884727 
0.13546288 -0.54257786 -0.8290109 
-0.21335113 -0.44994703 -0.867196 
0.33658856 -0.40784338 -0.8487473 
0.012402358 -0.19296631 -0.981127 
0.31008476 0.82467407 0.47303292 
0.2017154 0.25043032 0.9468873 
-0.19554514 0.83396095 0.51601493 
-0.25307128 0.9671584 -0.023657952 
0.4630023 0.3724106 -0.80432534 
0.39480564 0.2422777 -0.88624495 
0.6689637 0.6647163 -0.33262572 
0.9378532 0.15997832 -0.30795848 
0.135146 0.5746332 0.8071756 
-0.34165904 0.09473241 0.93503743 
-0.7674931 -0.21774793 0.60294294 
-0.97616845 0.015831584 -0.21643618 
-0.98131037 -0.18936607 -0.034213584 
0.16811158 -0.9256936 -0.3388657 
-0.117920525 0.017038867 -0.9928769 
0.054420527 -0.18418427 -0.98138404 
0.4008385 0.16119146 -0.9018569 
0.84107393 -0.28531915 -0.45955178 
0.97085327 0.21779929 0.10003709 
0.89352244 0.014250718 0.44879225 
0.48667133 -0.24829924 0.8375551 
0.69433993 -0.24967915 0.6749463 
0.34516594 -0.18032102 0.9210564 
0.26768538 0.10903348 0.95731723 
0.40277863 -0.38247097 0.83155596 
0.007998799 -0.7541335 0.6566724 
0.32738864 -0.6783656 -0.65775144 
0.042993493 -0.5515367 -0.8330419 
0.37902546 -0.9050213 -0.19307025 
0.71552145 -0.66092575 -0.226288 
-0.112202354 -0.8350221 -0.5386547 
0.5732037 -0.81718385 -0.060400072 
0.32264456 -0.716195 0.6188419 
-0.34356987 -0.90905184 0.2357637 
-0.8410865 -0.13072741 0.5248657 
0.13163163 -0.23955555 0.96191806 
-0.45235953 -0.7302449 0.5119701 
-0.55110407 -0.5366853 0.63894695 
-0.9215208 0.14070672 0.36194074 
-0.6131197 -0.7881818 0.05342011 
-0.8451272 -0.3260053 -0.4236514 
-0.84624296 -0.35038182 -0.4013794 
-0.21657544 -0.30548143 -0.92724115 
-0.5968925 -0.6723707 -0.43776384 
-0.37762147 -0.3322713 -0.8642904 
-0.57587856 -0.36355448 -0.7322514 
0.377686 0.1414606 -0.91506404 
-0.2532461 0.13147777 -0.9584259 
0.5241118 0.114404626 -0.84393036 
0.08635357 0.3079863 -0.9474638 
0.44176543 -0.23041649 -0.86703604 
0.021858199 0.39191136 -0.9197433 
-0.36838186 0.9018011 -0.22594176 
0.0132395765 0.6882758 -0.72532827 
-0.013351779 0.245398 -0.9693305 
-0.6585672 0.29647344 -0.69165945 
-0.6721225 -0.106378876 -0.7327585 
-0.7246132 0.017024532 -0.68894553 
-0.20418438 -0.35748813 -0.91132385 
-0.45419997 -0.44595194 -0.77125186 
-0.8280778 -0.06915708 -0.55633146 
-0.18699569 -0.8873047 -0.42157203 
-0.026830584 -0.034916744 -0.99903005 
0.06331851 -0.13384175 -0.9889779 
-0.26817834 0.87252295 -0.40839225 
0.13737339 0.86003923 -0.49138704 
0.6775741 0.70575 -0.20690678 
0.33459377 0.8081136 0.48476744 
-0.05526505 -0.23348203 0.9707893 
0.05453084 -0.5904644 0.8052194 
0.505132 -0.26663354 0.8208217 
-0.03760504 -0.43255985 0.9008207 
-0.36247784 -0.75452256 0.5470882 
-0.56041735 -0.67999285 -0.47280255 
0.07042348 -0.88191164 -0.46612486 
0.39077228 -0.89451987 -0.21709733 
0.84852195 -0.50214493 0.16691647 
0.29624477 0.47837284 0.82667917 
0.3387169 0.34000593 0.8773066 
0.31917983 -0.006192164 0.94767404 
0.36563382 0.4362291 0.82220197 
-0.055234883 0.34904173 0.93547803 
-0.58744794 0.74999356 0.30399767 
-0.642591 0.69211644 -0.32871222 
-0.89266276 0.15904053 0.42173398 
-0.7168676 -0.32626566 0.6161588 
-0.95498705 -0.2069719 0.2125147 
-0.43716338 -0.8951321 0.08733081 
-0.79938656 -0.43347397 -0.41603088 
-0.933185 0.07240062 0.35202855 
-0.88122743 -0.35262588 0.3147909 
-0.82781506 -0.50432897 0.24571224 
-0.6117243 -0.7429344 -0.2717386 
-0.85701966 -0.40514514 0.31839415 
-0.1683404 -0.09259446 -0.9813704 
0.7609087 -0.37579024 -0.528961 
0.7996539 0.5771144 -0.16580956 
0.94652444 0.3065792 -0.10050228 
0.73834497 -0.014981691 0.67425686 
0.46156868 -0.1823417 0.86816245 
-0.728916 0.35029057 0.5881991 
-0.8165466 0.0600053 0.5741524 
-0.65728086 0.70444137 0.2678512 
-0.8556468 0.15508117 -0.49377975 
-0.93527824 0.31057644 0.16969697 
-0.55413693 0.33626786 -0.7614829 
-0.38461688 0.0028931978 -0.92307174 
-0.57850814 0.3535357 -0.7350789 
-0.3285551 -0.68117636 -0.6542556 
0.0004305193 0.47487152 -0.8800551 
0.43722224 0.3902431 -0.8102759 
0.18460077 0.7049824 -0.6847791 
0.5705212 0.4865873 -0.6616181 
0.8004952 0.4890762 0.3464272 
0.61708146 0.0119233765 0.786809 
0.14284952 0.47747403 0.8669559 
-0.13165712 0.16090216 0.9781498 
-0.10068644 0.6154227 0.78173983 
-0.4552733 0.036756866 0.8895927 
-0.3695579 0.5253265 0.76645875 
-0.60019135 0.27391002 0.7514943 
-0.68240887 0.34414786 0.644888 
-0.40477553 -0.065122746 0.91209424 
0.062119793 -0.99346834 0.095717594 
-0.052388456 -0.21289133 0.97567046 
-0.45818317 0.53156143 0.7123978 
-0.88263994 -0.29749373 -0.363929 
-0.36008877 -0.62827235 -0.6896448 
-0.4164625 -0.071995005 -0.90629786 
0.36864844 -0.14913654 -0.91752744 
0.5968207 0.032200105 -0.80172825 
0.73899287 -0.019831413 -0.6734213 
0.30850393 -0.5767885 -0.75639975 
0.9043071 -0.41715726 -0.09059994 
0.5300326 -0.84530675 0.0672464 
-0.23475206 -0.13186696 0.96306944 
-0.31404322 0.12834188 0.94069403 
-0.6551889 0.4485259 0.60790795 
-0.70726836 0.35912594 0.6089336 
-0.96254593 -0.036982186 0.2685847 
-0.835914 0.33469254 0.43500435 
-0.45999652 0.5149887 0.72331864 
-0.35256025 0.15519933 0.9228296 
-0.5236076 -0.018180026 0.8517656 
0.14405403 -0.8706006 0.47042876 
0.1984822 -0.9789428 0.047704972 
0.29875886 -0.9035337 -0.30719694 
0.11109845 -0.9894942 -0.0925117 
-0.20487648 -0.9562128 0.20900421 
-0.5929379 -0.80521876 0.006903026 
-0.26648557 -0.96382844 -0.00450712 
-0.70061356 -0.69829255 0.14672506 
-0.69440746 -0.647786 0.31332338 
-0.63300693 0.3945147 -0.6660784 
-0.03839498 -0.04118239 -0.99841374 
0.698542 0.2773009 -0.65965396 
0.9475543 -0.2471328 -0.20264813 
-0.46504664 0.035943 0.88455623 
-0.0111539895 0.8369119 0.5472241 
-0.7023848 0.6930606 0.16224279 
-0.94785595 0.27270222 0.16493227 
-0.51887155 0.67224634 -0.5280694 
-0.87478876 -0.18773168 -0.44665602 
-0.55305827 0.8221288 -0.13502184 
-0.91018337 -0.11430181 -0.39812252 
-0.8902727 0.2851318 -0.3551259 
-0.52656734 -0.44252536 -0.7258775 
-0.62934315 -0.47690406 -0.61358756 
-0.3879307 -0.5401 -0.74686134 
-0.45474187 -0.13130318 -0.88089126 
-0.014627592 -0.5446756 -0.8385193 
-0.22798759 -0.106270604 -0.9678472 
-0.041665897 -0.4102663 -0.9110135 
0.17824997 -0.5716245 -0.8009198 
0.24713993 -0.069142535 -0.9665099 
0.8274395 -0.24738044 -0.5041298 
0.9288374 0.20163192 -0.31081468 
0.78487116 -0.46117482 -0.41387823 
0.96721417 0.2161635 0.13330479 
0.8548871 0.06400134 0.5148515 
0.8328076 0.19255681 0.51899284 
0.6166272 0.41487885 0.66906387 
0.22392823 0.62477386 0.74800664 
0.5556395 0.36335805 0.7478207 
0.40046257 0.3042434 0.8643297 
0.07563227 0.19642104 0.9775984 
0.38186932 -0.5672073 0.7296929 
-0.08113387 0.19373617 0.977693 
0.23546849 -0.9511675 0.19958685 
0.07803063 -0.81969917 -0.56745446 
-0.7941406 -0.09169049 -0.6007776 
0.17926818 0.016736213 -0.98365796 
0.5605058 -0.30166233 -0.7712543 
0.9378233 0.06378865 -0.34120148 
0.9983991 -0.053336885 -0.018831288 
0.8061059 -0.5595097 0.19272347 
0.46200752 -0.8717088 0.16331886 
0.7644826 -0.09255105 0.637966 
0.6389586 -0.3633299 0.67802906 
0.59662014 -0.13197438 0.79159784 
0.6872153 -0.17494904 0.70507306 
-0.55497074 -0.2016922 0.80704874 
-0.78065497 0.00011119276 0.6249622 
0.1201345 0.8416319 0.5265203 
-0.9409741 0.2530931 0.2247483 
-0.8730423 0.039035175 -0.4860797 
-0.14394689 -0.6760468 -0.7226618 
-0.047322914 -0.51381975 -0.85659206 
0.121530846 -0.16305834 -0.97910285 
0.5409136 0.103433795 -0.8346939 
0.38064668 0.46481138 -0.7994113 
0.9667832 0.2203102 0.12959078 
0.9786473 0.069571905 0.19341464 
0.81200624 -0.4200825 0.40518698 
0.36151287 -0.2623519 0.89469546 
0.51345754 0.11798047 0.8499659 
0.422149 0.5945138 0.6843564 
-0.24808654 0.73599756 0.6298895 
-0.25415897 0.5976024 0.7604437 
-0.41901734 0.7420471 0.52325004 
-0.6317828 0.5647289 0.5309725 
-0.8316636 0.49277648 0.25594345 
-0.6273054 0.66662645 -0.40261298 
-0.48619914 0.44551316 -0.7517503 
0.70487416 0.42556342 -0.5674929 
0.8566879 0.39073506 -0.3367671 
0.4513941 0.73128414 -0.51133835 
0.56776273 0.18936677 -0.80111533 
0.6233776 0.043921612 -0.78068644 
-0.29081517 0.909728 -0.2963469 
-0.05793595 0.95193243 -0.30077937 
-0.169042 0.9002907 -0.40112537 
0.21393406 0.9406409 0.26348996 
-0.16533342 0.98581344 0.028925609 
-0.2988156 0.9263121 -0.22946754 
-0.42320442 0.8685562 0.257892 
-0.03584379 0.26518035 0.9635324 
-0.67196405 0.735408 -0.087404266 
-0.5332081 0.845914 -0.010894381 
-0.75832576 0.6089897 -0.23253751 
-0.5391507 0.37514725 -0.75404316 
-0.4370533 0.89870673 0.036201697 
-0.5764623 0.73280007 -0.361518 
-0.23879986 0.3412015 -0.9091513 
-0.46668017 0.49829796 -0.7306906 
-0.006830753 0.8747558 -0.48451608 
0.4386419 0.6611017 -0.6087183 
0.4611331 0.5718829 -0.67845875 
0.31878117 0.07223254 -0.945072 
0.95562136 -0.070121445 0.28613096 
0.9514438 0.07113112 -0.29949158 
0.6910895 -0.32827383 -0.643919 
0.35994282 -0.09616581 -0.92800504 
0.18770766 0.1603783 -0.9690432 
0.5007008 -0.40726945 -0.7638261 
0.7012044 0.431584 -0.56749237 
0.872401 0.45746505 -0.17216934 
0.082711875 0.73328507 0.67487174 
-0.032769516 0.9679291 0.24907707 
0.52702975 0.7686656 -0.3624816 
0.26264548 0.85836416 -0.44071335 
0.23792645 0.77092797 -0.5908141 
0.3968035 0.8650522 -0.3069716 
0.48153067 0.8495646 0.21533313 
0.061954483 0.96771795 -0.24430233 
-0.20637208 0.6308043 0.747995 
-0.5711234 -0.011414476 0.8207849 
-0.90081936 -0.30971426 0.304305 
-0.60392696 0.047632348 -0.79561514 
0.22567123 0.22951852 -0.9467808 
0.13473193 0.12850358 -0.9825142 
0.4759032 0.29554453 -0.8283536 
-0.009199765 0.34048074 -0.9402065 
0.8264384 0.46381146 -0.31918395 
0.92727894 0.35982263 -0.1033513 
0.7380587 0.62802464 -0.24668694 
-0.19971295 0.12716028 0.9715684 
0.26732698 -0.2687335 0.9253748 
-0.32742113 -0.39311275 0.85921925 
0.13135597 0.1223012 0.98376226 
-0.16813046 -0.10573957 0.9800772 
-0.13450447 -0.67566675 0.72483313 
-0.44306052 -0.83169436 0.33463717 
0.12156904 -0.98032653 0.15550213 
-0.19071485 -0.9815835 0.011040367 
0.7621587 -0.64667404 -0.030443465 
0.15787134 -0.7087068 -0.68761283 
0.22160055 -0.91189563 -0.34545553 
0.56765896 -0.5593418 -0.6040696 
0.9080739 -0.22640294 -0.3523403 
-0.02197856 -0.76127094 0.64806145 
-0.4001611 -0.5567633 0.72793263 
-0.7298143 -0.24325272 0.6389047 
-0.9469098 -0.04129388 0.3188367 
-0.9352647 0.058280174 0.3491181 
-0.8843643 -0.45469517 -0.10560334 
-0.7247078 -0.6000299 -0.33876672 
-0.14699928 -0.25594646 -0.9554489 
-0.45197475 -0.31202865 -0.83567756 
-0.42764127 -0.79359823 -0.43281034 
-0.6367213 0.22365126 -0.7379472 
-0.55206406 -0.42497253 -0.7173728 
0.42412835 0.23211421 -0.8753503 
-0.05178239 0.1489415 -0.98748934 
0.5390666 -0.28681624 -0.79192406 
0.62775314 0.3154497 -0.71163017 
0.04443876 -0.3732714 -0.9266573 
0.8317852 0.35578215 -0.42608985 
0.28498137 0.85829276 -0.42675442 
0.50639933 0.8542119 -0.117821485 
0.32362646 0.9100745 -0.25890243 
-0.94507915 0.0666182 -0.31998035 
-0.71114504 0.6524432 -0.26189846 
-0.30148512 0.94147485 -0.15077093 
-0.36004493 0.8532008 -0.3773804 
-0.7774862 0.530901 -0.3371339 
-0.79007137 0.52744347 -0.31239495 
-0.3628895 -0.3719322 -0.8543874 
-0.61039823 0.4261755 -0.66767395 
-0.17923202 0.55104655 -0.8149992 
-0.4017455 0.72854257 -0.5548211 
0.62748307 0.7413929 -0.23791099 
0.5882334 -0.008814587 0.8086433 
-0.09128923 -0.17130044 0.9809804 
0.12686387 0.04217777 0.99102306 
-0.5559999 0.09999178 0.8251459 
-0.62035066 -0.34078157 0.70642275 
-0.5832936 -0.7696449 0.25964463 
-0.6388831 -0.76812637 0.04254775 
-0.5434876 -0.7528034 -0.37136015 
0.073043756 -0.9168177 -0.39256832 
0.43109855 -0.8769289 0.2124846 
0.70827717 -0.697358 -0.10970529 
0.54585266 0.044537902 0.8366967 
0.4331336 0.10285191 0.89544225 
0.66806394 -0.46208513 0.58323914 
0.15707225 0.04542732 0.98654175 
-0.6230681 -0.32546258 0.7112385 
-0.88844836 -0.24497811 0.3881305 
-0.9743502 0.13444732 -0.18045986 
-0.5886 -0.78853977 0.17819937 
-0.61566204 -0.705828 0.35038152 
-0.75934565 -0.58410066 0.2867416 
-0.6142996 -0.22960263 -0.75492966 
-0.7271375 -0.6306584 -0.27118483 
-0.658056 -0.6969631 -0.28496477 
-0.48932415 -0.37678382 -0.7865086 
0.14390868 -0.37049028 -0.9176204 
-0.32008752 -0.8199502 -0.4745795 
0.06355307 -0.842252 -0.5353247 
-0.29682633 -0.55512774 -0.77699894 
0.73372054 -0.013206442 -0.67932314 
0.73438615 0.61939096 0.2775463 
0.45249808 0.86750513 0.20659217 
0.7847063 -0.062014963 0.6167578 
-0.40705585 0.24848214 0.8789551 
-0.74551237 0.66602665 -0.024897583 
-0.9663295 -0.2138163 -0.14314263 
-0.781171 0.09836535 0.61651945 
-0.8286808 0.5096001 0.23150797 
-0.8753427 0.3282669 -0.35498738 
-0.7971252 0.5148355 -0.3154931 
-0.4056969 0.24776597 -0.87978536 
-0.84058297 -0.32802987 -0.43106458 
-0.65644276 0.41695586 -0.6286739 
0.19505818 0.7600027 -0.6199584 
0.7190904 0.40947565 -0.5614613 
0.5239326 0.61498636 -0.5893102 
0.8744774 0.4446649 -0.19381031 
0.92637205 0.2613843 0.27113336 
0.73827374 0.48972592 0.46381092 
-0.15960203 0.16746996 0.97287256 
-0.20253283 0.740698 0.6405834 
-0.6088104 0.26990485 0.7459902 
-0.27500993 0.11528337 0.9545047 
0.13610998 0.7260631 0.6740227 
-0.4099712 -0.18818817 0.89247346 
-0.73436815 0.3460829 0.5838923 
-0.55368066 -0.8289057 -0.079707555 
-0.7302808 -0.5434485 0.41394898 
-0.61418056 -0.679347 0.4015844 
-0.69188523 -0.45323431 0.5620264 
-0.31213522 -0.94543505 0.09340376 
-0.52672917 -0.49195367 -0.69320846 
0.0007306052 -0.3228579 -0.94644725 
0.18417872 0.27411723 -0.9438951 
0.96833724 0.20338568 -0.1447666 
0.9998748 -0.0024538145 0.015638087 
0.9936687 -0.048982184 -0.10111135 
0.9321481 0.30166307 0.2002487 
0.727689 0.6853701 -0.027139781 
0.46240863 0.26885974 0.8449217 
-0.14529519 -0.24105485 0.95957386 
-0.73136955 0.124108285 0.67059356 
-0.4124774 0.7528818 0.51286584 
-0.3804961 -0.035756722 0.924091 
-0.21560015 0.89625895 0.38760355 
-0.77567375 0.25533667 0.5771771 
-0.9482736 -0.047590885 0.31386682 
-0.8252558 -0.26383004 0.49934626 
-0.28019464 -0.6241964 0.72929406 
-0.74223834 -0.5962052 0.3059767 
-0.13965784 -0.2524538 -0.95747733 
0.22981921 -0.9182717 -0.32242852 
-0.16101724 -0.963265 0.21492827 
-0.56269443 -0.8169182 0.12656868 
-0.47005877 -0.8782811 0.08756194 
-0.614857 -0.7405888 0.27107054 
-0.48560414 -0.8245172 -0.29044822 
-0.59737587 0.78970623 0.13966434 
0.3796653 0.16223933 -0.91078687 
0.7095586 0.5012312 -0.49527156 
0.64974046 -0.03153093 0.75950193 
-0.39905947 0.3709623 0.83853364 
-0.638384 0.74573016 0.19066378 
-0.33281976 0.21179008 0.91889936 
-0.6021307 0.6683939 0.4366786 
-0.7945055 0.46980187 0.3847692 
-0.85311484 0.5205878 -0.034400385 
-0.70204264 0.4679722 -0.5367851 
-0.7614048 -0.2515148 -0.59749746 
-0.8248157 -0.2696503 -0.49695855 
-0.7490221 -0.12622905 -0.6504092 
0.014367529 0.22942789 -0.9732197 
-0.60776544 0.4722452 -0.63844 
0.07892538 -0.25607693 -0.96342903 
0.41080162 -0.31432685 -0.8558275 
0.99525666 -0.09651511 0.012213434 
-0.02566903 0.14634493 -0.98890054 
-0.04276973 -0.28872773 -0.95645547 
0.44916418 -0.41149545 -0.7930468 
0.20285292 -0.38120377 -0.9019615 
0.22414151 -0.36459348 -0.9037877 
0.36486453 -0.5553413 -0.7473085 
0.6952406 -0.47170582 0.5423413 
0.88515985 -0.029809888 0.46433142 
0.41234675 -0.16491209 0.8959766 
0.8517181 -0.00063803646 0.52399987 
0.831499 0.08388813 0.54915595 
0.77262396 -0.38127473 0.5076238 
0.6277781 -0.24257375 0.73963004 
0.25681487 -0.2814091 0.92458373 
0.25773433 -0.54047453 0.8009123 
-0.23442899 -0.6647357 0.7093445 
-0.6482084 -0.48342818 -0.5883223 
-0.88729185 -0.12882425 -0.44285148 
-0.82602674 -0.43774277 -0.35505092 
0.06812919 -0.43795124 -0.8964135 
0.48088592 0.083029866 -0.872843 
0.98240936 0.18652885 0.008880764 
0.83148336 0.1828783 0.52458644 
0.13242476 0.16793111 0.9768638 
0.224451 -0.2069411 0.95225906 
-0.03216473 -0.18247573 0.98268414 
0.3392468 -0.016150102 0.94055885 
0.45669433 -0.455507 0.7641622 
-0.01830794 -0.08514021 0.9962008 
-0.23475158 0.08081717 0.96869004 
-0.14685152 0.32305118 0.9349185 
-0.30264658 0.70744497 0.6386914 
-0.7891103 0.47805008 0.3857111 
-0.6951616 0.36776853 -0.61765426 
-0.65463805 -0.3614876 -0.6639095 
-0.06535491 -0.15391263 -0.9859208 
0.39682147 -0.16503757 -0.90293705 
0.7004016 0.10612747 -0.70581484 
0.89291584 0.23128262 -0.38627675 
0.8872557 0.3377238 0.3141972 
0.8654913 -0.24638487 0.43614155 
0.4842503 -0.68469286 0.54469943 
0.63167447 -0.2290201 0.74063295 
0.61855227 -0.27594584 0.73569494 
0.28034565 0.25963444 0.92411923 
0.47539574 0.6225446 0.62164074 
-0.0990697 0.4938237 0.8639001 
-0.40109622 0.63426024 0.6609355 
-0.7449164 0.21297608 0.63225067 
-0.43578425 0.89809436 0.05931904 
-0.69283724 0.6363311 -0.339204 
-0.3287258 0.23800333 -0.91394407 
0.7784218 0.47583234 -0.40944242 
0.3193303 0.56657004 -0.7596226 
0.44652125 0.2891972 -0.84674895 
0.35044634 0.099843025 -0.93124586 
0.3011156 0.3430519 -0.8897443 
0.55219907 0.80332017 -0.22305328 
0.69805473 0.65473986 -0.28988856 
0.37917832 0.6627594 0.6457351 
0.50969094 0.72515035 0.46300343 
-0.455168 0.7471889 0.48428386 
-0.18822837 0.87396646 -0.4480545 
-0.75777745 0.6522156 0.019702876 
-0.38908044 0.33440962 0.85836285 
-0.6190082 0.5056637 0.6009435 
-0.7299514 0.5284348 0.43350634 
-0.97133625 0.15654288 -0.17888665 