# OOMMF: rectangular mesh v1.0
# Segment count: 1
# Begin: Segment
# Begin: Header
# Desc: Time (s) :  3.6100000000000007e-07
# Title: m
# meshtype: rectangular
# meshunit: m
# xbase: 2e-09
# ybase: 2e-09
# zbase: 5e-10
# xstepsize: 4e-09
# ystepsize: 4e-09
# zstepsize: 1e-09
# xmin: 0
# ymin: 0
# zmin: 0
# xmax: 1.024e-06
# ymax: 1.024e-06
# zmax: 1e-09
# xnodes: 256
# ynodes: 256
# znodes: 1
# ValueRangeMinMag: 1e-08
# ValueRangeMaxMag: 1
# valueunit: 
# valuemultiplier: 1
# End: Header
# Begin: Data Text
-0.19894403 0.5307551 -0.82384485 
0.5524508 -0.23241282 -0.8004888 
0.96518284 0.22674732 -0.13041376 
0.4701308 0.6277108 0.62044835 
0.85585946 -0.07775058 0.51133096 
0.3058957 0.025651185 0.9517194 
0.23642695 0.44358408 0.8644857 
-0.16966309 0.73968655 0.651213 
-0.5782669 -0.20199825 0.79044545 
-0.56768525 -0.7718861 0.28622633 
-0.561682 -0.7634184 -0.31891343 
-0.85314924 -0.5007295 0.14630887 
-0.48541546 -0.5075714 -0.711859 
-0.36386245 -0.5594577 -0.7447223 
-0.16143224 -0.37595174 -0.91246915 
0.52345914 -0.7423245 -0.41826424 
0.60184264 -0.70787734 -0.3697231 
0.516798 -0.81419015 -0.26460227 
0.93523216 -0.12914883 0.3296382 
0.38660812 0.6849749 0.6175303 
0.93145376 0.08859664 0.35290876 
0.6628022 0.541071 0.51762486 
0.7214791 0.19967297 0.66302234 
0.2754454 0.51788914 0.80988926 
0.18604292 0.49751392 0.8472709 
0.45226496 -0.19175954 0.8710251 
0.5284565 0.7551144 0.3879896 
-0.06851145 0.51046115 0.8571673 
-0.21598484 -0.07749336 0.97331667 
0.59417295 0.050036807 0.8027795 
0.19583538 0.39022353 0.89965224 
0.16571988 0.26073948 0.9510793 
-0.74248236 0.5210414 0.42099395 
-0.80272365 0.27273837 0.53032875 
-0.15524462 -0.13127714 0.97911465 
-0.21927999 0.19960636 0.95502543 
0.031022375 -0.5136293 0.8574512 
0.4461475 -0.40496135 0.798097 
0.4287471 -0.37454963 0.8221244 
0.21612878 -0.23805197 0.94690007 
-0.50985736 -0.65973693 0.5520804 
-0.39832172 -0.86222804 0.31289414 
-0.19060951 -0.97299916 -0.13015616 
0.41972852 0.74551684 -0.51771873 
0.7005285 -0.4940309 -0.51496935 
0.5854688 0.089895315 -0.8056954 
0.039346714 0.19537926 -0.9799382 
0.6964057 0.14956385 -0.70189023 
0.63912666 0.70743245 -0.30175567 
0.17454413 0.5126383 -0.8406761 
-0.018033054 0.787901 -0.6155378 
0.79365957 0.5422554 -0.2757966 
-0.10053036 0.8547083 -0.50928146 
-0.027720483 0.6813012 -0.7314783 
-0.22788431 0.97226876 -0.052557446 
0.24436264 0.96881413 -0.04106325 
0.49553892 0.868001 0.03186689 
0.11121096 0.9653813 0.23594725 
-0.30231768 0.95274705 -0.029617945 
-0.055869002 0.9982354 -0.020119611 
-0.20401976 0.80499023 0.5571057 
-0.59734756 -0.08633312 0.79732215 
-0.7235571 -0.4518674 0.52180564 
-0.9318712 0.14052302 -0.3344689 
-0.2288625 -0.44047228 -0.8681049 
-0.4758204 -0.53666294 -0.6968414 
-0.70702666 -0.516593 -0.48295447 
0.0936698 -0.02481715 -0.995294 
0.71960634 -0.59047467 -0.36538544 
0.8299289 -0.48687458 0.27234408 
0.78138983 0.4928822 -0.38274932 
0.7974742 0.55041695 0.24713595 
0.80314034 0.46410707 0.37359127 
0.94056517 -0.22455485 0.2547791 
0.3927098 -0.54842174 0.7382498 
-0.17391625 -0.63349533 0.75394756 
0.023313439 -0.10401127 0.9943029 
-0.3919505 -0.88076514 0.26575848 
0.46821943 -0.8819928 0.053471677 
0.81025237 -0.35792667 0.4640901 
0.6664683 -0.59977096 0.44282597 
-0.1824094 -0.055456195 0.98165756 
0.007440566 0.6173684 0.786639 
-0.5276676 -0.47142363 0.7066305 
0.40210587 0.6381902 0.65652436 
0.37827316 -0.112618506 0.91881806 
0.17892401 0.09727227 0.9790426 
0.085941434 0.13583188 0.98699737 
-0.4093941 -0.14207643 0.90122736 
-0.6356188 0.07537931 0.76831424 
-0.72286236 0.24707563 0.64530903 
-0.7026951 0.6403512 -0.31011313 
-0.69376665 0.7089484 0.12680717 
-0.18859011 0.87771416 -0.44051313 
0.49406523 0.82621187 -0.2706912 
0.636899 0.75597525 0.15119937 
0.9855413 -0.13815011 -0.098097056 
0.76000917 0.49993142 -0.41527662 
0.6087295 -0.013348782 -0.7932656 
0.91191113 0.115975335 -0.39365968 
0.99949366 -0.009551326 -0.03035063 
0.8021157 -0.35471433 0.48040432 
0.78631103 0.37765554 -0.4889697 
0.8883083 -0.02424869 -0.45860723 
0.91481143 0.31911072 0.24756528 
0.34209248 0.10904198 0.93331814 
-0.2422316 0.3418265 0.908008 
-0.6912509 0.31676623 0.6494855 
-0.864381 -0.17430466 0.47166023 
-0.9704643 -0.23464224 0.05605549 
-0.47394627 0.1346772 -0.87019366 
0.3896676 -0.074879415 -0.9179065 
0.6904519 -0.5703813 -0.44490597 
0.096516214 0.030893408 -0.9948518 
0.26616985 0.25143427 -0.930556 
-0.24638346 0.75666505 -0.60560155 
-0.21688934 0.83528435 -0.5052318 
0.2469675 0.3158555 -0.9161018 
0.4747488 0.42477444 -0.770831 
-0.13026746 -0.2407686 -0.96180093 
-0.40734392 -0.0029245757 -0.9132701 
-0.6144779 -0.37740353 -0.6928085 
0.2517018 -0.6756823 -0.6928922 
-0.053465713 -0.5237397 -0.850199 
-0.57622236 -0.3720073 -0.72772145 
0.45679995 -0.20282975 -0.8661374 
0.0014629735 -0.3912929 -0.9202651 
-0.028915947 -0.15443653 -0.9875796 
0.5987451 -0.3424239 -0.7240513 
0.5589923 0.16184077 -0.81322527 
0.8854852 -0.3191908 0.33768818 
0.9752311 0.22006956 0.022224076 
0.8423116 -0.010215675 -0.53889406 
0.65213 0.16324209 -0.74032325 
0.9204956 0.076480545 -0.38319537 
0.9150263 0.20914426 0.34494278 
0.7411083 0.66680104 0.078325756 
0.25957325 0.51114523 -0.8193609 
0.37533855 0.55754703 -0.7404474 
0.50945383 0.85730344 -0.07407931 
0.7753073 0.58050185 0.2488299 
0.6972865 0.58660746 0.41192624 
0.2876714 0.33554706 0.89702475 
0.65513974 0.6421762 0.39799705 
0.9867756 -0.043322526 0.15619566 
0.03207419 -0.71306705 0.7003618 
-0.41639718 -0.522511 0.74404013 
0.081759356 -0.4887688 0.86857384 
-0.6890518 -0.5003294 0.52428824 
-0.9712193 -0.23811679 0.0057911156 
0.0034750972 0.26465183 0.96433777 
0.17073661 -0.41485056 0.8937271 
-0.12828752 -0.4883347 0.86317533 
-0.10338948 -0.29629827 0.94948304 
-0.861157 -0.3377761 0.37988955 
0.9195154 -0.29846564 0.25575328 
0.50011057 0.014874228 0.86583376 
-0.22383653 0.43575132 0.8717902 
-0.5139175 0.03490795 0.8571291 
-0.6975365 -0.3212736 0.640489 
-0.6380859 -0.015383252 0.7698116 
-0.46645507 -0.00455261 0.8845333 
-0.5124797 0.8586962 0.0023323817 
-0.55100834 0.13352367 -0.82374835 
-0.46161008 -0.16251202 -0.87207 
0.34381887 0.42637518 -0.8366558 
0.62830913 0.764166 -0.14587013 
0.933736 -0.018844444 -0.35746604 
0.7964605 -0.41546765 0.43936017 
-0.12163713 -0.46511975 0.87685126 
-0.23813333 -0.0807029 0.9678738 
-0.4726683 -0.15251489 0.86794233 
0.19076438 -0.122318156 0.97398525 
0.5364273 -0.56711787 0.62499857 
0.124231495 -0.4899221 0.86286896 
0.45237294 -0.84350795 0.28957427 
0.5076707 -0.6920181 0.5132071 
0.24328549 -0.17861389 0.9533674 
-0.42318782 0.4555056 0.78321564 
-0.3302745 -0.02536162 0.9435442 
-0.3668155 0.013865025 0.93019044 
0.23217511 0.05663853 0.9710236 
-0.4579317 -0.08054368 0.88533115 
-0.23618567 -0.028055074 0.9713029 
-0.411585 -0.54230976 0.73246026 
0.092160374 -0.883125 0.4599965 
-0.4381814 -0.65119493 0.6196308 
0.10508771 -0.90678674 0.40828228 
0.6605494 -0.745905 0.085442506 
0.8851927 -0.42083582 0.19832076 
-0.0972127 -0.9358142 -0.33882377 
0.45641428 -0.83558196 -0.30575925 
0.8973853 -0.3705925 0.23950116 
0.57023567 0.4687962 0.6745825 
0.5436854 0.367196 0.75470084 
0.89008105 0.08820052 0.44718745 
0.95694375 0.29022104 -0.0055284337 
0.8235851 0.5561856 -0.11119959 
-0.14058629 -0.20647982 0.9682983 
-0.5152059 -0.7695005 0.3774015 
-0.3656947 0.009968152 0.9306815 
-0.926733 -0.030604884 0.37447205 
-0.5983252 -0.32708576 -0.7314519 
-0.83573234 -0.26643005 -0.48017335 
-0.6016473 -0.24792026 -0.759313 
0.13859263 -0.60331154 -0.7853708 
-0.59622735 -0.5581572 -0.5770386 
-0.38312817 -0.14877295 -0.9116357 
-0.22523725 -0.7705065 -0.59631187 
-0.107289195 -0.7376426 -0.6666127 
-0.04727586 -0.34584334 -0.9371005 
-0.27685732 -0.96086514 -0.009394889 
0.48622447 -0.86593926 0.11719711 
0.923866 -0.34615052 0.16325305 
0.9553908 -0.1906841 -0.22553979 
0.96056724 0.13810302 -0.24132603 
0.92478454 -0.29526693 0.23998153 
0.7563564 -0.038391404 0.65303236 
0.2592145 0.93328035 0.24858774 
0.5537034 0.83103806 -0.052805964 
0.38799956 0.7157209 -0.5806893 
0.7997473 0.4613763 0.38410455 
-0.8292296 0.5531485 -0.080031164 
0.16035642 -0.8180675 -0.55231476 
0.78185093 0.38304898 -0.49191746 
0.88549864 -0.41913033 -0.20055424 
0.9464378 -0.08164275 0.31239402 
0.9114591 0.40427586 -0.07618038 
0.610302 -0.68949795 0.3900309 
0.45047775 0.34869477 0.82187706 
-0.1560607 0.48843423 0.85853195 
-0.8631843 0.15308428 0.4811218 
-0.93901974 -0.3438503 0.0030139228 
-0.68443906 -0.46406457 0.56230533 
0.088608265 -0.7166832 0.69174695 
-0.68783355 -0.52618873 -0.50001055 
-0.10560549 -0.5056959 -0.8562239 
0.063895926 -0.83345103 -0.54888695 
0.8173337 -0.39978635 -0.4148934 
0.1572887 -0.4666326 -0.87035304 
0.4080326 -0.060327396 -0.91097206 
-0.22855793 -0.2635377 -0.93718153 
0.9509304 0.07181293 -0.30095562 
0.5965636 0.6602924 -0.45620814 
0.80682325 -0.14265853 0.5733104 
0.38750893 0.4296287 0.81563234 
-0.5753734 0.6325838 0.5184432 
-0.84960777 0.5069048 0.1456512 
-0.4868483 0.7713088 -0.4099531 
-0.66436315 0.25986123 -0.7007808 
-0.6755124 -0.13472413 -0.72493625 
-0.43047276 0.50186825 -0.7502144 
0.47262496 -0.5459475 -0.6917854 
-0.12854184 0.51460326 -0.8477385 
-0.4434483 0.7797351 -0.44200322 
-0.10440118 0.3424247 -0.9337268 
0.23960274 0.39129156 -0.8885277 
0.7708705 0.4069564 -0.49004596 
0.836961 0.52926946 -0.13917732 
0.9567155 0.11902141 0.2655739 
0.11314188 0.23299053 0.9658749 
0.0046722754 -0.29444668 0.9556565 
0.28507298 -0.30522624 0.9086091 
-0.36017323 -0.65569365 0.6635821 
-0.9574858 0.28846362 -0.0031433883 
-0.98359644 -0.015253965 0.17973721 
-0.52375644 -0.6934461 -0.49478453 
-0.775287 -0.36466053 -0.51570606 
-0.69724876 -0.5772558 -0.42499405 
-0.72318333 -0.48777464 -0.48896 
-0.4512623 -0.49035072 -0.7455995 
-0.35932922 -0.89567184 -0.26202005 
0.41894075 -0.7200946 -0.5531296 
0.19048117 -0.19519684 -0.96208894 
0.46222427 -0.8438217 -0.2726056 
0.19277656 -0.8393711 -0.5082259 
0.9544053 0.22493 -0.1962576 
0.99744684 -0.0659672 0.027354022 
0.69870514 -0.22337277 0.6796438 
0.807587 0.17735314 0.5624493 
0.7295664 -0.04185415 0.6826281 
0.21536613 -0.61641794 0.75739443 
0.62262154 -0.43469676 0.65067744 
0.29808787 -0.2563978 0.9194585 
-0.20600817 -0.27163568 0.9400929 
-0.0837646 -0.0010177954 0.99648505 
0.07953966 0.33778197 0.93785757 
-0.30407792 0.2780769 0.91115856 
0.06686951 0.27827397 0.9581713 
0.14004973 0.05232248 0.98876107 
-0.2250651 -0.12976025 0.9656645 
-0.3742718 -0.17548865 0.9105627 
0.4756035 -0.51707166 0.71164477 
0.34947574 -0.8329789 0.4289673 
-0.13827176 -0.5604316 0.8165767 
0.50966036 -0.44770402 0.734716 
0.13208862 -0.96924525 0.20764452 
-0.20917831 -0.73833925 0.6411706 
-0.15983188 -0.8191366 -0.5508802 
-0.5551233 -0.03666697 -0.83095944 
0.31790328 -0.08104036 -0.94465333 
0.6744658 0.08740408 -0.7331143 
0.588835 0.59698147 -0.5448729 
0.6213823 0.75113255 0.22289905 
0.38309646 0.73576164 -0.5584728 
0.75427425 0.5724629 -0.32149118 
0.49736944 0.84359556 -0.20241126 
0.84343815 0.5264351 0.107136525 
0.73344004 0.6419104 0.22364442 
-0.047152072 0.9769699 -0.20810239 
0.16610745 0.96064365 -0.2226482 
0.32293996 0.9455205 -0.04124091 
0.29025847 0.9408923 0.17456153 
0.49154854 0.84994113 -0.18968426 
0.23744252 0.97096777 0.029028201 
-0.41961053 0.90703654 0.034809697 
-0.8353194 -0.0019944673 0.54976135 
-0.8546805 -0.41961235 0.30569056 
-0.72104716 -0.6829787 -0.11675266 
-0.97489566 -0.22036317 -0.031913962 
-0.90767574 -0.08785667 -0.41037297 
-0.6629804 -0.23935455 -0.7093423 
-0.3919671 -0.37832546 -0.8385891 
0.024971 -0.4155353 -0.9092342 
0.83667517 -0.4045911 -0.36916235 
0.6882914 -0.6145657 0.38544005 
0.8942121 -0.2473472 0.3731007 
0.5265012 0.37087715 0.7650142 
0.57049674 0.21409534 0.792904 
0.69809 -0.49394566 0.5183513 
0.68935096 -0.5745246 0.44126728 
-0.13466683 -0.41226608 0.9010558 
-0.32089046 -0.29288143 0.9006941 
-0.16155809 -0.2533232 0.9537958 
0.35599956 -0.9193356 0.16759002 
0.53370064 -0.8361033 0.12686557 
0.37032115 -0.06929296 0.92631567 
0.4525505 0.087264545 0.88745874 
0.8983859 0.032603253 0.43799525 
-0.4463637 -0.41526094 0.792665 
0.17672576 0.10188219 0.9789729 
-0.1661422 -0.10401076 0.9806012 
-0.8653551 -0.15334822 0.4771215 
-0.7571814 0.4496458 0.4738089 
-0.85314965 0.14756411 0.50036037 
-0.89402175 -0.26740134 0.35947433 
-0.87915915 -0.2690445 0.3933119 
-0.945601 0.30645978 0.10918489 
-0.97854835 -0.20397426 0.028942375 
-0.5022813 0.764545 0.403961 
0.7571658 0.49215087 -0.42952016 
0.6027043 0.68905884 -0.40242457 
0.9629478 0.2245892 -0.1493031 
0.4695654 0.05678539 -0.8810698 
0.7432767 0.22592594 -0.6296802 
0.6193012 -0.45133346 -0.64246726 
0.9914541 -0.020530077 -0.1288306 
0.92684156 0.1480321 -0.345038 
0.7199307 -0.059629235 -0.6914797 
0.89102334 -0.42487544 -0.1598695 
0.07808451 0.016923212 0.9968031 
-0.16636787 0.38062298 0.9096416 
-0.3861553 -0.22122015 0.8955143 
-0.5247358 0.29998943 0.79665476 
-0.78657037 0.23922455 0.5692792 
-0.9673092 -0.19906087 0.15712383 
-0.3000695 -0.7320908 -0.61155653 
-0.14938551 -0.05122384 -0.9874514 
0.12001182 -0.17094429 -0.9779444 
0.016488781 0.24767269 -0.96870345 
0.37959698 0.5989719 -0.7050808 
0.11093349 0.8428653 -0.5265661 
-0.08771043 0.97825885 0.18792708 
0.049217053 0.62152284 -0.7818485 
0.12453485 0.7132423 -0.6897656 
0.12653154 0.88381094 -0.4504088 
-0.5345416 -0.12190693 -0.8363037 
-0.02675206 -0.050550237 -0.99836314 
-0.4437931 0.032139596 -0.89555275 
0.3413698 0.13275364 -0.930507 
0.36717647 -0.03593896 -0.9294568 
0.21553469 -0.11134738 -0.97012717 
0.15258317 -0.61885303 -0.77054495 
0.6731431 0.19509311 -0.7133142 
0.6293434 0.09668817 -0.771089 
0.9927597 0.063155346 -0.102174744 
0.87727016 0.2943691 0.37913567 
-0.14729296 0.63700753 -0.75665456 
-0.0073808385 0.9371238 -0.34891915 
0.59937143 0.6491176 -0.46840197 
0.8606725 0.35644895 0.36357555 
0.57219917 0.0875533 0.8154279 
0.91764313 0.39730436 -0.008963474 
0.33739832 0.7367722 0.58594304 
0.42448556 0.8453549 0.32432568 
0.6186371 0.7559522 -0.21406697 
0.71421415 0.61645514 0.33148342 
0.36627656 0.9290101 0.052743204 
0.67217 0.34618145 0.6544814 
0.2094165 0.44608837 0.87014365 
0.814399 -0.3545453 0.45940396 
-0.073640615 0.15681997 0.984878 
-0.19690722 -0.84204763 0.5021786 
-0.23474114 -0.32203236 0.9171651 
-0.6841081 -0.5291302 0.50201344 
-0.6688479 -0.49075297 0.5583942 
0.08649935 -0.7902342 0.60666955 
-0.18778859 -0.24647586 0.9507813 
0.44332948 -0.67683196 0.5876712 
-0.082264386 -0.6482169 0.756999 
-0.18065017 0.251991 0.9507187 
0.44819146 -0.21548279 0.8675781 
0.42898902 -0.18991144 0.8831206 
-0.0789146 0.09542144 0.992304 
-0.67712027 -0.5272751 0.51331204 
-0.51245207 -0.79739755 0.31866938 
-0.6327365 0.12738545 0.7638177 
-0.44695774 0.6706956 0.5919428 
-0.75573283 0.3816034 0.5322092 
-0.9837933 -0.17147951 -0.052398387 
-0.30750135 -0.018513124 -0.95136756 
0.8349907 0.2627817 -0.48346305 
0.99665743 0.020020682 0.079203784 
0.66921914 -0.7206774 0.1810249 
0.7045796 -0.70804703 0.047297094 
-0.13771445 -0.6881357 0.7123933 
0.12578343 -0.31030193 0.9422799 
-0.12936054 0.07912999 0.9884353 
0.016590629 -0.73770416 0.67492026 
-0.745569 -0.3679548 0.5556403 
0.26673108 -0.9612209 -0.07006311 
0.2531977 -0.67164916 0.6962603 
0.1419629 -0.15219426 0.978102 
0.27346775 -0.7370092 0.6180881 
-0.0032078254 0.53928196 0.84211916 
-0.7386547 0.4277458 0.5209826 
-0.401702 0.0957003 0.91075635 
-0.3505157 0.43661517 0.82855654 
-0.48148578 0.82539976 0.2947659 
-0.73472184 0.67261964 0.088128224 
-0.9468052 0.19750607 0.25406978 
-0.6863254 -0.70224243 0.18924367 
0.11031134 -0.9729671 0.20289534 
0.051363613 -0.97699255 -0.20699623 
-0.23102373 -0.5747843 -0.7850166 
0.69275546 -0.689122 -0.21260457 
0.007906349 -0.9984295 0.055462677 
0.5905985 -0.8038016 0.071389146 
0.8670913 -0.30992943 0.3899956 
0.79482275 0.022248363 0.60643363 
0.15663189 0.31873187 0.9348136 
0.89451814 0.1293928 0.4278958 
0.65274817 0.3909055 0.64893204 
0.109133035 0.21091466 0.9713934 
-0.1325916 -0.3526338 0.9263201 
-0.90410393 -0.0136896 0.42709336 
-0.49791664 -0.39605838 0.771503 
-0.77892303 -0.15783755 0.606932 
-0.87061363 -0.041569524 -0.49020812 
-0.87196016 -0.4031319 -0.2777951 
-0.61400944 0.1649239 -0.771876 
-0.5989231 0.27010554 -0.7538795 
-0.59252656 -0.29417408 -0.74991596 
-0.38001758 -0.07325327 -0.9220741 
-0.6604529 -0.044979617 -0.7495191 
-0.27791578 -0.5540606 -0.78471637 
0.45460033 -0.66129154 -0.5966842 
0.37992117 -0.77784556 -0.50061584 
0.20443985 -0.9767627 0.06433438 
0.4371832 -0.66955954 -0.6004672 
0.4561899 -0.4265258 -0.7810036 
0.58024913 0.04838174 -0.8130008 
0.90556514 -0.25929528 0.33573487 
0.9316796 0.033817552 0.36170384 
0.80954164 0.58615017 0.032716732 
0.4296296 0.8073788 0.4044227 
0.61709833 0.72782457 -0.29910052 
0.938759 0.30403224 -0.16216028 
-0.3416581 0.6858966 -0.6425074 
-0.4226498 0.36039552 -0.8315541 
0.41463387 0.76537335 -0.49222216 
0.9793905 0.19584924 -0.049368773 
0.6710623 0.17464387 0.720538 
0.34332138 0.7991172 0.49349993 
0.48226458 -0.042242303 0.8750067 
0.3061345 0.17098072 0.936508 
0.29509044 0.06438313 0.95329773 
-0.31646997 -0.6164461 0.721 
-0.8422722 -0.24388061 0.48072842 
-0.574859 -0.5031777 0.64525145 
-0.6142151 -0.7525008 -0.23766044 
-0.41491136 -0.9053159 0.090839796 
-0.36047018 -0.008247803 -0.9327344 
0.034295946 -0.13191146 -0.99066806 
0.56519645 -0.09058394 -0.819968 
0.8043457 -0.057530757 -0.59136975 
-0.0987683 -0.07139744 -0.99254584 
0.075266935 -0.11634668 -0.99035263 
0.9270409 -0.20645054 -0.31300703 
0.4446525 0.89368296 0.060125697 
0.30671158 0.9040496 0.29769528 
0.5768707 0.38956666 0.71795404 
0.31711423 0.63240963 0.7067508 
0.071178526 0.59340096 0.80175376 
-0.8991433 0.30201745 -0.31674427 
0.29083294 0.67437035 -0.6787054 
-0.5331338 0.6880935 -0.49223557 
-0.4710242 0.86521786 -0.17185557 
0.35387835 0.9350265 -0.022262745 
-0.26407698 0.5037456 -0.82249844 
-0.34828165 -0.078369014 -0.9341082 
-0.05221625 0.70363367 -0.7086418 
0.55760574 0.37084752 -0.7426628 
0.5186744 0.7923765 -0.32111743 
0.40093428 0.9027986 -0.15558434 
-0.11486556 0.33042514 0.9368165 
0.24789967 -0.22697042 0.94182277 
0.797716 -0.47110757 0.37643966 
0.27119738 -0.6273539 0.7299858 
-0.7861035 -0.5801509 0.21322833 
-0.9215674 -0.38100815 -0.0744743 
-0.9026892 0.41842422 0.10036701 
-0.876367 -0.4620832 -0.1358682 
-0.942359 -0.2260268 -0.2467219 
-0.50944126 -0.06678441 -0.8579099 
-0.5786003 0.30060804 -0.75819296 
-0.44830358 -0.4993527 -0.74139786 
-0.319409 -0.85979867 -0.39840192 
-0.11278821 -0.7349976 -0.6686235 
0.09925076 -0.83537245 -0.5406498 
0.46958724 -0.4128674 -0.7804026 
0.5025974 -0.104453996 -0.85818726 
0.5761859 -0.16540542 -0.8004068 
0.98566806 -0.13523883 0.10084126 
0.87140626 -0.40828592 0.2719445 
0.7480283 -0.65852857 0.08242441 
0.47509116 -0.6243895 0.6200211 
-0.054239005 -0.9965548 0.062744334 
0.4848412 -0.56564426 0.667065 
0.9232391 -0.007240936 0.38415772 
0.49026582 0.3933357 0.7777702 
0.5722512 0.12649548 0.8102638 
-0.053297456 0.6349596 0.7707047 
-0.2371773 0.65515596 0.7172989 
-0.61731315 0.090955175 0.781442 
0.096143164 -0.68965024 0.7177319 
-0.2111785 -0.50676084 0.8358212 
-0.40321466 -0.8343249 0.3759254 
0.39584583 -0.9149682 -0.07835461 
0.016912961 -0.94638443 -0.3225998 
-0.00012148245 -0.8153804 0.57892567 
-0.20110753 -0.82549596 0.52736354 
0.46866417 -0.876091 -0.11321866 
0.030868195 -0.99552786 0.08928353 
0.5653761 -0.06860765 -0.82197505 
0.71120924 0.4247378 -0.5601601 
0.422758 -0.27352074 -0.86398035 
0.029610632 0.94484156 -0.32618657 
-0.028353157 0.9267289 0.3746593 
-0.048483536 0.96848166 0.24432084 
0.28997546 0.86893684 -0.40107745 
0.5041919 0.86237717 0.045785166 
0.77138394 0.5757798 0.2710063 
0.8110502 0.48300418 0.33000705 
0.77080345 0.50457 0.38893583 
0.87678194 0.3530234 0.32653958 
0.47844377 0.8453044 -0.23780711 
0.040306885 0.98596513 0.16201286 
-0.17204641 0.72630227 0.6654962 
0.44752863 0.843561 0.29685512 
0.276062 0.9431959 -0.18485503 
0.16062276 0.98420477 -0.07443929 
-0.6694684 0.15872294 0.72568536 
-0.5323629 -0.5662408 0.62925446 
-0.76332873 -0.63774174 0.10302836 
-0.66951454 0.7342227 0.11254901 
-0.88230264 0.45687366 -0.11317512 
-0.89982384 0.16965707 -0.40191233 
-0.27621943 0.32422432 -0.9047549 
-0.17995633 -0.3708259 -0.9111004 
0.9011287 -0.3544877 -0.24961059 
0.8898154 -0.4165344 0.18635406 
0.88827133 -0.13520527 0.43896896 
0.20172301 -0.24137498 0.9492344 
0.27080652 -0.2853846 0.9193582 
0.45473287 -0.5072508 0.732062 
0.8567379 -0.31639335 0.4073027 
-0.19780116 -0.31903166 0.9268731 
-0.46258426 0.06955621 0.8838427 
-0.6475117 -0.75648254 -0.09199258 
0.63083345 -0.6985564 -0.3377397 
0.56213903 -0.805859 0.18598612 
0.7903948 -0.594304 0.14858949 
0.6452047 -0.687975 0.33226684 
0.53156006 0.039440338 0.8461019 
0.42915604 -0.3851282 0.8170076 
0.22264525 0.11473147 0.96812487 
-0.2059922 0.09244901 0.9741768 
-0.4291124 -0.27613798 0.86000615 
-0.6711045 0.34600577 0.6556667 
-0.9436319 -0.09466371 0.3171715 
-0.46250844 -0.5074127 0.72706145 
-0.46811858 -0.8836155 -0.009421242 
-0.99371696 -0.0018053128 -0.111907534 
-0.9769699 0.08952521 0.19368835 
-0.8195313 0.21321613 -0.53189033 
0.022189647 0.13166995 -0.9910453 
0.9412594 -0.28081077 -0.18755308 
0.9737624 0.08783394 -0.20993334 
0.45892566 0.3784416 -0.80384654 
0.29839173 0.5120535 -0.8054587 
0.04612691 -0.22226606 -0.97389436 
0.9192806 -0.17036432 -0.35482275 
0.746839 -0.19305542 -0.63636565 
0.54079807 -0.73248297 -0.413529 
0.6436376 -0.17440422 0.7451939 
-0.48988593 -0.7782761 0.39280805 
-0.68561673 -0.11598654 0.7186633 
-0.6176635 -0.4228621 0.6630833 
-0.7016043 -0.122926764 0.70188355 
-0.903588 -0.13239944 0.40743014 
-0.50425524 -0.2101776 -0.83758706 
-0.6510425 -0.41926092 -0.6327432 
-0.5993524 -0.29222837 -0.74523777 
-0.6655486 0.39120242 -0.63561445 
-0.3429535 0.7369606 -0.5824707 
0.026686395 0.99303997 -0.11471473 
0.4859435 0.48110893 -0.72965276 
0.6906524 0.5107444 -0.5119957 
0.6502917 0.72598547 -0.22375396 
0.9591272 0.2828948 -0.006754228 
0.27395836 0.8941481 -0.35418352 
0.24535553 0.9342103 -0.2589435 
0.5914683 0.06384869 -0.8037964 
-0.24411201 0.05274276 -0.96831167 
-0.67283446 0.19969383 -0.7123316 
0.16904612 0.10208274 -0.98030746 
0.19520165 0.6134823 -0.7652031 
0.38370672 0.05713146 -0.92168605 
0.08904662 0.13255389 -0.9871678 
0.64012164 -0.2385594 -0.73029697 
0.8514474 0.052132536 -0.5218426 
0.75301576 0.5493399 -0.36220554 
0.6589529 0.5815984 -0.47699526 
0.7073731 0.65737224 -0.2597788 
0.999088 -0.041937817 -0.008034001 
0.91250646 0.22189486 0.34364906 
0.5438148 0.27657223 0.7923215 
0.7128095 0.61649436 0.334421 
0.20475447 0.4200095 0.8841197 
0.2517031 0.25885403 0.93254507 
-0.015126673 0.9290742 0.3695839 
0.4146558 0.86172503 0.2923879 
0.67001057 0.5558918 0.4920063 
0.5353795 -0.6662081 0.5191682 
0.42032993 -0.65463996 0.62830675 
0.5717736 -0.7101843 0.4107472 
0.5037161 -0.6303751 0.59067535 
-0.18906724 -0.42427418 0.8855761 
0.09047002 -0.99567276 -0.021236503 
0.049105525 -0.6381344 0.7683575 
-0.47478908 -0.6990613 -0.5346856 
0.5641051 -0.79059404 0.23821522 
0.4769652 -0.7285753 0.49161193 
0.31483108 -0.81901324 0.4796862 
0.42213002 -0.57816714 0.6982328 
-0.35998207 -0.5002846 0.78748226 
0.11550103 -0.19834593 0.97330284 
0.565787 -0.5302565 0.6314374 
0.4283502 -0.79784477 0.424217 
-0.14055571 -0.16678481 0.97592366 
-0.3946566 -0.36540937 0.8430434 
-0.36207086 -0.3210186 0.8751296 
-0.84167206 0.058349732 0.5368272 
-0.9725577 0.23234916 0.012059901 
-0.8476189 -0.22375 -0.481122 
-0.14294599 -0.68383944 -0.71549296 
0.88422024 -0.33887357 -0.32143322 
0.97165096 0.16649044 -0.16785564 
0.93421185 -0.35669905 0.0037661474 
0.97239244 0.07023498 0.22253078 
0.5060503 -0.7385276 0.44552228 
0.3794149 -0.109877504 0.91867906 
-0.7104963 -0.01673965 0.7035018 
-0.40219346 -0.54712534 0.7340942 
-0.26336786 -0.85816824 0.44066384 
0.2678643 -0.8644153 0.42548212 
0.34223697 -0.75014126 0.5658286 
0.7911858 -0.5931711 -0.14890628 
0.43193838 -0.8958475 -0.10433893 
0.716778 -0.14326257 0.682426 
-0.10274414 -0.10192102 0.98947245 
-0.16880344 -0.4071661 0.89761984 
-0.025422737 0.24023232 0.9703825 
-0.2841216 -0.32012448 0.9037672 
-0.9987518 0.049922626 -0.0016294832 
-0.8073389 -0.5017574 0.3105535 
-0.7432172 -0.5739614 -0.34379733 
-0.5730052 -0.07335004 -0.81626284 
0.09934519 -0.49101096 -0.8654703 
0.63269174 -0.40586096 -0.65952873 
0.83963764 -0.54305077 0.010231803 
0.5137764 -0.76149786 0.39516443 
0.64634776 -0.470818 0.6004706 
0.6710562 -0.6945804 -0.25931016 
0.8535367 -0.4089242 0.32288724 
0.36859608 0.17889033 0.9122145 
0.69514525 -0.423429 0.5809311 
0.7341931 -0.068058446 0.67552096 
0.11489425 -0.4413855 0.88993156 
-0.64879745 -0.09396858 0.75513697 
-0.39973712 -0.82653 0.39630622 
0.02539093 -0.44090766 0.8971933 
-0.77201277 0.2433909 0.58716047 
-0.83230036 0.5088993 0.21976733 
-0.97457004 -0.1077843 0.19645853 
-0.9405598 -0.111774236 -0.32070822 
-0.74445754 -0.0393045 -0.6665119 
0.35324204 -0.16104795 -0.9215659 
0.36085367 -0.16741991 -0.91747224 
0.17176348 -0.53613544 -0.8264722 
0.18501967 0.2731004 -0.94402546 
0.37921473 -0.66316015 -0.6453022 
0.35312912 -0.75867444 -0.5474605 
0.3414637 -0.89608175 0.28361976 
0.37240008 -0.54999495 -0.7475452 
0.6229429 -0.49057955 -0.6093225 
0.7595881 0.4062191 -0.50794876 
0.83159447 0.36983952 0.4143303 
0.80834645 0.19583555 0.5551797 
0.8896191 0.45123217 0.07048117 
0.45534545 0.22978257 0.8601515 
0.46076667 0.8650585 -0.19841336 
0.59332 0.7608718 -0.2627655 
-0.06727133 0.9328415 0.35395133 
-0.013786892 0.99712884 -0.074458376 
0.3592559 0.9332383 0.0011469146 
0.68707556 0.7096523 0.1559516 
0.6979934 0.25781557 0.6680841 
0.88626194 0.27303177 0.37415686 
0.59530294 0.17133677 0.7850212 
0.23438962 -0.19924147 0.9515063 
0.04519946 0.19667125 0.9794271 
-0.44670945 -0.45298126 0.77153003 
-0.846492 -0.45262542 0.2803242 
-0.69790655 0.13566248 0.70322275 
-0.686735 -0.48048425 -0.54546314 
-0.40050638 -0.90973204 -0.109463386 
0.36952594 -0.28898123 -0.8831424 
-0.29824692 0.25618428 -0.91946644 
0.5263282 0.36874568 -0.7661628 
0.17677447 0.1625696 -0.97073275 
-0.3082553 0.06783001 -0.94888234 
0.2916085 0.05033833 -0.95521235 
0.31720543 0.24017139 -0.91744125 
0.4759514 0.5066007 -0.7189061 
-0.25561073 0.9603773 -0.11107967 
0.2095161 0.7153054 0.66666436 
0.02534435 0.7776207 0.62822276 
-0.70440364 0.23931122 0.6682408 
-0.2349651 0.41455045 0.8791698 
-0.5534192 0.8214799 -0.13747065 
-0.02901442 0.8716661 0.48924088 
-0.2791755 0.93876195 -0.20195848 
0.06774756 0.98621947 0.15093519 
-0.40590125 0.91197395 -0.05956316 
-0.2308947 0.94693726 -0.22360149 
-0.1641457 0.81008714 -0.56286335 
0.98051566 0.18681692 0.060733758 
0.8019525 0.48447743 0.34950504 
0.23333 0.6956305 -0.6794523 
0.16822524 0.84227026 0.51213384 
-0.19593804 -0.47518572 0.85779196 
-0.27455178 -0.71485746 0.64311755 
-0.6777562 -0.70141166 0.22060907 
-0.5011727 -0.80591655 -0.3151579 
-0.83535856 -0.5136116 0.19590662 
-0.45479435 -0.8584468 -0.23713133 
-0.9831585 -0.11679615 -0.1405633 
-0.20710139 -0.65862626 -0.72340894 
-0.419471 -0.25218168 -0.87203693 
-0.3290065 0.1478092 -0.9326881 
-0.5369033 -0.53965276 -0.6484672 
-0.14344385 -0.96856076 -0.2032587 
-0.40007845 -0.49023348 -0.7743439 
-0.585209 -0.34839082 -0.7322256 
0.20713681 0.32221702 -0.92372644 
0.5188709 -0.7977034 -0.30731452 
0.50686264 -0.8373504 -0.20477977 
0.6629815 -0.499218 -0.5578861 
0.7402854 -0.66935873 -0.06274154 
0.7166982 -0.48085952 0.5050919 
0.39476374 -0.6275099 0.67111325 
-0.07070619 -0.90827876 0.4123475 
0.326369 -0.76742303 0.5518561 
0.84002197 -0.5314404 -0.10924487 
0.7256305 0.2548396 0.6391535 
0.21522291 0.31265265 0.9251635 
-0.3255791 0.7720299 0.5458645 
-0.9796487 -0.025823029 0.19905162 
-0.8297832 -0.0992821 0.5491839 
-0.34806737 -0.9088104 0.23002833 
-0.35381228 -0.93426734 -0.04428907 
-0.27154407 -0.90972716 0.31410265 
0.0052279546 -0.99940675 -0.03404313 
-0.030196296 -0.53873044 -0.84193695 
-0.74719477 -0.6458022 -0.15697011 
-0.22004838 -0.9745373 -0.043080587 
0.09643013 -0.022039348 -0.99509573 
-0.2491856 -0.26293302 -0.9320798 
0.72220147 0.117765725 -0.6815837 
0.63673455 0.5298508 -0.5602029 
0.43375802 0.8699071 -0.2347677 
0.35359734 0.934781 0.03396147 
0.79919845 0.57336015 -0.18038885 
0.84921104 0.4715321 0.23769341 
0.74912655 0.53084964 0.3962424 
0.2800817 0.63776964 -0.7174986 
0.77595675 0.5017393 -0.38229397 
0.8212065 0.5076031 0.26068962 
0.69668716 -0.10504288 0.70964295 
0.40646666 -0.19148497 0.89337474 
0.15727723 0.81533325 0.5572215 
0.23184703 0.8765641 0.421761 
-0.055367928 0.6318348 0.77312315 
0.14865507 0.94583535 0.28861254 
-0.28110474 0.8899837 0.35903922 
-0.49241328 0.76496494 0.41515997 
-0.7527029 -0.1722104 0.63543844 
-0.52386993 -0.5227026 0.6725641 
-0.7801823 -0.61916155 0.089189306 
-0.9418494 -0.26193276 -0.2105017 
-0.9446112 -0.32542905 0.042492136 
-0.55162287 0.046554577 -0.8327934 
-0.29255742 0.0043651788 -0.956238 
0.08807725 -0.33509746 -0.9380577 
0.6531175 -0.15857583 -0.74046695 
0.9333546 -0.30730167 -0.18551284 
0.6920074 -0.72068745 0.041659083 
0.3529278 -0.7360836 0.577601 
0.3870687 -0.7360688 0.5553203 
-0.08565041 -0.38529122 0.91881156 
0.6517461 -0.31200257 0.6912897 
-0.014942523 -0.5680349 0.8228688 
-0.4294591 -0.06928911 0.9004244 
-0.50380427 -0.633773 -0.5869524 
-0.07083316 -0.9625138 -0.26182044 
-0.17706744 -0.9599143 -0.21728233 
0.017930776 -0.8931792 -0.44934332 
0.54285145 -0.5481162 -0.6363026 
0.9414838 0.1878057 0.2798882 
0.8590609 -0.31543174 0.40313435 
0.46307158 -0.276247 0.84217125 
0.45843217 -0.2232289 0.8602377 
0.049414005 -0.20853958 0.9767648 
-0.83431864 0.11033851 0.54012764 
-0.7969684 0.10256511 0.59524935 
-0.4032663 -0.9016813 0.15603562 
-0.48589885 -0.8721915 -0.056430858 