# OOMMF: rectangular mesh v1.0
# Segment count: 1
# Begin: Segment
# Begin: Header
# Desc: Time (s) :  3.640000000000001e-07
# Title: m
# meshtype: rectangular
# meshunit: m
# xbase: 2e-09
# ybase: 2e-09
# zbase: 5e-10
# xstepsize: 4e-09
# ystepsize: 4e-09
# zstepsize: 1e-09
# xmin: 0
# ymin: 0
# zmin: 0
# xmax: 1.024e-06
# ymax: 1.024e-06
# zmax: 1e-09
# xnodes: 256
# ynodes: 256
# znodes: 1
# ValueRangeMinMag: 1e-08
# ValueRangeMaxMag: 1
# valueunit: 
# valuemultiplier: 1
# End: Header
# Begin: Data Text
0.5312603 0.4958876 -0.6869193 
0.6720113 0.5816525 -0.45834625 
0.20744419 -0.80815625 -0.5512264 
-0.07859975 0.06230833 -0.9949572 
0.13222174 0.5257786 -0.8402823 
0.7942877 -0.30697557 -0.52428335 
0.57905716 -0.8131403 0.059125293 
0.98606867 0.13363801 -0.09904345 
0.95128834 0.10250996 -0.2907616 
-0.07932541 0.84104645 0.53511536 
-0.15060541 0.9844988 -0.08988945 
-0.038782388 0.9833331 0.17762901 
-0.35685545 0.8849177 -0.2992905 
-0.490349 0.54503334 -0.68007106 
-0.6049531 0.40883243 -0.683292 
-0.13581881 0.4697728 -0.8722768 
-0.67382616 0.5780575 -0.46022594 
-0.22626606 0.96421117 -0.13820511 
-0.46161932 0.74893224 -0.4754031 
-0.47780666 0.7958046 -0.37201592 
-0.44825292 0.8466718 -0.28673393 
0.41972277 0.8653883 0.27374464 
-0.26386574 0.19231614 0.9451928 
-0.6733554 -0.011010095 0.739237 
-0.6070612 0.05832328 0.792512 
-0.54631674 0.35383448 0.7591701 
-0.5953911 0.3605922 0.71797127 
-0.97468567 0.17968617 -0.13304448 
-0.839911 -0.33451885 0.427372 
-0.6423624 -0.36981806 -0.6712713 
-0.35754114 -0.92695314 -0.1136757 
-0.5499595 -0.6490749 -0.5255915 
-0.8878561 -0.22045304 0.40387136 
-0.065544665 -0.9800206 -0.18778624 
-0.33465004 -0.50618625 -0.79484904 
0.05914984 -0.393786 -0.91729707 
0.628053 -0.7713903 -0.10250074 
0.66543555 -0.6994029 0.2608277 
0.50652754 0.2669318 0.81986415 
0.73749506 0.53529537 0.4117765 
0.39466527 0.2579298 0.8818796 
-0.10577029 0.07150391 0.9918165 
-0.4598911 -0.37998134 0.80256736 
-0.08041944 0.43366227 0.8974798 
-0.74189025 0.65278345 0.15320817 
-0.3522674 0.85068023 -0.39019334 
-0.07361748 0.75407135 -0.6526538 
0.53092325 0.4181058 -0.73709434 
0.93906283 0.23828158 0.24775594 
0.8035808 0.04619542 0.5934003 
-0.015955599 0.1821389 0.9831434 
-0.37488517 0.3784324 0.84631556 
-0.8516405 0.11592564 0.51114553 
-0.5941599 -0.4215323 0.6850435 
-0.7578341 0.60435206 0.24585782 
-0.98554873 0.0421268 0.16407053 
-0.94802994 0.30478406 -0.09135662 
-0.10240992 0.3007883 -0.9481765 
-0.1551766 -0.109836854 -0.98176175 
-0.035445392 -0.35316604 -0.934889 
0.50173026 0.23883775 -0.83139837 
0.49445847 0.42240083 -0.75966334 
0.45262358 0.71359485 -0.5347096 
-0.41669118 0.8545055 0.31014323 
-0.54333025 0.6940982 -0.47225007 
0.11971586 0.42834616 -0.8956494 
0.15209346 0.92985094 -0.33502954 
-0.5272287 -0.24144231 -0.8146997 
-0.6627567 -0.6588372 -0.35593143 
0.06370761 -0.34257033 -0.93732977 
0.40530235 -0.49758416 -0.7669029 
0.6798756 0.47099215 -0.5620815 
0.6538538 0.7445826 -0.1344322 
0.4768947 0.8760439 0.071543746 
0.33211076 -0.4459316 0.83117235 
0.7086769 -0.5621026 0.42640096 
-0.031402286 -0.16261859 0.9861892 
0.24608766 0.052439403 0.96782804 
-0.3164528 -0.6106912 0.72588843 
-0.052568346 0.45686814 0.88797987 
-0.075476386 -0.14698546 0.9862549 
-0.6804188 -0.6599756 0.318532 
-0.9104777 -0.105625 0.39984214 
0.09102762 0.4304816 0.89799756 
0.14512163 0.45213586 0.88006413 
-0.36933732 0.63025695 0.6829101 
-0.7053356 -0.37779212 0.59981227 
-0.03972311 -0.6807147 0.7314708 
0.4481558 -0.32856318 0.8313861 
0.31063697 -0.067621306 0.9481203 
0.43421564 0.019887583 0.9005895 
0.31322852 0.81040794 0.495103 
0.67338544 0.004027464 0.73928064 
0.10560928 0.13370326 0.98537815 
0.4049582 0.454815 0.7931912 
-0.56377333 0.73530734 -0.37614205 
0.20056096 0.9794668 -0.020498915 
-0.03559857 -0.06571716 0.9972031 
-0.18369174 0.67376655 0.7157486 
-0.8020436 0.5161256 0.3005668 
-0.710427 -0.22030425 -0.66840076 
-0.86073923 -0.5075321 -0.03923117 
-0.8252172 0.56041825 0.07034221 
-0.8837789 0.45022634 0.12740178 
-0.81939113 0.57073843 -0.053440016 
-0.8817186 0.13567877 -0.45184478 
-0.8829491 0.14113373 -0.4477524 
-0.8019257 0.4989563 -0.3285696 
-0.8931421 -0.32047027 -0.31558847 
0.3929224 -0.06606539 -0.9171954 
0.45413107 0.62773013 -0.63223404 
0.8171569 -0.13753636 -0.5597664 
0.66748095 0.23765206 -0.7056846 
0.17456615 -0.96620494 0.18966983 
0.49783948 -0.25126135 0.8300744 
0.29582912 -0.7638012 0.5736661 
0.89068645 0.3004412 0.34119314 
0.8271324 -0.2585763 0.49898916 
0.8902578 -0.26494595 0.37046576 
0.9047947 0.15283729 0.39747646 
0.16253164 0.5683204 0.806595 
-0.15708543 -0.060230568 0.9857467 
-0.356489 0.42748842 0.83076423 
-0.96360433 -0.12897006 0.23416534 
-0.5187555 -0.33135858 0.7880954 
0.3658988 0.10275717 0.9249644 
0.18692236 0.46905974 0.8631588 
0.0052771773 0.43109298 0.9022921 
-0.8404473 0.32929793 0.43036163 
-0.2808849 0.9322959 -0.22787754 
-0.63316226 0.19654295 -0.74864984 
-0.20001182 0.69429165 -0.69134253 
-0.39259702 0.8658963 -0.30998614 
-0.5413418 0.40962034 -0.7342754 
0.7273343 -0.06965935 -0.68273896 
0.6964942 0.54406047 -0.46786118 
-0.26371917 0.052467 -0.9631716 
-0.59764874 -0.46092352 -0.6560226 
-0.42724842 -0.90402234 -0.0142295025 
0.21050395 -0.42019168 -0.8826818 
0.16136976 -0.28795972 -0.9439487 
0.06228751 -0.264467 -0.9623811 
0.31157207 -0.7315575 -0.6064211 
0.85181147 -0.50403017 -0.14272682 
0.75256664 0.27758852 0.5971501 
0.8498622 0.21626998 0.48058468 
0.66583526 0.35553607 0.65594023 
0.47461885 0.028586494 0.8797271 
0.8996398 -0.33211705 0.28345472 
0.716046 0.14952962 0.68184984 
-0.44532293 -0.22598231 0.8663831 
-0.3850096 -0.10407481 0.9170257 
0.016981188 0.18472475 0.98264366 
-0.48740014 -0.3721455 0.7899043 
0.022036584 -0.62153846 0.7830737 
0.15904513 -0.03414113 0.9866808 
-0.04771858 -0.637281 0.76915276 
0.23786852 -0.292013 0.9263622 
-0.13993923 0.13564551 0.9808249 
-0.18771103 -0.46308422 0.8662088 
0.65032566 -0.32838517 0.68501073 
-0.7287993 -0.5864949 0.3533771 
-0.9933756 -0.08666522 0.07545914 
-0.9444835 -0.18260242 0.27314323 
-0.76520854 0.0008008859 0.6437821 
-0.26458934 0.44320408 0.8564827 
0.07480682 0.08040452 0.9939513 
-0.64647764 -0.40708166 0.6452528 
0.057627365 -0.58291554 0.8104867 
0.04590514 -0.96485853 0.2587293 
0.69988847 -0.7140966 -0.01490665 
0.4817892 -0.623298 -0.6159375 
-0.3608672 -0.6572029 -0.6617093 
-0.03394871 -0.038327355 -0.9986884 
-0.009608736 -0.06215253 -0.9980204 
-0.37932009 0.083110705 -0.92152536 
-0.20098114 0.20938455 -0.956956 
-0.5646895 0.14831497 -0.81186724 
-0.9107054 0.11557452 -0.39655805 
-0.88609457 -0.3503792 -0.30343172 
-0.7427806 -0.42758238 -0.5152186 
0.1495188 -0.5065134 -0.84916925 
0.38096732 -0.59991384 -0.70353913 
-0.3046671 -0.070324525 -0.94985914 
0.59434944 0.5357389 -0.59977716 
-0.21000306 0.0023253898 -0.97769797 
0.6538163 -0.3795215 -0.6545898 
0.16870207 0.96936125 -0.17854565 
0.23869172 0.76133996 -0.60281664 
0.502295 0.5057061 -0.7013995 
0.28176013 -0.0073573 -0.9594567 
-0.21280865 0.32264313 -0.9222874 
0.24153745 0.50200856 -0.83045 
-0.17405331 0.87507224 0.4516127 
0.39330488 0.57464695 -0.7176992 
0.7171387 0.50879115 0.4762811 
-0.13788873 0.8797311 0.45503843 
-0.046759028 0.6845241 0.72748905 
0.6221765 0.61355215 0.4862614 
0.8510044 0.40927133 0.32907212 
0.9092746 0.22933593 0.3473108 
0.76799065 0.62965184 0.1171702 
0.3979761 0.88898104 0.22655645 
-0.71267277 0.11896516 0.6913356 
0.10406016 0.3350978 0.9364192 
0.22419453 -0.040559407 0.97370005 
0.5266171 -0.4124755 0.7433293 
-0.22322544 0.061004758 0.97285604 
-0.69806296 0.7154904 -0.027956786 
-0.77047694 -0.026629696 -0.6369114 
0.3523013 -0.5586566 -0.7508574 
-0.8925239 -0.44625244 -0.065268144 
-0.8146548 -0.57958406 -0.020488422 
0.32820418 -0.92776144 0.17759728 
0.30353394 -0.8010948 -0.5158627 
0.2052701 -0.50208855 -0.840102 
0.52889913 -0.68623143 0.4993517 
0.06377686 -0.8056353 0.5889689 
0.5583235 0.05886295 0.8275325 
0.47786394 -0.10141331 0.87256026 
-0.343819 -0.05823898 0.93722826 
-0.86682314 0.35324386 0.35190403 
-0.87174577 0.48459598 0.072291754 
-0.9999725 -0.005137521 0.005361708 
-0.33298454 0.94151014 -0.051768716 
-0.6956065 0.5350007 -0.479485 
-0.9841734 0.08692333 -0.15442513 
-0.87148386 0.29897654 -0.38875297 
-0.21810326 0.45599928 -0.86284155 
-0.45906124 0.024278652 -0.88807285 
-0.20639685 0.31585255 -0.9260872 
0.1758222 -0.7376134 -0.6519303 
-0.1913527 -0.82827777 -0.526631 
-0.40359235 -0.69305766 -0.59731436 
0.07142545 -0.7007717 -0.7098011 
-0.1282666 0.4912437 -0.8615262 
0.58929384 5.8402125e-05 -0.8079189 
-0.044630837 -0.085242 -0.99536026 
0.31016126 -0.35009366 -0.88387465 
0.6213881 -0.18210803 -0.7620457 
0.85541564 0.17336439 -0.48806646 
0.48535475 0.8653922 -0.12460759 
-0.33860603 0.8950868 -0.29011285 
0.2651143 0.7430581 0.6144747 
-0.38073573 -0.10394866 0.91882265 
-0.22189043 0.5184929 0.8257904 
-0.5606988 0.31178692 0.76707613 
-0.6012707 0.68396604 0.4131151 
-0.49044785 0.87058234 0.039335947 
-0.89165676 0.12681645 -0.43458703 
-0.7340551 0.2796067 -0.61885643 
0.15177326 -0.58884346 -0.7938693 
0.07901383 -0.13572185 -0.98759127 
0.46620318 -0.4717509 -0.7484022 
0.28658187 -0.5454526 -0.7876246 
0.4799633 -0.87719524 0.012798135 
0.93100494 0.35400322 0.08894672 
0.23309329 0.37943554 -0.89537495 
0.561857 -0.0014030215 -0.8272333 
0.7289682 0.04341159 -0.6831697 
0.6407453 0.62283057 -0.44891834 
0.7569744 0.5257459 -0.3880478 
0.7614934 0.1575068 -0.62874436 
0.89796776 0.12431696 -0.4221367 
0.7087899 0.6246704 -0.32772532 
0.29771277 0.93941 -0.16992964 
-0.41487092 0.88841224 0.19648403 
-0.25432155 0.96213293 0.09808646 
-0.37444928 0.83415365 0.40493888 
-0.18312472 0.8074389 -0.56080997 
0.070341244 0.69119465 -0.7192372 
0.4668957 0.6960599 -0.5454439 
0.041829124 0.735191 -0.6765683 
-0.7276959 0.68446493 -0.044345215 
-0.30437216 0.93408865 -0.18664432 
0.060018968 0.7897035 -0.6105458 
0.17180069 0.7692448 -0.6154243 
0.66212803 0.7261546 0.1851651 
0.49245137 0.4247529 0.75965565 
0.34725377 0.72687376 0.5925112 
0.07917756 -0.13531093 0.9876345 
-0.12581438 0.3066971 0.94345516 
-0.46177492 0.13615076 0.87648565 
-0.87520933 0.21398267 0.43384337 
-0.59617037 0.793087 0.124875516 
-0.8721594 -0.28818586 -0.3953314 
-0.75082743 -0.41391784 -0.51471376 
-0.86048514 -0.37480924 -0.34508452 
-0.460125 -0.8833423 0.089395046 
-0.50325286 -0.5664706 -0.65257 
-0.10861465 -0.36093152 -0.9262458 
-0.09615103 -0.0069574453 -0.9953425 
0.26469523 -0.5198665 -0.81220394 
0.94645077 -0.26602787 -0.18292119 
0.68391716 -0.3984119 0.61116713 
0.44004488 -0.59978503 0.66829526 
0.52838653 0.3542504 0.7715661 
0.46303397 -0.4938521 0.73600936 
0.18902022 -0.03812717 0.9812327 
0.5260615 0.2587749 0.8101204 
0.18046792 0.7156666 0.6747242 
-0.6459849 0.74413455 0.17019778 
-0.024225706 0.9992048 0.031667974 
0.3553536 0.87677807 0.32401264 
0.5237195 -0.5344455 0.66338974 
-0.23796827 -0.11940325 0.96390563 
-0.29784235 -0.5022065 0.81183666 
-0.25401837 0.22477111 0.94071925 
-0.6896746 0.13533916 0.71135944 
-0.33654687 -0.5299424 0.7783941 
-0.8564335 -0.40175238 0.32421693 
-0.890652 -0.32650125 0.31644282 
-0.878998 0.32066497 -0.35289755 
-0.41887304 0.39519355 -0.8175375 
0.2282463 -0.32524168 -0.9176718 
0.37968934 0.21517007 -0.8997433 
0.1920995 0.90470076 -0.3802821 
0.72907674 0.49594188 -0.4716873 
0.8459258 0.5171034 0.13043645 
0.4933077 0.7429581 0.45239452 
-0.16692762 0.97482276 -0.14783709 
-0.1020205 0.9800338 -0.17066237 
0.16154462 0.78644174 -0.5961651 
-0.099391215 0.16615134 -0.9810786 
-0.41361558 0.1003777 -0.9049013 
-0.3528452 0.5596295 -0.74987674 
0.3802868 0.78908664 -0.48241502 
0.5432211 0.82412845 -0.16038403 
0.6504256 0.55366045 0.5200064 
0.64796644 0.4687868 0.6003154 
0.46859205 0.35213676 0.8101983 
0.6424212 -0.6658176 0.37944946 
0.46483374 -0.28538117 0.8381451 
0.19774978 0.31661996 0.92771053 
0.17250556 -0.17581356 0.96919113 
-0.31431946 0.6748925 0.6676253 
0.20998517 -0.88245124 0.42093483 
-0.49048498 -0.27035937 0.82845056 
-0.82900244 0.45999113 -0.31806165 
-0.09414446 -0.64181507 0.7610586 
-0.21067575 -0.66838753 0.713354 
-0.4543594 -0.8592946 0.23488365 
-0.07871166 -0.9432032 -0.32275736 
0.13568465 -0.9885689 -0.06573558 
0.23362024 -0.84305626 0.48443547 
0.34422252 -0.8205976 0.4562132 
0.27125695 -0.8062396 0.525735 
0.52738017 0.2652453 0.80716485 
0.40867072 -0.109221034 0.90612304 
0.62261105 0.20313759 0.7557054 
0.22602643 0.76839 0.5987396 
0.0041499827 0.969337 0.24570045 
-0.33135873 -0.02708817 0.943116 
-0.025767252 0.0059272023 0.9996505 
0.49509507 0.026991455 0.8684194 
0.29302597 -0.3746364 0.8796496 
-0.7391895 0.43868637 0.51103145 
-0.977084 0.08861642 -0.19353083 
-0.6572696 0.27596083 0.7013147 
-0.6029386 0.79756385 0.018896949 
-0.8246776 -0.4035167 -0.39633492 
-0.6982769 -0.4293941 0.5727392 
-0.73375034 -0.04098891 -0.67818177 
0.29314733 -0.49271208 -0.81932867 
-0.24417722 0.1945552 -0.9500135 
-0.35782477 0.49392533 -0.7924641 
0.14117844 0.66080135 -0.7371637 
0.98895836 0.049090397 -0.13982671 
0.39565766 0.87107575 0.29100192 
0.97245884 -0.2308036 0.032460243 
0.50103915 -0.86304605 0.06411981 
0.7491226 -0.6144199 -0.24759541 
0.7758504 -0.47164938 0.41905034 
0.68771636 -0.10222479 0.7187464 
0.041419216 -0.32027778 0.9464178 
0.5161134 0.086816646 0.8521091 
-0.010969244 0.051990192 0.9985874 
-0.3874241 -0.82687926 0.40764338 
-0.037703358 0.11187643 0.9930066 
-0.4419951 -0.78660023 0.43116173 
-0.20448878 -0.5961087 0.77642703 
0.46226358 -0.28666356 0.83912843 
0.069509745 0.03616867 0.9969255 
-0.65731394 0.13474087 0.74147373 
-0.5805765 0.81391174 -0.021881873 
-0.45174348 0.52804667 -0.7190929 
-0.10003002 0.70799166 -0.6991008 
0.4980451 0.85949165 -0.11500184 
0.36480612 0.822191 -0.4369422 
-0.1512103 0.75141454 -0.64227086 
0.108757816 0.7757707 -0.6215718 
0.19049343 0.56022716 -0.8061377 
-0.45257765 0.07943329 -0.88818014 
-0.701031 0.48503232 -0.52278024 
-0.73834205 0.61628205 -0.27394792 
-0.34928882 0.1657158 -0.9222449 
0.3505083 0.32163748 -0.8795983 
0.04557144 -0.55701816 -0.829249 
0.3260418 -0.46323565 -0.82408106 
0.66784495 -0.21962173 -0.7111607 
0.9902647 -0.09477526 0.101948194 
0.825564 -0.5530372 0.11222254 
0.730069 -0.012595267 0.6832574 
0.5923462 -0.63406587 0.49707803 
0.6871929 -0.15220197 0.71035236 
0.67426693 -0.65099573 0.3486671 
0.50962937 -0.5932128 0.6231987 
0.13203502 -0.94839084 0.28830808 
0.24789655 -0.3685265 0.89595515 
-0.34913018 -0.07179468 0.93432 
0.69254994 -0.28710103 0.6617762 
-0.2841026 -0.19396369 0.93896955 
0.1799747 -0.69448364 0.69663596 
-0.49040633 -0.6981763 0.5215855 
-0.2695424 -0.8159021 0.511518 
-0.26906124 -0.7130995 0.6473757 
0.37062192 -0.86078346 0.34884283 
-0.5300848 -0.362376 0.766612 
-0.98772585 -0.04203909 0.15043443 
-0.98262376 -0.014390893 0.18505037 
-0.78873193 -0.18181477 0.58723533 
-0.8871664 0.17379604 0.42747018 
-0.28093195 -0.568456 0.7732626 
0.18442944 -0.17306104 0.96748936 
0.27144718 -0.60963136 0.74475914 
-0.029146755 -0.97356313 -0.22655095 
0.79423547 -0.603466 -0.07084371 
0.0702891 -0.9953191 -0.06632695 
-0.43799728 -0.8817762 0.17501166 
0.19978552 -0.9487709 -0.24478506 
-0.1934556 -0.9362602 -0.29324338 
-0.39763632 -0.58733875 -0.7049246 
-0.37228972 -0.039927136 -0.9272574 
0.020025387 -0.24190058 -0.9700944 
-0.21896325 -0.39872754 -0.8905457 
-0.98756456 -0.12631604 -0.09359829 
-0.09812098 -0.17538609 -0.97959787 
-0.040590722 0.015543045 -0.99905497 
0.46299723 0.17242226 -0.8694275 
0.10297194 0.22999169 -0.9677296 
-0.24482863 -0.43797854 -0.8650051 
0.42203018 -0.08590237 -0.9025029 
0.4574336 0.14211757 -0.8778138 
0.6474386 0.57040876 -0.5054278 
-0.14716622 0.52060074 -0.8410215 
0.22277099 0.6780616 -0.7004325 
-0.1626257 0.97398037 -0.15784544 
-0.15360889 0.941961 -0.2985196 
-0.52705336 0.55900204 -0.64010274 
-0.53146625 0.8400254 0.1090915 
-0.42166772 0.61277384 0.66835964 
0.33696362 0.81873256 0.4649007 
0.0030963663 0.50289655 0.86434114 
-0.07242304 0.63875544 0.76599383 
0.16175063 -0.17643182 0.9709318 
-0.08991358 0.43960637 0.8936788 
0.3799703 -0.18160439 0.90699637 
0.7974761 0.19531383 0.57086295 
0.59577626 0.16156998 0.7867312 
-0.5080334 0.030857088 0.86078453 
0.3636227 -0.06118455 0.92953485 
0.036692444 -0.8271245 0.5608198 
0.29355142 -0.23132941 0.92753124 
-0.44559518 -0.3827368 0.80929446 
-0.41678053 -0.061025854 0.9069564 
-0.94531494 -0.23695526 -0.22412464 
-0.34702826 -0.5929316 -0.7266385 
-0.37809893 -0.92400706 0.05702871 
0.42578238 -0.716853 -0.5521152 
0.8341395 -0.55131716 0.016147409 
0.60794437 -0.66138685 -0.43928486 
0.4308712 -0.6336644 -0.64251035 
0.83794206 -0.07821806 -0.540125 
0.43364048 -0.7983472 0.41784912 
0.46200854 -0.15961029 0.8723948 
-0.21766117 0.33214462 0.917771 
-0.5632542 0.21761578 0.7971124 
-0.87155855 -0.21585308 0.44021937 
-0.96464735 0.15906364 -0.21012914 
-0.97447085 0.017618267 0.22382177 
-0.695335 0.6723849 0.25378704 
-0.75891495 0.50076 0.41627842 
-0.82687974 0.52503276 0.20152056 
-0.7812251 -0.29606622 -0.5495747 
-0.9876276 0.12954634 -0.08837106 
-0.7661409 0.31145093 -0.5621625 
-0.35047466 0.17463735 -0.9201464 
0.18119551 -0.036290474 -0.98277736 
-0.04006085 0.0723914 -0.9965715 
-0.2865674 -0.22999497 -0.93004376 
0.6168595 -0.33963367 -0.7100235 
0.6521059 0.113120355 -0.7496411 
0.7888256 0.018573118 -0.6143364 
0.6105666 0.0048073153 -0.79195035 
-0.14829682 0.10748746 -0.9830842 
0.0042057135 -0.072768286 -0.9973401 
0.26790354 0.8930917 -0.36140686 
0.38147774 0.92083293 -0.08087971 
0.22982378 0.63377786 0.7385843 
0.08873703 0.28901222 0.9532039 
0.1473352 0.015829297 0.98896 
-0.41482827 0.047241535 0.9086725 
-0.5692281 0.35245758 0.74280083 
-0.7059006 0.5719147 0.4178732 
-0.6934352 0.43637443 0.5733455 
-0.67431974 0.41050062 -0.6138258 
-0.53384703 0.4959651 -0.6848547 
0.11702323 -0.050658476 -0.9918363 
0.814419 -0.2525769 -0.5224239 
0.79502124 -0.4840494 -0.36556438 
0.8394914 -0.39601147 -0.37206054 
-0.73853666 -0.022647412 -0.6738329 
0.63635236 0.3815583 -0.6704246 
0.4978075 0.788853 -0.36041468 
0.16429365 0.47895923 -0.8623257 
0.8588033 0.095996246 0.5032314 
0.56844485 0.72831005 0.38266826 
0.47267607 0.8740778 0.112096064 
0.40476507 0.6544867 -0.6386019 
0.62166405 0.7623299 0.17996426 
0.18425022 0.93833345 -0.29254436 
-0.30963287 0.9006057 -0.30501938 
-0.064155445 0.9484628 0.31032625 
-0.2915417 0.9159417 0.27577928 
-0.5649789 0.77550614 0.28176057 
-0.726125 0.68737715 -0.015974296 
0.5547986 0.48347145 -0.6770923 
0.6349253 0.0353973 -0.77176225 
0.7431894 0.6180395 -0.2563137 
0.5028485 0.768307 -0.39604026 
0.52201355 0.77196044 -0.36273816 
0.4050786 0.91409856 -0.018309422 
0.07264274 0.98552716 -0.15316467 
0.7567423 0.6102005 0.23451343 
0.2802847 0.31521598 0.90668595 
0.345545 0.0153063955 0.93827736 
-0.07200762 0.5423043 0.83709085 
-0.4848212 0.44166082 0.7549068 
-0.7415093 -0.2964848 0.60188097 
-0.75635886 -0.23104067 0.611998 
-0.86917716 0.49437377 -0.011215691 
-0.766569 -0.39770877 -0.50418234 
-0.7001564 -0.5384761 -0.4688546 
-0.84051657 -0.083887905 -0.53525215 
-0.027814748 -0.66966474 -0.7421425 
-0.8666566 0.18728626 -0.46241784 
0.064718954 0.078721255 -0.99479365 
-0.226568 -0.90600014 -0.35753432 
0.027839223 -0.9460174 -0.32291818 
0.8136373 -0.57630444 0.0766012 
0.8896713 -0.27312163 0.3659091 
0.58215153 -0.35449922 0.73173076 
0.5614901 -0.52199304 0.6420686 
0.6307623 -0.4440761 0.6363453 
0.8289193 0.41114104 0.37928358 
0.21036401 0.31557432 0.9252891 
-0.00090732664 0.8280075 0.5607164 
-0.45908192 0.6027578 0.65263075 
-0.2190285 0.80026543 0.558213 
0.14459659 0.57375395 0.8061626 
0.40316537 0.5187384 0.753902 
0.007055705 -0.6164539 0.7873594 
0.35398975 -0.37165773 0.8582318 
-0.5776306 -0.2505893 0.7768836 
-0.946718 -0.17828596 0.26821467 
-0.47599113 -0.83103406 -0.28777578 
-0.53457147 -0.6945478 -0.48149437 
-0.5268764 -0.49972463 -0.68751484 
-0.7831233 0.35440013 -0.5109977 
-0.20617777 0.6624354 -0.7201875 
0.33897525 0.2214463 -0.9143617 
0.7550165 0.6123316 -0.23452121 
0.7569365 0.6263111 0.18649808 
0.5535237 0.8323706 -0.027764527 
0.86633295 0.12247606 0.48421776 
0.04083354 0.8248093 0.5639346 
0.16682278 0.79987395 0.5765171 
0.09066522 0.90739304 0.4103874 
-0.041822433 0.9466326 -0.31958982 
-0.3468759 0.6279025 -0.69671774 
-0.04408564 -0.10165031 -0.99384296 
0.40651688 0.7709486 -0.49028802 
0.8726386 0.09828145 -0.47837514 
0.9132016 0.36036628 -0.1902607 
0.8737817 0.13785149 0.46637166 
0.8660389 -0.16551739 0.47178462 
0.77667916 0.38602373 0.49775025 
0.61388177 -0.38143152 0.69112897 
0.412625 -0.14649086 0.89904463 
-0.191646 0.4081616 0.89256704 
-0.39713237 -0.35234815 0.84742945 
-0.41553542 0.55713797 0.7189768 
-0.020874143 -0.84601295 0.53275365 
-0.90500623 -0.42533123 -0.0075609447 
-0.99390393 -0.10480236 0.034226637 
-0.882753 -0.36984056 -0.28976744 
0.027985867 -0.97303975 0.22893348 
-0.42480347 -0.6704012 0.608362 
-0.54244924 -0.8271916 0.14663886 
0.21674693 -0.9561807 -0.19682312 
0.6539576 -0.16473033 0.73837894 
-0.18699116 -0.9597878 0.20938422 
0.19868219 -0.96675754 -0.16095145 
0.29544884 -0.9122063 0.28388345 
0.9497552 0.15982544 0.26911154 
0.5575579 0.7474704 0.36113343 
0.0817888 0.28945893 0.95368975 
0.48972043 0.3475829 0.79959995 
-0.07418499 -0.05754694 0.9955827 
-0.62498045 -0.19898349 0.7548543 
-0.14144711 -0.1944903 0.9706525 
-0.6040534 -0.41182995 0.68228716 
-0.44301996 0.56863064 0.69310355 
-0.8660411 0.48122835 0.13561717 
-0.7701445 0.40769464 0.49057382 
-0.81569755 0.50969875 -0.2735777 
-0.8055929 -0.23443696 -0.54411346 
-0.80816466 -0.5415859 0.23141888 
-0.61735624 -0.13214335 -0.7755059 
-0.6137436 -0.57065827 -0.5455895 
-0.3968958 -0.42571023 -0.8131694 
-0.28008592 -0.29757774 -0.91268796 
0.2704944 0.13795158 -0.95278656 
0.7539661 -0.12013428 -0.645835 
0.7963293 0.58456004 0.15540034 
0.78186756 -0.5480794 0.29713988 
0.5759153 -0.62446 -0.52760905 
0.49274582 -0.7364395 0.46352822 
0.9459713 -0.30706456 0.10416266 
0.75266993 -0.2132065 0.62292147 
-0.1390652 -0.5987584 0.78876436 
0.60384995 -0.60931486 0.5139074 
0.18464437 -0.62576056 0.7578458 
-0.17540604 -0.5499805 0.8165502 
0.18244226 -0.97354597 0.13756096 
0.19415599 -0.92275965 0.33289364 
0.9634932 -0.25361642 0.08578753 
0.34084222 -0.31511706 0.88573575 
0.44669187 -0.5631657 0.69520557 
-0.57242227 -0.15609717 0.80496365 
-0.56909776 0.7599454 -0.31402364 
-0.8122878 0.19345044 -0.55024135 
-0.60990053 0.36382222 -0.70402753 
-0.6273836 0.77422804 0.083432004 
-0.4580522 0.7854263 -0.41628549 
-0.28992718 0.75544053 -0.5875813 
0.21957442 0.87418747 -0.43310896 
0.057110462 0.992774 -0.105537705 
-0.81393486 0.5241094 -0.25063795 
-0.8035483 0.033816762 -0.5942782 
-0.6042249 -0.070402324 -0.7936976 
-0.40140972 -0.05064682 -0.91449726 
-0.057939995 0.3079824 -0.9496262 
0.27445734 -0.08164993 -0.95812654 
-0.19387722 -0.69344217 -0.69393784 
-0.0607111 -0.10526073 -0.9925897 
-0.28731504 -0.038288634 -0.95707065 
0.26105082 -0.914213 -0.30994695 
0.7872449 -0.27206686 0.5533762 
0.84987855 -0.21228893 0.48232764 
0.53974384 -0.73039365 -0.41857123 
0.59433603 -0.7292389 -0.33908007 
0.7984373 -0.3575711 0.48439756 
-0.07014071 -0.3890145 0.91855764 
-0.1543779 -0.13953276 0.9781095 
-0.103166744 -0.85824174 0.5027702 
-0.30054745 -0.83181214 0.4666474 
-0.56215817 -0.815013 0.1404709 
-0.0037862922 -0.68030566 0.7329188 
-0.55070007 -0.54601306 0.6313472 
-0.6963613 -0.64980966 -0.30467758 
-0.24301696 -0.77434564 0.58423597 
-0.305532 -0.9432128 0.13038307 
-0.78355324 -0.56164986 0.2656953 
-0.7284634 -0.51352274 0.45347056 
-0.7768008 -0.47065133 0.41841128 
-0.8721741 -0.2782464 0.40235728 
-0.68259424 0.023622189 0.73041576 
0.22700469 -0.9692036 0.095463224 
-0.18848103 -0.65987074 0.72735524 
-0.2985737 -0.8188276 0.49028075 
-0.27208993 -0.8979569 0.34589085 
-0.21591003 -0.94510204 -0.24528575 
-0.8437964 -0.5352874 0.03840939 
-0.37790477 -0.7880413 -0.4859826 
-0.6079356 -0.46138296 -0.6461734 
-0.5363756 -0.5686363 -0.62366176 
-0.044713683 -0.5552424 -0.8304857 
0.090521194 -0.8208357 -0.56394565 
0.086511895 -0.29777735 -0.9507073 
-0.48861748 -0.55788946 -0.6708296 
-0.5584026 0.16364367 -0.81326956 
0.053107984 0.30337876 -0.95138896 
0.35520467 0.07722492 -0.9315933 
0.46226913 -0.43954134 -0.77013683 
-0.04472371 0.19659841 -0.97946364 
-0.32160676 0.21576779 -0.9219618 
0.08339716 0.42807615 -0.8998865 
0.28441063 0.23833987 -0.92860365 
0.19888484 0.39351803 -0.89754575 
-0.47431105 0.82032645 -0.319521 
-0.5802228 0.8128603 0.050988115 
-0.6004315 0.78571934 0.14875206 
-0.6215698 0.78297794 -0.024425227 
-0.21451676 0.85880417 0.46522918 
-0.64305747 0.7423888 -0.18797876 
-0.2416145 0.9686754 0.057362657 
0.35470173 0.68588287 0.6354144 
-0.048549876 0.52094454 0.85220873 
-0.13790609 0.04713833 0.989323 
-0.5629271 -0.03304993 0.8258455 
-0.558152 0.067547426 0.8269847 
0.21380891 0.6500326 0.72920746 
0.76885366 -0.6139231 0.17878062 
-0.087929845 -0.6934856 0.7150847 
0.27055836 -0.1950586 0.94273555 
-0.60063416 -0.28163117 0.7482797 
-0.026773848 -0.6518826 0.75784713 
0.18781349 -0.95723754 0.22005118 
0.05636782 -0.6376891 0.7682287 
-0.62175983 -0.6603898 0.42107016 
-0.8799327 -0.46305224 -0.10630641 
-0.06121689 -0.615938 -0.78541267 
0.572047 -0.81582046 -0.08484902 
0.28620034 -0.5352632 -0.7947218 
-0.16369314 -0.31878614 -0.9335845 
0.4151582 0.01857065 -0.90955967 
0.5377691 -0.4516605 -0.71190405 
0.6981062 0.5935954 0.40036523 
0.89637774 0.31424004 0.31266645 
0.26174757 0.2892768 0.92076445 
-0.0060455645 -0.40089354 0.91610473 
-0.52183795 0.11561569 0.84517354 
-0.5039783 0.44547597 0.73997104 
-0.6960932 0.45266914 0.5572655 
-0.8714598 -0.29622903 0.39090452 
-0.79807335 0.553079 0.23912875 
-0.80462563 0.48554996 0.3417876 
-0.99968886 0.0066787987 0.02403515 
-0.709241 -0.192473 -0.67818236 
-0.482993 0.4130194 -0.7720963 
-0.58442473 -0.6264549 -0.515754 
-0.49571562 -0.019493539 -0.8682661 
-0.352663 -0.020083196 -0.93553495 
-0.16066338 0.9087211 -0.38524446 
-0.9215981 0.092021905 -0.37707976 
-0.22097825 -0.21242124 -0.9518645 
0.17465903 -0.036273696 -0.9839606 
0.5486168 -0.12800166 -0.82621735 
0.22452074 -0.4141285 -0.882093 
0.21682598 0.781183 -0.58543974 
0.61454034 0.77529126 -0.14582068 
0.40623137 0.8074069 0.4278669 
-0.30728513 0.86142075 0.4043886 
-0.11275233 0.67910224 0.7253324 
-0.42396015 0.45248353 0.78454864 
0.024999363 -0.18426402 0.98255885 
-0.22337086 0.578242 0.7846921 
-0.822998 0.5186657 0.23164688 
-0.6564869 0.58986545 0.47019544 
-0.4651751 0.47825575 0.74490505 
-0.87555665 -0.095902935 0.4735012 
-0.9069832 0.4148367 0.07274604 
-0.5886031 0.5394807 -0.60208553 
0.21596257 -0.46315888 -0.8595603 
0.6011578 -0.30482113 -0.73871064 
-0.0069087604 -0.73673534 -0.67614603 
-0.2878426 -0.8080964 -0.51393265 
0.78862166 0.6142515 -0.02776832 
0.30077526 0.65145266 -0.6965226 
0.47530958 -0.0073053557 -0.87978834 
0.8468925 0.2042513 0.49097294 
0.8857133 0.13271695 0.44485763 
0.3949031 0.88654 0.24103642 
0.35261923 0.9337391 -0.06157179 
0.7275987 0.6422047 0.24119134 
0.21720374 0.94113743 0.2590038 
-0.45063603 0.6102108 -0.65159035 
0.0049682856 0.9370081 0.3492726 
0.026643587 0.3463021 0.9377446 
-0.59112245 0.6874853 0.42182735 
-0.56290984 0.7901406 0.2425085 
-0.41458273 0.7041841 0.5764078 
0.2744822 0.6042343 -0.74803776 
0.435416 0.88154274 -0.18247013 
0.6019928 0.72343737 0.3379986 
0.5386692 0.81737506 0.20428805 
0.36683804 0.531511 0.7634958 
-0.13957366 0.8708674 0.47128466 
0.22748333 0.89619195 0.38090843 
0.29197946 0.37630564 0.879285 
-0.42301938 0.21176979 0.88102686 
-0.5614741 -0.0050477223 0.827479 
-0.54837155 -0.21784878 0.80736023 
-0.8608199 -0.32880265 0.3884303 
-0.78925705 -0.014878304 0.6138827 
-0.91487813 -0.40345618 -0.014868185 
-0.9888898 0.105759874 -0.104459144 
-0.47154015 -0.009777886 -0.8817904 
-0.99176896 -0.0889891 -0.09206184 
-0.5005391 -0.32860765 -0.800923 
-0.36988255 -0.9180059 -0.14301114 
0.7499743 -0.65325063 -0.10393371 
0.3100561 -0.4142971 -0.85570043 
0.8345525 -0.537517 0.120820835 
0.60047215 -0.6890865 -0.40570074 
0.62796223 -0.45616445 -0.6305374 
0.7412341 -0.6652437 -0.089570604 
0.3958918 -0.8924968 -0.21614641 
0.73714095 -0.4631794 0.49202454 
0.7037722 -0.31497097 0.6367873 
-0.18857174 0.4766511 0.8586295 
0.660608 0.5053543 0.55517036 
-0.40179735 0.3007319 0.8649388 
-0.5819163 0.09207065 0.80802006 
0.13571686 -0.100544766 0.9856327 
-0.3391732 -0.2360681 0.9106226 
-0.7998474 -0.38539347 0.46012628 
-0.3731417 -0.9228828 -0.095145874 
-0.46161538 -0.7883637 -0.40668657 
-0.57163817 -0.76818246 0.2883152 
-0.69401294 -0.5582797 -0.4546097 
-0.51157176 -0.4426339 -0.7364575 
-0.51095414 -0.46134135 -0.72532076 
-0.008623191 0.17932813 -0.9837516 
0.58832103 0.4422382 -0.6769814 
0.48774788 0.7165798 -0.4986135 
0.36825058 0.42726612 -0.82573324 
0.7688531 0.35817412 -0.52969456 
0.8120406 -0.3993801 0.4255417 
0.26591787 -0.29301688 0.9183838 
0.31236744 0.023384133 0.9496735 
-0.34363624 0.10222356 0.93352264 
-0.526518 -0.09994945 0.84426826 
0.3101602 0.7087986 0.63356555 
0.14468662 0.8952602 0.42139637 
-0.06466336 0.3910068 -0.9181135 
0.57094556 0.67072874 -0.47343862 
0.78042424 0.31095102 -0.5424458 
0.7146112 0.64159805 0.27871662 
0.6035409 0.7874256 0.12529732 
0.87918955 -0.44380817 0.17337868 
0.68006206 -0.42471063 0.597609 
0.85785806 0.25979787 0.44337872 
-0.24775732 0.053675126 0.96733415 
0.67036384 0.2998071 0.6787696 
-0.268016 -0.25713673 0.92846555 
-0.94816315 0.09079126 0.3045384 
-0.48499346 -0.87322885 -0.047463953 
-0.9494764 -0.3119352 0.034511637 
-0.7159394 -0.69038045 -0.10395046 
-0.53089494 -0.4077218 -0.74290884 
-0.21527916 -0.79186344 -0.5714956 
-0.5035911 -0.34471723 -0.79219073 
-0.46550068 -0.85297453 -0.23610109 
0.1685674 -0.72211653 -0.6709194 
-0.023488605 -0.827419 0.5610938 