# OOMMF: rectangular mesh v1.0
# Segment count: 1
# Begin: Segment
# Begin: Header
# Desc: Time (s) :  3.700000000000001e-07
# Title: m
# meshtype: rectangular
# meshunit: m
# xbase: 2e-09
# ybase: 2e-09
# zbase: 5e-10
# xstepsize: 4e-09
# ystepsize: 4e-09
# zstepsize: 1e-09
# xmin: 0
# ymin: 0
# zmin: 0
# xmax: 1.024e-06
# ymax: 1.024e-06
# zmax: 1e-09
# xnodes: 256
# ynodes: 256
# znodes: 1
# ValueRangeMinMag: 1e-08
# ValueRangeMaxMag: 1
# valueunit: 
# valuemultiplier: 1
# End: Header
# Begin: Data Text
0.47087622 0.86567414 -0.16995284 
0.96483874 0.17789912 0.19348909 
0.8910135 0.34026742 0.3005215 
0.05872086 0.74938637 0.6595241 
-0.044999655 0.77074057 0.63555807 
-0.8340894 0.34678143 0.42899612 
-0.82535094 0.55861735 0.08211278 
-0.11906843 -0.54450655 0.83026224 
-0.8474228 -0.40290648 0.34574705 
-0.64454776 -0.41771117 -0.6403715 
-0.4790727 -0.13801555 -0.866857 
-0.38069338 -0.19805853 -0.9032417 
0.38038832 0.31075206 -0.8710557 
0.6956748 -0.35021377 -0.62720567 
0.71966356 -0.12481397 -0.68301237 
0.673149 -0.0671151 -0.7364551 
0.958058 -0.06728705 0.2785629 
-0.6725909 -0.08810737 0.73475075 
-0.23020136 0.473593 -0.85012764 
-0.354924 0.85613054 -0.3755922 
0.5373444 0.8182427 -0.20430344 
0.17004415 0.983468 -0.062254474 
0.4687397 0.3788711 0.79795986 
0.3764943 0.8708852 -0.3159287 
0.3960414 0.89893556 -0.18725981 
-0.7570195 -0.09698585 0.64615434 
-0.9024739 -0.40904313 -0.13499835 
-0.2870282 -0.6459797 -0.7073366 
-0.08832652 0.033112176 -0.99554116 
-0.2345924 -0.13436005 -0.9627637 
0.18426564 -0.54512656 -0.8178528 
-0.3737888 -0.54028475 -0.7539061 
-0.01310722 -0.20950219 0.9777203 
-0.47564465 -0.7561666 0.44941536 
-0.72468525 -0.66216505 -0.1907058 
-0.020820802 -0.9436307 -0.3303447 
0.4556712 -0.75243235 -0.47561473 
0.69151133 -0.7024825 -0.16831675 
0.697275 0.33971116 -0.63119256 
0.68121666 0.7034313 -0.20280124 
0.4398413 0.8540848 0.2776309 
0.26723397 0.8999455 0.34450555 
0.8355305 0.45138276 0.31327704 
0.8073725 -0.30964905 0.5022621 
-0.49165314 -0.4171256 0.7643843 
-0.96525586 0.25890902 0.0353171 
-0.5794288 0.36125347 0.73058766 
0.1794208 0.32880905 0.9271962 
-0.32019037 -0.31974736 0.8917622 
-0.73875433 -0.51715016 -0.43220118 
-0.60973823 -0.1914598 -0.76913095 
0.42447868 0.20248525 -0.8825064 
0.36122417 0.09231875 -0.9278978 
0.2298214 -0.38032955 -0.8958413 
0.101115175 0.8910927 -0.44241327 
0.42874676 0.5014042 -0.7515118 
0.4416128 0.46605107 -0.7666646 
0.761919 0.51051545 -0.3985645 
0.26674294 0.73917186 0.61844426 
0.5402592 0.19350551 0.8189479 
-0.015535591 -0.6160418 0.7875603 
0.39846674 -0.30400315 0.86533594 
-0.1370844 -0.47308224 0.8702879 
0.38469407 -0.8879074 0.2522518 
0.48818523 -0.6910999 0.53296924 
0.41075838 0.24812253 0.87733275 
0.5878905 0.06611876 0.80623394 
0.5495304 0.17822526 0.8162427 
-0.2628184 0.049152087 0.9635925 
-0.6861968 -0.053396482 0.72545356 
-0.7496133 -0.65868646 0.06490049 
-0.64000505 -0.70778954 -0.29904443 
-0.35629728 -0.9038207 -0.23698205 
0.008495773 -0.80780727 -0.58938557 
0.3754069 -0.7470537 -0.548617 
0.58892787 -0.35213315 -0.7274382 
0.7228427 0.0028011 -0.691007 
0.3372293 0.9093378 -0.24368228 
0.48991558 0.8544244 0.17303692 
-0.43552357 0.4861067 0.7576409 
0.1257264 -0.456107 0.8809991 
-0.4522895 -0.726256 0.5176741 
-0.38909698 -0.5060921 0.7697237 
-0.0041603455 -0.17552641 0.98446596 
0.6152631 0.1634477 0.7711915 
-0.26314834 0.29156587 0.91964257 
0.1408828 -0.120352685 0.9826838 
-0.6617154 0.38650495 0.64245373 
-0.77973413 -0.37720948 -0.49972758 
-0.8066294 0.5353748 0.2504455 
-0.7368744 0.63813746 -0.22315206 
-0.89999413 0.017532714 -0.4355492 
-0.44185308 -0.8279262 0.34540445 
-0.6681424 -0.7332156 -0.12641492 
-0.6623063 -0.5332327 -0.5263205 
-0.6133697 -0.37557232 -0.6947828 
-0.6344466 -0.21494234 -0.7424805 
-0.34920642 0.10085737 -0.9316023 
-0.4824607 -0.87183654 -0.08445555 
-0.9969067 0.014399916 0.07726442 
-0.7100705 0.64755464 0.27653727 
-0.4124106 -0.5993676 -0.6860583 
-0.5805811 -0.29810938 -0.75766516 
-0.32783455 -0.46147847 -0.8243557 
0.005877496 -0.8697823 -0.49340072 
0.5693304 -0.74116236 -0.3557266 
-0.36772123 0.023602985 -0.92963654 
-0.6503946 -0.19684082 -0.7336488 
0.16319561 -0.16328725 -0.9729874 
-0.6585037 0.1979945 -0.7260656 
0.5579495 -0.7553425 -0.34372967 
-0.3046578 -0.6670489 -0.67987466 
0.820437 -0.21630833 -0.529239 
0.86541384 -0.14775385 -0.47877744 
0.9909764 0.096890435 -0.09261761 
0.89760554 -0.38464394 -0.21529853 
0.75360674 0.49394122 0.43370393 
0.5906361 0.6519426 0.47552064 
0.71926564 0.6793764 0.14527436 
0.7885652 -0.043364335 -0.61342025 
0.96725243 -0.10049497 0.23307402 
0.9810682 0.051580463 0.1866672 
-0.034592412 -0.29692516 0.95427394 
-0.072086334 -0.35698643 0.931324 
-0.78190565 0.36667567 0.5041553 
-0.9351767 0.19020566 0.29877487 
-0.8074608 -0.10361511 0.58075047 
-0.37492007 -0.6799514 0.63015956 
-0.9591042 0.044492193 0.27953482 
-0.34177005 -0.37501675 -0.86171675 
-0.20160612 -0.5613677 -0.802634 
-0.36405852 -0.5887505 -0.72168857 
-0.5807722 -0.45959342 -0.67192084 
0.19669701 -0.9729574 -0.12109672 
0.3822608 -0.71037185 -0.59097266 
-0.15350896 -0.83178335 0.53345245 
-0.214147 -0.29315293 0.9317738 
-0.2025183 -0.9779605 0.050790984 
-0.14678425 -0.32382378 0.9346617 
-0.043786682 0.6165218 0.78611946 
-0.76007104 -0.15773681 -0.63040566 
-0.646448 0.7504951 -0.13733943 
-0.93779355 0.34694955 -0.013013804 
-0.6229042 -0.50915235 -0.59393126 
-0.35821283 -0.6359812 -0.6835288 
-0.15816897 -0.5293023 -0.83355963 
0.78496945 -0.61685205 0.057589345 
-0.7573425 -0.61779326 0.21157476 
-0.6721795 -0.53500473 -0.51180524 
-0.34951568 -0.9099211 -0.22334357 
0.7372568 -0.6292791 -0.24588649 
0.65418446 -0.5807358 -0.4845499 
0.80125314 -0.50673467 -0.31814077 
0.7821957 -0.61218333 0.11576501 
0.5422797 -0.83611304 0.08275113 
0.41476753 -0.2525579 0.8741753 
-0.009531309 -0.95803636 0.28648823 
-0.60367304 -0.7833848 0.14794344 
0.11209796 -0.77709424 -0.61932117 
0.4920636 -0.86231285 -0.11954102 
0.45042777 -0.6742108 0.58528167 
0.36517864 -0.88984615 0.27352968 
0.99776584 -0.042454746 -0.051586214 
0.6486145 0.7491676 -0.13433951 
0.33304453 0.7607788 0.55704314 
-0.4479467 0.85955614 -0.24598202 
0.7506673 -0.4276318 -0.50361663 
-0.47387716 -0.6221298 0.6232135 
-0.32921615 -0.7249556 0.60502577 
0.0959164 -0.97512484 -0.19982891 
0.86231494 -0.4318091 -0.26448807 
0.38479626 -0.9227711 -0.020624887 
-0.32520428 -0.541773 0.775064 
-0.41854241 -0.55540645 0.7185722 
-0.07296959 -0.90060645 -0.42846647 
0.22556058 -0.94189143 0.24892361 
-0.5821432 -0.6255429 0.519428 
0.038300853 -0.94114125 0.3358368 
-0.015153191 -0.6463062 0.7629278 
-0.53766334 0.221083 0.8136588 
-0.111735515 -0.54055184 0.83385783 
0.35480732 -0.1380744 0.9246876 
-0.14916468 -0.75079715 0.64346987 
-0.27560365 -0.18553376 0.9431967 
-0.4190253 0.50958353 0.7514934 
-0.85564125 0.5093944 -0.09162755 
-0.9220679 -0.2192268 -0.31895214 
-0.58834094 -0.44776493 -0.6733213 
-0.2895806 -0.85198975 -0.43618423 
-0.07215549 -0.81798744 -0.5706927 
-0.0072718635 -0.86836684 -0.4958691 
-0.59351104 -0.19127914 -0.7817653 
0.07103771 0.08444549 -0.9938927 
-0.015234335 0.6154234 -0.78804964 
0.67596334 0.23559085 -0.6982625 
0.5496057 0.8337251 0.05325619 
0.6118323 0.7417601 -0.2746878 
0.14343958 0.42510045 0.89370847 
0.034162294 0.27188638 0.96172285 
-0.65887445 0.3425941 0.6697117 
0.10620232 0.62062603 0.7768812 
0.07144281 0.7036128 0.706983 
-0.61148 0.0022222737 0.7912567 
-0.27377927 -0.24531497 0.92998147 
-0.526246 0.5217313 0.6714623 
-0.1737095 0.305434 0.93623453 
0.3383033 -0.020721978 0.94080895 
-0.42935255 -0.4598986 0.77727073 
-0.38604257 -0.1835976 0.9040261 
-0.11681337 -0.69607025 0.70840734 
-0.8163135 -0.1550806 0.5564013 
-0.8033758 -0.57261235 -0.16340953 
-0.469488 -0.7757606 -0.42163557 
-0.3655059 -0.8311919 -0.41895765 
0.36382228 -0.8411372 0.40015215 
0.17271161 -0.9539449 -0.2452749 
0.79846287 -0.5555356 0.23202872 
-0.82563436 -0.49542966 0.2699584 
-0.74210614 -0.52859175 0.41215196 
-0.50150824 -0.6965913 -0.513079 
0.42866495 -0.5306754 -0.73118407 
-0.4307188 -0.8104403 -0.39707404 
0.0027313689 -0.99992746 0.011739457 
0.59159917 -0.7278574 0.3467478 
0.89816266 -0.22840092 0.37568203 
0.6782353 0.2889493 0.67565167 
0.099574365 0.066442765 0.9928093 
-0.80429345 0.085972615 0.5879804 
-0.9754579 -0.0013950671 0.22018167 
-0.7576293 -0.33199495 -0.56194067 
-0.9974443 -0.05247843 0.048485808 
-0.8606942 -0.40198413 -0.3124329 
0.12450165 -0.8260975 0.5496019 
-0.31205457 -0.85449165 0.41529042 
-0.27960438 -0.87041897 0.40520653 
0.4666907 -0.79746425 -0.38242713 
0.26424113 -0.90920216 -0.32175776 
0.15964933 -0.9853597 -0.05981888 
0.1989859 -0.8370957 0.50958365 
-0.3965111 -0.66738725 0.63037544 
-0.22849783 -0.43502283 0.87094426 
-0.24464002 -0.045817424 0.96853095 
0.27509028 -0.021028442 0.96118844 
0.29779467 0.12233192 0.94675934 
0.30410796 -0.054581884 0.9510727 
-0.37730217 -0.9136282 0.15141529 
-0.6053091 -0.78911537 0.10439335 
-0.528466 -0.56042415 -0.63768995 
-0.10872435 -0.784382 -0.6106751 
0.38895208 -0.40978926 -0.8250995 
0.9776861 -0.20928958 0.01810402 
0.47457966 -0.31508404 -0.82188576 
0.9351662 -0.31858078 -0.15482397 
0.5136239 -0.8569282 0.043181475 
0.124154665 -0.97728896 -0.17173229 
0.16580997 -0.67276 0.7210416 
0.84784466 0.11113067 0.5184684 
0.0975157 0.6829092 0.72396535 
0.01035883 0.13439615 0.9908736 
0.41767377 0.6347208 0.650137 
-0.094075315 0.7053122 0.7026269 
-0.9231266 0.38442853 0.007222786 
-0.9191152 0.36605164 -0.14571743 
-0.3742576 -0.27417794 0.88586557 
-0.9958794 -0.07513122 0.050788715 
-0.9481254 -0.1963777 -0.24998817 
-0.8853942 -0.12777607 -0.44693458 
-0.8319252 -0.28317466 -0.47719255 
0.31894773 0.5714916 -0.7560885 
0.8519868 0.12351147 -0.5087862 
0.59731495 -0.018392105 -0.80179596 
0.93924093 -0.1526952 -0.30742595 
0.93347555 -0.35834756 0.01451088 
0.65023106 0.3867905 0.6539058 
-0.042665355 0.7626053 0.6454556 
5.3783184e-05 0.995322 0.096614115 
0.6245876 0.61594987 0.48010007 
0.4988609 0.7974914 0.3393306 
0.0853928 0.91997534 0.38256192 
-0.23863274 0.87156653 0.42828292 
-0.17267215 0.7886733 0.5900669 
-0.9914405 0.06642834 0.11239739 
-0.5453201 -0.41171235 -0.7301499 
-0.8512387 -0.4976859 -0.16643697 
-0.9119009 -0.049264047 -0.40744328 
-0.5704209 -0.19115588 -0.7987988 
-0.22010966 -0.14431958 -0.96474016 
0.37349167 -0.7269514 -0.5762341 
0.18518668 -0.61440736 -0.7669483 
-0.10761502 -0.42248648 -0.89995795 
-0.25865498 -0.24354708 -0.93476325 
-0.02554778 -0.46654093 -0.88413066 
0.5435367 -0.590948 -0.5961111 
0.974791 -0.11262392 -0.19260974 
0.99054897 -0.13715896 0.00029819785 
0.9280244 0.32864633 0.17539218 
0.78500533 0.6188292 -0.028586976 
0.80037403 0.22154012 0.55706507 
0.77325463 0.37167233 0.51374817 
-0.48781145 -0.24987403 0.83642274 
-0.5451094 0.062492087 0.8360326 
-0.2029255 0.88295716 0.4233295 
-0.15404218 0.62220454 0.7675498 
-0.91667575 0.17126197 0.36107463 
-0.99235845 0.025668792 0.120688856 
-0.7877048 0.43236503 -0.4388413 
-0.5617856 0.7293494 -0.39044413 
-0.46101993 -0.118029326 -0.87950546 
0.3801544 -0.42777726 -0.82005453 
-0.06176033 0.19561146 -0.9787349 
-0.10610794 0.8093859 -0.577612 
0.2701361 0.9141197 -0.3023438 
0.18919627 0.8705772 0.4542029 
0.35140413 0.4725061 0.80824083 
0.16235365 0.45939264 0.8732696 
0.8394458 -0.47408482 0.26565847 
0.61281586 -0.6184722 0.49188313 
0.85653937 -0.38285923 0.34606233 
0.1358193 -0.8629706 0.48665684 
-0.18148878 -0.7317311 0.6569866 
0.3719957 -0.28779683 0.8824921 
0.44289726 -0.021308769 0.89631915 
0.2956721 -0.34671542 0.8901497 
0.39995265 -0.16971107 0.90068644 
-0.27620205 -0.6515581 0.7065299 
-0.5053614 -0.21661447 0.83527726 
-0.67264503 -0.6213276 -0.4018716 
-0.2474101 -0.7840557 -0.5692494 
-0.4456159 -0.43747547 -0.7810518 
0.035116944 -0.9085533 0.4162903 
0.48761606 -0.8726601 -0.026365303 
0.65084785 -0.0769626 -0.7552973 
0.76357394 -0.2035679 -0.61279285 
0.99685925 0.07918756 0.0009909562 
0.8464468 -0.028722953 0.5316982 
0.3504845 -0.61224455 0.70874345 
-0.12362807 -0.54963267 0.82620835 
-0.27450472 -0.7998042 0.53381693 
0.32084438 -0.85513985 0.40717918 
-0.0019490701 -0.9907638 0.13558538 
0.6563425 -0.68957496 0.30610627 
0.11912814 -0.061266486 0.9909869 
0.3114241 0.3990436 0.86242634 
-0.19098367 0.59134704 0.78347564 
-0.9903225 0.1380538 -0.014237005 
-0.33613133 0.9083727 0.24874623 
-0.30217603 0.94674385 0.111202 
-0.11192689 0.9366181 -0.33199227 
-0.8802352 -0.3544052 0.31556758 
-0.99305415 -0.04056669 -0.11044412 
-0.6206137 -0.4444136 -0.646015 
0.006546426 -0.7347375 -0.67832 
-0.4989857 -0.25318727 -0.8288001 
-0.49574038 0.34280422 -0.7979516 
-0.9427512 -0.27202344 -0.1929339 
-0.7170619 0.3911911 0.5768812 
-0.89045113 0.06262584 -0.4507493 
-0.4323164 -0.89958364 -0.062063735 
-0.029570438 -0.87351876 -0.48589146 
-0.40579602 -0.6207892 -0.67078346 
-0.448266 -0.49802253 -0.74231476 
-0.22382325 -0.44046295 -0.86942255 
-0.5313804 -0.031138334 -0.8465609 
0.38831106 -0.22684039 -0.8931729 
-0.068625234 -0.030548094 -0.99717474 
-0.22771552 -0.18472418 -0.95604527 
0.33651337 -0.2846386 -0.89763004 
0.74318296 -0.2629314 -0.6152612 
0.70904577 0.5520219 -0.43877786 
0.8942492 0.3690242 -0.2532579 
0.69904864 0.46822083 0.540463 
0.8794426 0.4396551 0.18244003 
0.27245417 0.8909582 0.363266 
0.30408385 0.79129887 0.5304518 
0.9000365 0.42637908 0.090196215 
0.9765217 0.19317003 0.0953464 
0.6668943 0.043060064 0.7439072 
0.65887165 -0.29157588 0.6934492 
-0.28249836 0.27576 0.9187769 
0.3465739 -0.17458183 0.9216332 
-0.0036509153 -0.25483406 0.96697795 
-0.24705078 -0.32475552 0.91296214 
-0.90062726 0.07325482 0.42837402 
-0.91646016 -0.40010813 -0.0038094623 
-0.8073106 0.5784296 -0.11691426 
-0.7129952 -0.017984398 -0.7009383 
-0.5139778 -0.42375988 -0.7458247 
-0.83485574 -0.19223143 -0.515813 
0.7365275 -0.26010308 -0.62439865 
0.11422639 -0.16399224 -0.9798259 
0.13033111 0.20806596 -0.9693928 
0.10319318 -0.79350793 -0.59974706 
0.8228141 -0.43412036 0.36676493 
-0.35432428 -0.8952959 0.2699994 
-0.9273306 -0.25630173 0.27270377 
-0.68327177 0.13584267 0.7174165 
-0.40233573 0.33157265 -0.8533379 
-0.8445387 0.53509843 0.020593265 
-0.82281995 -0.15137604 -0.5477707 
-0.7433224 -0.55539536 -0.37283754 
-0.4718097 0.14018765 -0.8704844 
-0.108124584 -0.8945221 -0.43375024 
-0.21504973 -0.78538495 0.5804517 
-0.24998386 -0.95918703 0.13216749 
-0.14863817 -0.9887196 -0.018451171 
-0.42559505 -0.8327496 -0.3541145 
-0.19651577 -0.786956 -0.5848776 
0.43919334 -0.8231806 -0.35983717 
0.58732975 -0.7375104 -0.3333499 
0.3235286 -0.9370102 -0.13168643 
0.7444996 -0.5987247 -0.29537964 
0.54254514 -0.68861747 -0.4810933 
-0.18485893 -0.9217693 -0.34083498 
-0.03479553 -0.44799846 -0.8933569 
0.78767926 -0.54596394 -0.28545547 
0.9539352 -0.13749002 0.2666535 
0.20280728 -0.8525174 0.48175025 
0.6636591 -0.64031696 0.38671815 
0.88954484 -0.052200153 0.45385605 
0.47665417 0.8679045 0.13979512 
0.607443 0.18932699 0.7714716 
0.7491802 0.35128647 0.56153977 
0.73637635 -0.6037705 0.30530497 
-0.8670893 -0.38770252 0.31279898 
-0.257248 -0.9204615 0.29423493 
-0.13276865 -0.8993117 -0.41666636 
0.28940663 -0.9083643 0.301858 
0.0376426 -0.9990768 -0.020707162 
0.62706316 -0.66704386 -0.40229884 
-0.17290941 -0.95631856 -0.23570596 
0.34094125 -0.89267224 -0.29478028 
0.76214117 -0.573776 0.29987004 
0.060600385 -0.78957874 0.6106497 
0.3829957 -0.78238875 0.49110317 
0.04396728 -0.9145639 0.40204462 
0.21040007 -0.68559027 0.6969203 
-0.293433 -0.799201 0.524571 
0.21552002 -0.29942605 0.9294597 
-0.21870025 -0.37241867 0.90192825 
-0.41431957 -0.29866973 0.85973006 
-0.93605596 -0.31870934 0.1490757 
-0.91984475 -0.24669032 -0.30500746 
-0.18723586 -0.62908804 -0.7544475 
-0.30776355 -0.6919839 -0.6530237 
-0.64494014 -0.52383834 -0.5564581 
-0.1837478 -0.76712847 -0.6146143 
-0.2320426 -0.9470442 -0.22195424 
0.28404847 -0.47388434 -0.8335167 
0.18111864 0.6982615 -0.6925511 
-0.57204896 0.6454163 -0.5061599 
-0.30847088 0.87312216 -0.3774962 
0.28255475 0.9497084 0.13496989 
0.32439095 0.8881254 0.3255822 
-0.11752835 0.467145 0.87633485 
-0.48977786 0.030513108 0.8713132 
-0.013159825 0.46087307 0.88736844 
-0.537136 0.09143746 0.838525 
0.11005856 -0.25683683 0.9601677 
0.07787967 0.028859805 0.996545 
-0.24531452 -0.32794464 0.9122901 
0.12062271 -0.0620325 0.9907584 
0.0989985 -0.20157939 0.9744563 
0.22261041 0.10241922 0.9695127 
-0.38112488 -0.49036705 0.7837629 
-0.5142689 -0.83676356 0.18802758 
-0.70835245 -0.5511567 0.44097987 
-0.8368146 0.2818432 0.46936744 
-0.91397166 -0.40543446 -0.016696382 
-0.8004069 -0.49913517 -0.3319836 
0.03690152 -0.8719429 0.488215 
0.050102584 -0.931961 0.35908008 
-0.6012234 -0.75706583 -0.25569874 
0.643523 -0.754062 -0.13141066 
-0.5412828 -0.8014581 0.25431824 
-0.6938867 -0.70589215 -0.14225894 
-0.13555661 -0.81589246 -0.5620889 
-0.013630247 -0.7340524 -0.6789561 
-0.20755541 -0.5104736 -0.83446836 
-0.2129434 -0.89707804 -0.38717732 
0.34903342 -0.7531587 -0.5576091 
0.59674215 -0.78575695 -0.16274135 
0.08498758 -0.2468785 0.9653125 
-0.107612714 0.46810672 0.877095 
-0.67441183 0.37414813 0.63653904 
-0.9393655 0.27336776 0.20703281 
-0.98043287 -0.10359651 0.16738968 
-0.97434574 -0.095277965 0.20389348 
-0.969476 0.20586541 0.1331753 
-0.9165332 0.08758419 0.39025113 
-0.1679461 -0.984175 0.056512788 
0.10955279 -0.99311215 -0.0415527 
0.20004489 -0.85306 -0.48194477 
-0.3856978 -0.19652529 -0.9014516 
0.5109779 -0.7506273 0.4188799 
0.28242773 -0.7493474 0.59892666 
0.16836262 -0.7242555 0.66866136 
-0.2573184 -0.001561735 0.9663254 
0.20201008 0.042873755 0.9784446 
0.48255077 -0.2708909 0.8329244 
-0.46627912 -0.42057168 0.7782694 
-0.26548952 -0.5897143 0.7627271 
-0.25789544 -0.8958648 0.36182374 
-0.18754378 -0.95100075 -0.24581458 
-0.33304423 -0.36848995 -0.86792666 
-0.14514214 -0.5466931 -0.8246578 
0.514806 0.110491574 -0.85015684 
0.9945822 -0.076922156 -0.0699235 
0.9490741 0.08301639 -0.30391896 
0.42547593 -0.9044094 -0.031844445 
0.40246588 -0.7871003 -0.46743366 
0.27409014 -0.9556237 0.10797239 
0.023783773 -0.97361374 -0.22695996 
0.6709217 0.7396343 0.052964795 
0.52155775 0.8520221 0.045120608 
-0.5389485 0.20297416 0.8175182 
0.10858198 0.84868777 0.51762825 
-0.2323253 0.5199125 0.8220195 
-0.74249977 0.027634686 0.66927606 
-0.7884716 -0.14720875 0.59719545 
-0.65907776 0.3759045 0.6513926 
-0.8508839 0.52424973 0.03404113 
-0.8860234 0.38974637 0.25111812 
-0.49580196 0.20112245 -0.8448256 
-0.41083097 0.30516875 -0.8591216 
0.16970254 0.23889692 -0.9561012 
0.7229582 0.4016735 -0.56212974 
-0.051876087 -0.2543645 -0.9657162 
0.561615 -0.22569942 -0.79602045 
0.5971804 0.7871716 -0.15406646 
0.7230242 0.04919858 0.6890686 
0.41475827 0.58019257 0.7009652 
-0.063072294 0.58014756 0.8120658 
0.5000819 0.3885671 0.7739082 
0.11011054 0.7395743 0.6640071 
-0.25896463 0.57790655 0.773926 
-0.46908736 0.53631777 0.7016554 
-0.34907162 0.6028039 0.7174793 
-0.9298686 -0.13209751 0.3433582 
-0.68877864 0.12234107 -0.7145745 
-0.043834377 0.329321 -0.9432 
-0.5773278 0.21400143 -0.78796965 
-0.31930143 0.16496083 -0.9331852 
-0.26392552 -0.54743564 -0.79413944 
-0.12377075 -0.15264633 -0.98049986 
0.12275379 -0.23444219 -0.9643487 
-0.41042438 -0.22322771 -0.8841501 
-0.367568 -0.61689925 -0.69593763 
0.6999914 -0.070146084 -0.710698 
0.5769935 0.17943096 -0.79679555 
0.94233584 -0.27488407 -0.1908978 
0.7325443 -0.10006241 -0.67332494 
0.8590001 0.5090598 -0.054561034 
0.3783341 0.61493474 0.691895 
0.3847135 0.5648668 0.7300145 
0.5607935 0.53083324 0.635395 
-0.4152502 -0.57283574 0.70670116 
-0.055093464 -0.7786206 0.6250717 
0.24672706 0.37576935 0.89326555 
-0.67941475 0.42577285 0.59758955 
-0.1477093 0.6148879 0.774658 
-0.875123 0.46391428 0.13763508 
-0.6128589 0.6679263 -0.42223045 
-0.5203041 0.8513476 -0.067013465 
-0.6095033 0.45884213 -0.6465057 
-0.2397043 0.69720167 -0.6756121 
-0.40968436 -0.021402432 -0.9119763 
0.25325343 0.6936717 -0.6743013 
0.11670059 0.9649643 0.23500012 
0.7951397 0.5006347 0.34222484 
0.18825513 0.26978356 0.9443394 
-0.4839681 -0.114188805 0.8676035 
0.79204965 -0.5801924 -0.18982722 
0.16819629 -0.8563014 0.48832163 
0.09035209 -0.8954051 0.4359889 
0.782052 -0.31637952 0.5369347 
0.46627897 -0.80882806 0.35830313 
0.6158535 -0.5071539 0.6029258 
0.57410085 -0.5602499 0.5970999 
0.28679252 -0.9214274 0.26214814 
0.7375246 -0.29486084 0.60754794 
-0.48493612 -0.51331663 0.7080559 
0.18425208 -0.6849899 0.7048688 
-0.76210636 -0.6176185 0.19427139 
-0.679564 -0.3122496 -0.6638472 
-0.26468822 -0.86430466 -0.4276886 
0.3780866 -0.7766529 -0.50384617 
0.44038075 -0.8035374 -0.40049002 
0.03071714 0.13353564 -0.9905679 
0.7986653 -0.10514685 -0.5925184 
0.8163158 0.38050532 0.4345621 
0.686346 0.25607696 0.680701 
-0.055453196 -0.44304946 0.89478046 
0.47178 -0.8815411 -0.017580343 
0.51481897 -0.77722305 0.36178166 
0.45413733 -0.5663471 0.68775743 
0.24707004 -0.41992956 0.87327874 
0.6413647 -0.73532337 0.21897712 
0.6220695 -0.22558247 0.74976146 
0.79113644 -0.15162072 0.59254915 
0.12059443 0.22130528 0.9677195 
-0.19873768 0.4267471 0.8822643 
-0.3810013 -0.20344494 0.9019137 
-0.15947744 0.65464467 0.7389232 
-0.64957374 0.7040142 0.28708538 
-0.8245594 0.4385368 0.3574736 
-0.8122472 0.5327625 0.23752607 
-0.80905044 -0.29790604 -0.50664514 
-0.72446793 -0.2898454 -0.62540865 
-0.7078415 0.19149113 -0.6799204 
-0.9531737 0.30177182 -0.01984182 
-0.9678492 -0.043989718 -0.24765486 
-0.8812084 0.27610785 -0.3837136 
-0.96168447 0.25615543 -0.0977116 
-0.418235 -0.7203001 -0.5533963 
-0.34507486 -0.28035265 -0.89572644 
-0.04550068 -0.13488622 -0.9898159 
0.030540839 -0.76863474 -0.6389584 
-0.26471218 0.13643867 -0.9546266 
0.49418318 0.34345436 -0.7986377 
-0.05405117 -0.048349753 -0.99736696 
0.28983524 -0.23138775 -0.9286847 
0.22792342 0.09288797 -0.9692383 
0.33137304 0.14765604 -0.9318743 
0.7048068 -0.10132176 0.70212626 
0.11869661 0.6241528 0.77223337 
0.3116924 0.93968767 0.14083652 
0.54250413 0.78278995 0.3048427 
0.8593745 0.19115101 0.47427505 
0.40834665 0.875036 -0.2599331 
-0.56620985 0.58030385 0.5853665 
-0.22745726 0.97378385 0.0028771812 
0.63583916 0.14510128 0.7580595 
-0.24506502 0.6306792 0.7363335 
-0.57914454 0.08408833 0.81087667 
0.41076216 -0.3615265 0.8370024 
0.98943007 -0.14279018 0.025281345 
0.4666646 -0.77545476 0.42531636 
0.19352058 -0.045863323 0.9800236 
0.050317414 -0.36685964 0.92891455 
-0.8777064 0.15188755 0.45449072 
-0.5914355 0.80627185 0.011394757 
-0.92714804 0.369049 -0.06480286 
0.0034723931 -0.54146594 -0.84071547 
-0.63624775 -0.26290375 -0.7253071 
0.57166296 -0.4006692 -0.71600676 
-0.2764882 -0.14666463 -0.94975984 
0.42841205 -0.06383778 -0.90132564 
0.7925427 -0.6026942 0.09292967 
0.70990187 -0.6966843 0.10329769 
0.090896964 -0.6102819 0.7869522 
-0.54307705 -0.2388156 0.80500585 
-0.9327093 -0.021366078 0.3599959 
-0.83718854 0.4977899 -0.22654058 
-0.85847974 0.5122895 0.023920046 
-0.31545013 0.7250867 -0.61216056 
-0.7164791 -0.65049714 -0.25201428 
-0.46149123 -0.27307934 -0.8440696 
-0.062150024 -0.21638088 -0.9743289 
-0.36743903 -0.86231196 -0.34843463 
-0.8913266 -0.4371289 -0.120230466 
-0.30948755 -0.4251621 -0.8505613 
-0.4421438 -0.3061998 -0.8430602 
0.2994897 -0.24848644 -0.9211734 
0.755748 -0.43090615 -0.4931175 
-0.48220766 -0.8217238 -0.30371985 
-0.46351093 -0.8550914 0.2323279 
-0.38975704 -0.91911316 0.05762534 
0.09224705 -0.96561664 -0.24305336 
-0.41093335 -0.67250675 -0.615523 
-0.14261466 -0.073457144 -0.9870487 
0.33691126 -0.3358509 -0.87959933 
0.79855996 0.20698681 -0.56520677 
0.32727113 -0.9144977 -0.2378819 
0.7494806 -0.60800403 0.2619352 
0.5615605 -0.09745868 0.8216761 
0.32674855 0.32509533 0.8874393 
-0.3164277 0.47527605 0.8209667 
0.49545214 0.16965052 0.85190725 
0.43522346 -0.46837026 0.7689018 
-0.54394937 -0.2986191 0.78418475 
-0.70791405 -0.63045526 0.3184083 
-0.21981864 -0.9707321 0.09674207 
-0.1370864 -0.9580645 0.25163448 
-0.36590406 -0.88813657 -0.2780789 
0.07986742 -0.9004877 -0.4274845 
0.77544373 -0.6164543 -0.13664252 
-0.07858755 -0.9806191 0.17947216 
-0.051590294 -0.99336416 0.10279148 
-0.33810553 -0.94098735 -0.015085498 
0.06269335 -0.83501613 0.5466423 
0.71018845 -0.67916113 0.18539831 
0.12587161 -0.963806 0.23501983 
0.2785007 -0.89120305 0.3580428 
-0.27698398 -0.64364046 0.7134472 
-0.37389606 -0.8497611 0.37162882 
-0.91806644 -0.38662872 0.08759153 
-0.33657172 -0.93348026 0.12383057 
-0.61242545 -0.7861039 0.08352009 
-0.6676201 -0.6453244 -0.37126803 
-0.51135796 -0.5190052 -0.68494284 
-0.07743476 -0.066417225 -0.99478275 
-0.19543025 -0.43905377 -0.8769486 
-0.2668437 0.44103888 -0.85690093 
-0.27000272 0.8160123 -0.51109934 
0.24863236 0.90161276 -0.35394412 
-0.24769507 0.9144665 -0.3199973 
0.5125972 0.73327696 -0.44670928 
0.3508987 0.8131594 -0.46437255 
0.36491632 0.83176684 0.41833 
0.6867462 0.5428849 0.4833795 
0.24873097 0.13488375 0.95913464 
0.70613045 -0.0922574 0.7020459 
0.2990142 -0.46072033 0.83565986 
0.14285573 -0.34724987 0.9268278 
-0.17264941 -0.004291369 0.984974 
0.2911483 -0.30792665 0.9057671 
-0.03682172 -0.29547107 0.9546419 
-0.15891248 0.21995448 0.96247953 
-0.64050364 0.0436231 0.7667152 
-0.6956006 -0.4505986 0.55955416 
-0.6031957 -0.75997424 0.24206239 
-0.27162474 0.68163925 0.67940265 
-0.03548388 0.9524172 0.30272514 
-0.7256023 -0.4829603 0.49015382 
-0.52803284 -0.76047105 0.37797526 
-0.18792391 -0.95714104 0.22037621 
0.12561522 -0.8522161 0.50788635 
-0.06252585 -0.7981095 0.5992595 
0.14255458 -0.9802249 -0.13724947 
-0.18312347 -0.80905175 -0.5584811 
-0.33374268 -0.83715034 -0.43335336 
0.26126897 -0.482323 -0.83612394 
-0.19384626 -0.89792466 -0.39516467 
0.12644213 -0.97479486 -0.18381375 
-0.22895455 -0.76305157 -0.6044273 
0.4457475 -0.8208198 -0.3571611 
0.88092417 -0.45234784 -0.13911904 
0.696499 -0.20394349 0.6879654 
0.27499706 0.17141911 0.9460402 
0.2588913 0.2595138 0.9303913 
-0.3665083 -0.296765 0.8818176 
-0.7415703 -0.33069134 0.58370954 
-0.63467 0.03377121 0.7720451 
-0.95671004 -0.27847466 -0.084604286 
-0.70086116 -0.6468149 0.300706 
-0.6612523 -0.7359966 0.14510134 
-0.39143902 -0.8405461 0.37451023 
-0.17704238 -0.78962606 0.58749187 
0.15815713 -0.6911363 -0.70520705 
-0.16916002 -0.7474985 -0.6423636 
-0.120628335 -0.8015839 0.58558714 
0.07576766 -0.4600883 0.8846345 
0.4277855 -0.29949102 0.8528216 
0.040262647 -0.35702065 0.9332284 
0.48122752 -0.077904835 0.8731271 
-0.21228969 -0.377326 0.9014202 
-0.87328714 -0.46195093 0.15482569 
-0.57387406 -0.65760624 -0.48808047 
-0.35007557 -0.8953708 -0.27524254 
-0.42331555 -0.2009334 -0.8834194 
-0.115416646 -0.12174819 -0.98582774 
0.0324565 -0.0746117 -0.99668443 
0.97666925 -0.11266158 -0.18282379 
0.98928237 0.13227105 0.06184428 
0.23457703 -0.94536275 0.22641326 
0.45645437 -0.88021195 0.12990865 
0.10657364 -0.8932063 -0.43683475 
-0.03322576 -0.9532378 -0.3003896 
-0.553866 0.8279594 0.08783888 
-0.1449133 0.45907536 0.87649876 
-0.07638691 0.4451374 0.8921984 
-0.4317641 0.5094184 0.7443606 
-0.5690476 0.5028625 0.65062606 
-0.89363825 0.09232487 0.4391889 
-0.9381133 0.27241594 0.21385282 
-0.9680323 0.10972661 -0.22555156 
-0.89209855 0.45183578 0.0021346947 
-0.8230082 0.06875764 -0.5638529 
-0.44325453 -0.18693759 -0.8766868 
-0.24495637 -0.16447267 -0.9554816 
0.03799307 0.11003012 -0.9932019 
-0.34401613 0.71454394 -0.60916334 
0.30944097 -0.16203026 -0.9370126 
0.6490944 0.059340935 -0.75838983 
0.8376581 0.5444046 0.044187248 
0.7912419 -0.11891711 0.59982914 
0.31697726 0.7787344 0.54138553 
0.18868142 0.07709441 0.97900754 
0.38123956 0.15748094 0.9109645 
-0.8387338 -0.12928523 0.5289717 
-0.16818802 -0.08497809 0.9820853 
0.09428547 -0.37687865 0.9214514 
-0.36998388 0.24464086 0.8962493 
-0.60061085 -0.53266233 0.5962697 
-0.5080113 -0.2734435 -0.8167946 
-0.686612 0.22358672 -0.69178975 
-0.67059225 0.25774586 -0.6956099 
-0.8449018 0.05908707 -0.5316481 
-0.063725494 -0.8957627 -0.4399414 
0.7703157 0.37120682 -0.5184779 
0.7819534 0.14953457 -0.60513496 
0.29173148 -0.46618024 -0.83520585 
-0.048862748 -0.6767273 -0.7346106 
0.87843496 -0.27942088 -0.38765463 
0.9605824 0.18791926 -0.20486097 
0.83465135 -0.38769278 0.39121807 
0.7535807 -0.5423142 -0.371499 
0.9687019 0.06355362 -0.2399533 
0.5571888 -0.17476942 0.81178594 
0.69088 0.41286582 0.59348696 
0.7093832 -0.06780195 0.7015543 
0.33012676 0.11876211 0.9364358 
-0.5481007 -0.7542142 0.361589 
0.038753193 -0.4391897 0.89755815 
-0.66802764 0.34229845 0.6607352 
-0.7936398 0.28543 0.5372762 
-0.424555 0.5589861 0.7122413 
-0.03135766 0.9406075 0.33804476 
-0.8781776 0.11812662 0.46351945 
-0.5927597 0.42118722 -0.6864673 
0.43242544 0.7813569 -0.4499885 
0.08680475 0.8352469 -0.5429803 
0.2762904 0.8789086 0.3888231 
-0.16093987 0.81282175 0.5598385 
-0.25903073 0.61734575 0.7428239 
0.09251587 -0.17199694 0.9807436 
0.17291677 0.10221621 0.97961813 
-0.06596437 -0.16579314 0.98395187 
0.08800242 -0.73360413 0.673855 
0.07342128 -0.97040886 -0.23003457 
0.27845407 -0.94212246 0.18673134 
0.41562667 -0.90536916 0.0869555 
0.8385858 -0.42969283 0.33487037 
-0.26493853 -0.59865165 0.75592583 
0.29592648 -0.9074238 -0.2983446 
0.5555096 -0.2992775 -0.7757848 
0.37232202 -0.6741228 -0.6379144 
0.38605475 -0.8766783 0.2870486 
-0.42113453 -0.82387865 -0.37930173 
0.064316705 -0.6432191 -0.7629761 
-0.20268755 -0.9154902 -0.3475566 
0.40133578 -0.4709413 -0.7855851 
0.66594446 -0.72389793 -0.18024953 
0.971242 0.231395 -0.056082547 
0.7330882 -0.5289506 0.42754316 
0.1808029 -0.42678913 0.8860933 
0.5117897 -0.054990716 0.85734904 
0.121954 -0.59778106 0.79232883 
0.502642 -0.6803241 0.53339505 
0.57348955 -0.81420785 0.09041823 
0.46783096 -0.7862448 -0.40367502 
0.15956591 -0.26559952 0.9507868 
0.4775407 -0.15955126 0.86400133 
0.05585858 -0.75140876 0.6574684 
0.41330004 0.32985172 0.84875256 