# OOMMF: rectangular mesh v1.0
# Segment count: 1
# Begin: Segment
# Begin: Header
# Desc: Time (s) :  3.7600000000000014e-07
# Title: m
# meshtype: rectangular
# meshunit: m
# xbase: 2e-09
# ybase: 2e-09
# zbase: 5e-10
# xstepsize: 4e-09
# ystepsize: 4e-09
# zstepsize: 1e-09
# xmin: 0
# ymin: 0
# zmin: 0
# xmax: 1.024e-06
# ymax: 1.024e-06
# zmax: 1e-09
# xnodes: 256
# ynodes: 256
# znodes: 1
# ValueRangeMinMag: 1e-08
# ValueRangeMaxMag: 1
# valueunit: 
# valuemultiplier: 1
# End: Header
# Begin: Data Text
-0.536075 -0.62869596 0.5633517 
-0.09455556 -0.055041797 0.99399686 
-0.21918017 -0.79555607 0.5648456 
-0.28958744 -0.56469566 0.77282476 
-0.7084469 -0.1464449 0.69040346 
-0.031175412 -0.55303943 0.83257174 
0.4070304 -0.78155 0.4727643 
-0.29851294 -0.5083827 0.8077358 
0.6556174 -0.07422007 0.7514369 
0.43300247 0.55663174 0.70899224 
0.37992382 0.793937 0.47468102 
0.5102756 0.034167945 0.85933197 
-0.07015278 -0.1633244 0.98407507 
-0.70054543 0.24511968 0.6701885 
-0.84985495 0.4139856 0.32613295 
-0.24323681 0.8521187 0.46338937 
-0.08708821 0.87838 0.46996194 
0.101061456 0.83585715 0.539564 
-0.32607713 0.94534194 0.0015420251 
-0.60183346 0.25506344 0.7567954 
-0.73534393 -0.51481426 -0.44072184 
-0.1335392 -0.40501767 0.9045043 
-0.7485901 -0.109568596 0.6539172 
-0.14183527 -0.7644445 0.6288939 
-0.38466072 -0.91531616 -0.11930022 
-0.22891349 -0.9177201 0.32463592 
-0.99842197 -0.047333714 0.03021715 
0.38591796 0.42923182 0.8165951 
-0.010071847 0.1563929 0.98764366 
-0.43376014 -0.77510524 0.45941722 
0.23053539 -0.09164955 0.96873826 
-0.6137846 -0.16742945 0.77151525 
-0.61258096 -0.6394219 0.46463358 
-0.6098985 -0.33742413 0.71705574 
-0.4745333 -0.05838485 0.8782991 
-0.14998996 -0.27109885 0.95079356 
-0.11471295 -0.8945179 0.43206352 
-0.29382363 -0.8760837 0.38228926 
-0.6610212 -0.48510808 0.57246935 
-0.27355704 -0.5249517 -0.8059728 
-0.23664878 -0.14247665 -0.961092 
0.53400403 -0.8453932 0.0122518 
-0.64298743 -0.76354635 0.05970161 
-0.54100215 -0.7146926 -0.44331852 
-0.4090297 -0.85195595 -0.32690346 
-0.31444225 -0.9454984 -0.08461053 
0.5617531 -0.79599833 0.2254335 
0.6027062 -0.65041286 -0.46228608 
0.67287046 -0.5501642 0.49453476 
0.6824743 -0.6702504 -0.29153594 
0.8524857 -0.25354525 0.45714656 
0.40403104 -0.23622246 0.8837182 
0.768536 -0.6238427 0.14203152 
0.26323476 0.95907557 0.104314595 
0.5803363 0.6550202 0.4838993 
-0.4781198 0.8780209 -0.021928698 
0.2870086 0.93228984 -0.22014049 
0.4331701 0.7310292 0.5272191 
0.5068834 0.74900794 0.42668074 
-0.15878673 0.8571847 0.48991948 
-0.71285933 0.15460731 0.68405277 
-0.73816735 -0.13162398 0.66165257 
-0.6358538 0.14851065 0.7573866 
-0.3546296 -0.9348536 -0.01693318 
-0.29962537 0.22972488 -0.9259866 
-0.09915754 -0.024188098 -0.9947778 
-0.02904041 0.088906564 -0.99561656 
-0.41684228 0.713689 -0.5629303 
-0.9718771 -0.22731754 -0.06149613 
-0.56776583 0.4739012 -0.6730971 
-0.7127464 -0.18500102 -0.676585 
0.048763663 -0.71808475 -0.6942453 
-0.27525398 -0.961308 0.011058939 
0.15051845 -0.5604856 -0.814371 
0.19777699 -0.43943787 -0.87622976 
0.51198786 -0.4047826 -0.7576407 
0.18354046 -0.20501508 -0.9613958 
0.70311046 0.09353048 -0.70490265 
0.9311706 -0.05619132 -0.3602276 
0.8331863 0.43397272 0.34273636 
0.98223215 0.055773303 -0.17919123 
0.92499304 0.2057238 0.31947714 
0.82362247 0.41690236 0.3844975 
0.54716814 -0.35218707 0.759323 
-0.11248224 0.52403283 0.84423774 
0.01843754 0.5791626 0.8150036 
-0.13308579 0.97733486 0.16463509 
-0.5904872 0.3268133 -0.7379146 
0.022099024 0.74939185 -0.6617579 
0.5233941 0.848625 0.07677325 
-0.58753276 0.7640088 -0.26663777 
-0.88583076 0.4640059 0.0015789048 
-0.97004545 0.24120055 -0.028883833 
-0.6911096 0.2423824 -0.6808953 
-0.8170206 0.51973546 -0.24970473 
-0.10489916 0.6023698 -0.79129446 
-0.00014124632 0.817467 -0.57597554 
-0.04580639 0.7188727 -0.693631 
-0.048454933 0.5719748 -0.8188387 
0.30456802 0.71771073 0.6262026 
0.48547396 -0.8650558 0.12646595 
0.96853215 -0.13879338 0.20659631 
0.96949655 -0.12176252 0.21272163 
0.8332137 0.23908232 0.49859282 
0.72134906 0.6918754 -0.031048326 
-0.6070386 0.71002126 0.3568951 
-0.88935804 0.37792602 -0.25732124 
-0.41995397 0.45845526 -0.7832354 
-0.40079463 0.31855956 -0.8590014 
-0.580362 -0.4085909 -0.70443845 
0.25772974 0.15459964 -0.9537685 
-0.18785805 0.49827486 -0.8464229 
0.32718253 0.864232 0.3821711 
0.43862903 0.8729117 0.21361141 
0.45597905 0.88716584 -0.07085207 
0.3337673 0.9426555 9.3101065e-05 
0.1292096 0.48323506 0.86590356 
-0.21119696 0.038341235 0.9766913 
-0.26904997 -0.4899237 0.8292086 
-0.6643492 -0.45467597 0.59322 
-0.36761746 -0.71139926 -0.598973 
-0.43412983 -0.8985544 0.06427556 
-0.7016105 -0.50767636 0.5000074 
-0.869618 -0.4726051 -0.14286052 
-0.5271631 -0.35367438 -0.77266645 
0.2579351 -0.6351987 -0.7280055 
-0.2062766 0.49267346 -0.84541285 
0.3759947 0.14064567 -0.91588587 
0.52849627 0.20367117 -0.82414186 
0.7904048 -0.13210684 -0.59817064 
0.82644314 0.39728802 0.39894107 
0.62519634 0.117606126 0.77155584 
0.63256043 0.19517884 0.7495149 
-0.013441845 -0.08879453 0.99595934 
0.046081264 0.36636546 0.92932934 
-0.16899988 0.9829695 0.07218129 
-0.7111381 0.61526436 -0.34019476 
-0.84435636 0.45494637 -0.28299487 
-0.96585125 -0.12366098 -0.22768283 
-0.77116126 -0.2525235 -0.5844162 
0.42562902 -0.70817345 -0.5633208 
0.80637074 -0.48736554 -0.33502382 
0.6230176 -0.57379174 -0.5316128 
0.29063138 -0.8960419 0.33562228 
0.8661876 -0.49889198 -0.028739689 
0.55989885 -0.8189026 0.12614238 
0.30054894 -0.91809416 0.25840542 
0.53259623 -0.32380006 0.7819814 
0.31788072 0.08431981 0.94437397 
0.61088413 -0.26882142 0.74468493 
0.12869887 0.98241264 -0.13528521 
0.14473619 0.67376107 0.7246362 
0.52175087 0.5958461 0.6105272 
0.45955858 0.25735742 0.850043 
0.5354309 -0.45277542 0.7129573 
0.47120798 -0.5236255 0.7097742 
-0.30581522 -0.14661768 0.940734 
0.7894448 -0.40028098 0.46535164 
0.072725475 0.4971065 -0.86463654 
-0.16565564 0.73150295 -0.6614089 
0.42195198 0.09772593 -0.9013358 
0.06301319 -0.015914576 -0.9978859 
0.92376846 -0.38054982 -0.042822972 
0.36956435 -0.8720266 0.3209233 
0.4343351 -0.69118214 0.5775987 
-0.13543378 -0.96713424 0.21519572 
-0.3411479 -0.5663181 0.750268 
-0.5229672 -0.46568108 0.71389526 
0.13962041 -0.56162745 0.8155248 
-0.11628775 0.4984333 0.8590934 
-0.28957292 0.7014357 0.651257 
-0.20532161 0.14823653 0.9674033 
-0.9844616 0.1739721 -0.023857232 
-0.62560374 -0.21997404 -0.7484861 
0.41218373 -0.16994415 -0.8951109 
0.924211 -0.22020605 -0.31199887 
0.6997116 -0.14285251 -0.6999977 
0.9019947 -0.09818597 -0.4204345 
0.57979065 -0.08339181 -0.8104866 
0.63502336 0.5705412 0.5207957 
0.8067049 0.56406367 -0.17623714 
0.46660638 -0.53462607 0.70459455 
0.5731905 0.6526522 -0.49547723 
0.28590333 0.9579738 0.023354834 
0.062317707 0.97568923 0.21011224 
-0.36455297 0.54669636 -0.75380653 
-0.31441292 0.8495214 -0.42362478 
0.028631695 0.84869105 -0.52811325 
0.32446378 0.9130044 -0.24727812 
0.915315 0.39376083 -0.08456282 
0.31449726 0.94881266 -0.0290866 
-0.30746853 0.94893235 -0.070644416 
-0.82113874 0.40663782 0.40047082 
-0.95812637 -0.0971568 -0.26935953 
-0.5129491 0.3115243 -0.79989743 
-0.63674736 0.07906036 -0.7670087 
-0.5471215 -0.6491354 -0.5284708 
0.2937122 0.04491895 -0.954838 
0.22503296 -0.3905275 -0.8926638 
-0.011511445 -0.69915587 -0.71487665 
-0.03396853 -0.90754807 -0.41857228 
0.05214614 -0.67903143 -0.7322548 
-0.13847303 -0.07404187 -0.98759466 
-0.103219874 0.36494568 -0.9252894 
-0.30400035 -0.610702 -0.73118186 
0.026888488 -0.8959011 -0.44343916 
0.5363086 -0.34192848 -0.7716593 
0.92063886 -0.3778145 0.09838869 
0.86368996 -0.5032027 -0.028753622 
0.27917367 -0.59462506 0.7539782 
0.12719814 -0.36352792 0.9228587 
0.70750225 -0.07820962 0.7023702 
0.016113058 -0.70622903 0.7078001 
-0.0389439 -0.03353654 0.9986785 
-0.5516361 -0.05017032 0.8325747 
-0.79527414 0.3211723 0.5141864 
-0.28085124 -0.20388319 0.9378456 
-0.13571265 0.65418506 0.7440592 
-0.3637 0.001121196 0.93151546 
-0.29135534 0.4465693 0.84598345 
-0.23166206 0.26217172 0.93680245 
-0.98049897 0.11991085 0.15570238 
-0.5674412 -0.82128966 -0.059108727 
-0.15717788 -0.29610577 -0.9421341 
-0.2569092 -0.8025651 -0.53841156 
0.29129335 -0.76104355 -0.5796215 
0.7528468 -0.56209 -0.3424569 
0.1479618 -0.94470996 -0.29262665 
0.9903086 0.1386405 -0.008230796 
0.9316288 0.36340064 -0.0027748316 
0.66717833 0.70881605 -0.22902602 
0.38644943 0.83727086 0.386826 
0.7027577 0.43811983 0.56052 
0.12660721 0.63304 0.7636956 
-0.6101414 0.10043761 0.7859006 
-0.22538438 0.50138235 0.83535475 
-0.9247688 -0.23307344 0.30079812 
-0.69318753 -0.6835412 -0.22861022 
-0.65533036 -0.05077179 0.75363404 
-0.29102093 0.87988883 0.3756361 
-0.4492194 -0.2323132 0.8626892 
-0.52088106 0.23796509 0.81979007 
-0.46610454 0.40716326 0.78547096 
-0.4452144 0.74325603 0.4993543 
0.038672853 0.916705 0.39768863 
-0.70726985 0.4950189 -0.50470364 
-0.69617385 0.1906387 -0.6920975 
-0.19861317 0.4622754 -0.86420727 
-0.73037773 0.50570226 -0.45914444 
-0.4110366 -0.7386107 0.53432494 
0.13297485 -0.5612812 0.8168728 
-0.4613554 0.43218017 0.7748365 
-0.827906 -0.3952089 -0.39797187 
-0.6397869 -0.7591976 -0.11954807 
-0.9840637 -0.003314818 0.17778587 
-0.861662 -0.4978514 -0.09840141 
0.34160867 -0.7377239 0.5822946 
-0.08140311 -0.84314233 0.5314928 
-0.58460015 -0.50278133 0.6367524 
-0.15306535 -0.59245217 0.7909307 
-0.32138112 -0.54075116 0.77736884 
0.2643525 -0.9478922 0.17781499 
0.31560528 -0.7262859 0.61065716 
0.08982448 -0.43310723 0.89685553 
-0.39522976 -0.38839686 0.8324311 
-0.5141844 -0.49990234 0.6969305 
-0.237473 0.12453344 0.9633784 
0.18534413 -0.51767147 0.8352628 
0.691665 -0.25569007 0.67544216 
-0.22007757 -0.27816525 0.93498135 
-0.50088584 -0.054205377 0.86381435 
-0.4098844 0.48020056 0.77550125 
0.17291158 0.54806757 0.8183664 
-0.5770315 0.58847886 0.566328 
-0.42064893 0.6638534 0.61834717 
-0.7187789 0.3185192 0.61798257 
-0.7681053 -0.23634425 -0.59510976 
-0.12007932 -0.35412517 0.927457 
-0.57061404 -0.7744618 -0.27314556 
-0.53431886 -0.78108966 0.32311347 
-0.46061584 -0.8578842 -0.22774467 
-0.22565685 -0.90055466 -0.37159175 
-0.17235886 -0.961758 0.21287072 
0.6191973 -0.39818087 0.6767915 
0.21052429 -0.7570929 0.6184577 
-0.51230377 -0.2628512 0.8175904 
-0.35126576 -0.3054193 0.88506013 
-0.15736681 -0.32322326 0.93314654 
-0.10935711 -0.34812966 0.9310461 
-0.14865941 -0.27515477 0.94983697 
-0.98705095 0.14752625 0.06298091 
-0.87777007 -0.47028297 0.09139814 
-0.4754985 -0.84449154 0.24644539 
-0.16609177 -0.92745084 0.33503523 
-0.6321425 -0.6811688 -0.36933059 
-0.17801823 -0.37668166 -0.9090767 
-0.36633727 -0.576486 -0.7303841 
-0.2239789 -0.9639281 -0.14379169 
-0.011198718 -0.9949173 0.10007121 
-0.494091 -0.8209857 -0.28610617 
-0.2732259 -0.9109448 -0.30907494 
-0.16627456 -0.81272614 -0.5584164 
0.65529376 -0.7482148 -0.10375357 
0.5051047 -0.8301218 0.23615044 
0.78450745 -0.46761894 0.4072844 
0.48730546 -0.6523039 0.5805455 
0.3876496 -0.48576123 0.7834309 
-0.046445735 -0.053523075 0.99748594 
0.9270172 0.31650102 0.2011626 
0.56469417 0.78696465 0.2486103 
0.75576925 0.51907146 0.3992213 
-0.17666405 0.9636702 0.20032398 
0.053779386 0.8963158 0.44014278 
-0.11764857 0.39967233 0.90907687 
-0.10403786 0.48951277 0.8657675 
0.3919887 0.7251911 0.56607664 
0.12055915 0.67309195 0.72966623 
-0.63569945 -0.6278807 0.44905686 
-0.93921614 -0.33016348 0.09415529 
-0.9986671 -0.01966981 -0.047719665 
-0.70173895 0.2819937 -0.6542492 
-0.2124217 0.4627819 -0.8606451 
0.28866452 0.1849539 -0.939396 
-0.90351826 -0.017836 -0.42817852 
-0.80489635 -0.08605664 -0.5871423 
-0.74548054 -0.33709365 -0.5750015 
-0.52448916 -0.010105741 -0.8513573 
-0.41757527 0.3388135 -0.84311104 
0.47596833 -0.25913498 -0.8404186 
-0.042894475 -0.66749126 -0.7433812 
0.3243181 -0.07379951 -0.9430649 
-0.29387647 -0.18970683 -0.93682873 
0.17589387 0.23346436 -0.95632416 
0.94064486 0.25180706 -0.22755326 
0.9054909 -0.089300595 -0.41486365 
0.95801526 0.2852601 0.028869418 
0.8898804 0.32524487 0.3198886 
0.82349896 0.55905265 -0.09648599 
0.6079074 0.7596275 0.23111607 
0.51171833 0.4355447 0.7405709 
0.10302085 0.5946273 0.79737395 
-0.22505373 0.6728377 0.7047271 
-0.23331891 0.9124215 0.3362278 
-0.4158245 0.7811861 -0.46565884 
-0.857389 0.4765004 -0.19450346 
-0.46687865 0.8807544 -0.079347245 
-0.79285383 0.52271485 0.3132922 
-0.9339111 0.30435807 -0.18755339 
-0.70335186 0.452477 -0.5482342 
-0.20233873 0.89519817 -0.3970884 
-0.68646467 0.6883631 -0.23435575 
-0.06628324 0.69438374 -0.7165458 
0.34177294 0.68439496 -0.64404565 
0.8238821 0.088635 -0.5597876 
0.6397912 -0.19020659 -0.74464005 
0.87713474 -0.39459157 0.2737372 
0.8077922 -0.32593766 0.49115825 
0.9773502 0.211075 0.015293823 
0.90053093 -0.38767573 0.19685446 
0.7425368 -0.12363313 0.65829635 
0.84788066 0.4480716 0.2834258 
0.6137208 0.7730847 0.16027153 
-0.006801917 0.76611406 0.64266866 
0.07903314 0.7178302 -0.691718 
-0.21476 0.65796643 -0.72177446 
0.15940723 0.49447393 -0.85445005 
0.071654804 0.97745836 -0.19859712 
0.36188138 0.88779724 0.28435546 
0.82605505 -0.06841914 0.55942106 
0.48347804 0.72419053 0.49172878 
0.45764786 0.68672544 0.5647713 
-0.2862209 0.5347023 0.7950919 
-0.23031509 0.42442766 0.87568045 
0.07114284 0.21609214 0.9737777 
-0.40995836 -0.6213768 0.6677014 
-0.96277034 -0.25084504 -0.1007471 
-0.5888605 -0.46306068 -0.6624335 
-0.23725322 -0.96949846 0.061512522 
-0.08398903 -0.98950964 -0.11754424 
-0.3940754 -0.7263461 -0.5631395 
-0.42856392 -0.15694436 -0.88977605 
-0.5699016 0.34607664 -0.7452807 
0.45479387 0.60808897 -0.65068454 
0.33338022 0.49299845 -0.80362314 
0.53048617 -0.12063371 -0.83906615 
0.9369185 0.04333754 -0.3468511 
0.35385877 0.8877696 0.29436234 
0.7807619 -0.24238099 0.5759013 
0.4572938 0.5079406 0.72998554 
0.18895146 0.20939365 0.9594017 
-0.47065702 0.39681265 0.7880493 
-0.9433581 0.27179512 0.19027056 
-0.44741055 -0.18877424 0.8741786 
-0.9496034 0.27094442 0.1576153 
-0.7966447 0.59601086 0.100639075 
-0.9861026 -0.121226676 0.11360368 
-0.8667815 -0.2810396 -0.41195473 
-0.48910975 -0.22746055 -0.8420413 
0.049613304 -0.7622902 -0.645331 
0.57999307 -0.6560667 -0.4828919 
0.8211472 -0.1939318 -0.5367569 
0.99556637 -0.08532089 0.039597917 
0.86290187 -0.2524452 -0.43780354 
0.7594666 -0.083424844 0.64517504 
0.27506137 0.15023984 0.9496154 
0.22448586 0.3926512 0.89186954 
-0.10847352 0.041558765 0.99323034 
0.14818342 0.44063014 0.8853739 
0.45814142 0.54962456 0.6985838 
0.4503181 0.34402785 0.8239288 
0.66256464 -0.12099469 0.7391674 
0.28122985 -0.44986525 0.8476621 
0.38208556 -0.031331025 0.92359567 
-0.19669867 0.49369743 0.8470965 
0.10047063 0.78838694 -0.6069199 
-0.40225694 0.6084967 -0.6840476 
-0.1528104 0.573469 -0.8048492 
0.23437688 0.43656123 -0.86860913 
0.79325986 -0.48047394 0.3740103 
0.3912407 -0.6807081 0.61932814 
0.68163615 -0.58065784 0.44520634 
-0.3700981 -0.7354015 0.5676372 
-0.15667783 -0.56574565 0.80955786 
0.07236805 -0.66324085 0.74489903 
-0.15203941 -0.23986542 0.9588267 
-0.14213859 0.62105054 0.7707743 
-0.31937173 -0.23752482 0.91737866 
-0.52386975 -0.6875426 0.50283766 
-0.37466314 -0.6856582 -0.6240996 
-0.2904453 -0.1979743 -0.93618786 
-0.2056766 -0.7534594 -0.6244968 
0.68523806 -0.6056983 -0.4044483 
0.6056335 0.10607487 -0.7886421 
0.13225552 0.4118666 -0.9015955 
0.63306266 0.7736957 0.025033278 
0.37794456 0.7057591 0.59921783 
0.97470504 0.09098857 -0.20413552 
0.69428873 -0.18911904 0.6944042 
0.17975737 0.9167004 0.3568583 
0.4075605 0.58498526 0.70120376 
-0.53561634 0.22338438 0.8143799 
0.087621175 0.9808084 0.17417672 
0.20347685 0.7970579 0.5685911 
0.67059433 0.72345936 -0.16404215 
0.20081861 0.88398975 0.42217767 
0.20456219 0.69728774 0.68698186 
-0.006851722 0.9410631 0.3381616 
-0.7554049 0.4404368 0.4851587 
-0.81416696 0.5767266 -0.06722137 
-0.98698086 -0.13618498 -0.08557148 
-0.7659965 -0.14794423 -0.62558925 
-0.40407544 -0.5292104 -0.7460962 
-0.6932111 -0.50244755 -0.5167251 
0.029274615 -0.3088298 -0.9506667 
-0.5083708 -0.743202 -0.43498272 
-0.5569043 -0.41645554 -0.7186254 
-0.79720604 -0.120816305 -0.5914947 
-0.3636076 -0.069394425 -0.92896396 
0.054302383 -0.24011861 -0.96922356 
-0.31364888 0.1960048 -0.9290892 
0.04785005 0.2643798 -0.9632309 
0.54983413 -0.038825307 -0.83437103 
0.59454453 -0.15748845 -0.7884885 
0.42648813 -0.5812699 -0.69298863 
0.8998208 -0.2572392 -0.35235 
0.9101366 -0.37526867 0.17557022 
0.47573292 -0.8637302 0.16627792 
0.7027862 -0.7100418 0.043956675 
0.7821053 -0.115307495 0.61238515 
-0.03391344 -0.83761734 0.54520386 
-0.22586788 -0.6655888 0.7113194 
-0.3848644 0.07944119 0.919548 
0.013174325 0.05400886 0.9984536 
-0.5270242 0.3929344 0.75355697 
-0.19956724 -0.26988932 0.94198346 
-0.91214395 -0.07621575 0.40272158 
-0.37942505 0.09559189 0.9202711 
-0.56909496 -0.056664985 0.8203171 
-0.76747274 -0.09437778 0.6340967 
-0.67722124 -0.5634106 -0.47322303 
-0.4414321 -0.8155994 -0.37407967 
0.37874642 -0.703127 -0.6018004 
0.93836975 -0.22802842 -0.25974107 
0.82323223 -0.20854057 -0.5280148 
0.9262186 0.3186682 -0.20141952 
0.65976363 0.7506739 0.03464981 
0.34937844 0.85833913 0.37575087 
0.3597131 0.2983463 0.88407916 
0.80789095 0.14231592 0.57189035 
0.0022273313 -0.24333821 0.969939 
-0.8225311 0.43138233 0.37061033 
-0.46133402 0.42962372 0.77626956 
-0.6916756 0.137285 0.70904005 
-0.90016407 0.35339376 0.25459313 
-0.9404297 0.3229095 0.1064024 
0.16046883 0.12829173 0.978668 
-0.022341976 -0.019635607 0.9995576 
0.23388517 0.44408628 0.8649192 
0.08731391 0.48603722 0.8695654 
-0.69942844 -0.14447011 0.6999488 
-0.790586 0.38655046 0.47492382 
-0.4038329 0.77138495 0.49181733 
-0.8470394 0.5087583 0.15391313 
0.0801041 0.99667704 -0.014778981 
-0.18984577 0.68203884 0.70624477 
-0.61055183 -0.26122335 0.7476556 
-0.6670304 -0.50578386 0.5470405 
-0.21410663 0.40310776 0.8897542 
-0.9076882 -0.09152044 0.40954402 
-0.7897235 -0.5203491 0.32492107 
-0.834903 -0.24874632 0.49098083 
-0.8827882 0.15389793 -0.4438476 
-0.032260265 -0.4120337 0.9105973 
-0.53512925 -0.6069951 0.5875318 
-0.44610196 -0.8060684 0.3889045 
-0.31175435 -0.92828363 -0.20272824 
0.09139723 -0.71153206 -0.6966841 
-0.052549504 -0.55097413 -0.83286613 
-0.25321367 -0.96657455 -0.04020671 
-0.16565254 -0.62394357 0.76371056 
0.2928772 -0.8412987 0.45435613 
-0.14835598 -0.8617684 0.4851245 
0.009771111 -0.932089 0.3620976 
0.438481 -0.6519037 0.61867285 
0.086724155 -0.622959 0.77743244 
0.37034774 -0.71913105 0.5879568 
-0.28501052 -0.25859803 0.92298216 
0.07081323 -0.18352933 0.9804604 
0.08453632 0.23519053 0.968266 
-0.06028454 0.6608546 0.7480889 
-0.03972694 0.12780797 0.99100304 
-0.8779362 0.10180902 0.46782798 
-0.8366614 0.5382362 0.101486824 
-0.88432443 -0.2830862 -0.37125808 
-0.4465973 -0.8910507 -0.0811143 
-0.21093023 -0.9765599 -0.042885806 
-0.52482575 -0.749072 -0.4042885 
-0.3308176 -0.87277216 -0.3589267 
0.31486267 -0.8668324 -0.38660467 
0.25366345 -0.92597055 -0.2797026 
0.117258735 -0.9763789 -0.18147919 
-0.23473418 -0.9633496 -0.12983611 
0.015621164 -0.9240571 0.3819352 
0.2994296 -0.93198586 0.20431444 
-0.39388508 -0.9039217 0.16667327 
-0.7353624 -0.5792281 0.3517626 
-0.5090566 0.49855104 -0.70164686 
-0.8672067 -0.3343105 -0.36903822 
-0.7248034 -0.5480657 -0.41747335 
-0.4533062 -0.81697184 -0.35646945 
-0.7469016 -0.66455376 0.022504956 
0.06295653 -0.15315808 -0.98619425 
0.10485183 -0.92297375 -0.37030497 
-0.24269392 -0.9694286 0.036165863 
0.054134537 -0.83865184 -0.54197097 
-0.096989796 -0.9943344 0.04349867 
-0.34630743 -0.8250551 -0.44649205 
-0.24331705 -0.91474074 -0.32256228 
0.37852532 -0.9200762 0.10088873 
0.36691174 -0.9098559 0.19374767 
0.5453587 -0.6125544 0.5721547 
0.6163647 -0.7818784 0.093598984 
0.777076 -0.5482887 0.3090834 
0.19313861 0.017796876 0.9810101 
-0.09129843 0.7123503 0.6958604 
-0.25038743 0.87863934 0.40656984 
0.24476829 0.9593522 0.14046977 
0.6422525 0.70130336 0.30933064 
0.04362954 0.90984017 0.4126589 
-0.47644058 0.36943007 0.79782563 
-0.55039984 -0.034100965 0.83420455 
-0.8209506 -0.44395292 0.35909027 
-0.8220697 -0.17280878 0.5425299 
-0.7517696 -0.6278729 -0.2015397 
-0.93807065 0.029810589 -0.345159 
-0.8675987 0.17404263 -0.46581277 
-0.529502 -0.07282035 -0.84517753 
-0.14015181 -0.16072157 -0.97699857 
-0.22768049 0.5386235 -0.81120056 
0.11296351 0.6922345 -0.7127767 
-0.4099695 0.26834473 -0.8717317 
-0.6351021 0.080838814 -0.7681865 
-0.3650311 0.046204034 -0.9298481 
-0.24193 -0.14100276 -0.95999384 
0.20291069 -0.39727277 -0.8949869 
0.09729464 -0.0012974176 -0.9952549 
0.2202942 0.31157413 -0.9243333 
-0.1703381 0.546321 -0.82007223 
0.41467634 0.30418497 -0.8576217 
0.31565425 0.1472295 -0.93738246 
0.628537 0.22479941 -0.7445848 
0.5214896 -0.28802752 -0.8031742 
0.74923027 0.0788303 -0.6576016 
0.96400136 0.23887539 -0.11679064 
0.6581795 0.5877511 0.47047684 
0.6789254 0.35826907 0.6408617 
0.55408573 0.41312617 0.7227142 
-0.11059634 0.20333707 0.9728426 
-0.38298705 0.3365537 0.86026305 
-0.23343879 0.50949335 0.8282047 
-0.5738613 0.7485683 0.33215785 
-0.5586169 0.81077003 0.17492647 
-0.9067618 0.4006015 0.13153493 
-0.88880396 0.3024179 -0.3443416 
-0.86374253 0.33475885 -0.37667662 
-0.49223518 0.85316324 0.17267592 
-0.5155887 0.8004422 -0.30571336 
-0.43260446 -0.0081576845 -0.90154696 
0.4175821 -0.3152067 -0.85221475 
0.8469065 -0.25576636 -0.46619 
0.31051537 -0.31840974 -0.89565367 
0.45080677 -0.5226915 -0.7235793 
0.57063866 -0.123155385 -0.8119141 
0.7171188 0.5758115 -0.39265984 
0.729085 0.67833537 -0.091083586 
0.4476175 0.88283175 0.14229092 
0.7546778 0.59983087 0.26582778 
-0.017966637 0.977972 0.20796141 
-0.45984197 0.8773473 0.13713907 
-0.010102051 0.93600255 0.35184827 
0.094005466 0.9788278 -0.18182202 
0.26285034 0.9132306 -0.31131908 
0.4428812 0.74133164 0.50426555 
0.19562137 -0.3638428 0.91068697 
-0.09948602 -0.22685945 0.96883297 
-0.21284851 0.4899439 0.84537005 
-0.24280153 0.20462 0.94825 
0.12103747 0.22885089 0.9659075 
-0.34025976 0.5792829 0.7407123 
-0.027978646 0.44378912 0.89569443 
-0.7748425 -0.3256564 0.5418183 
-0.8393348 -0.04712834 0.5415683 
-0.68589646 -0.6893751 -0.23304096 
-0.7432393 -0.6330668 0.21638377 
-0.7337015 -0.473996 -0.4868367 
-0.24066235 -0.46703878 -0.8508563 
-0.17793277 -0.21517152 -0.9602298 
0.054862693 -0.6005853 -0.79767627 
0.13689023 -0.14450772 -0.97998905 
0.7846921 0.3316481 -0.52370584 
0.88623226 -0.15825187 -0.43537205 
0.9409489 -0.338433 0.008849055 
0.76602906 0.07573449 0.63832885 
0.5877379 0.2015613 0.78354144 
0.21555859 0.17807445 0.96011674 
-0.051520362 0.7712086 0.63449436 
-0.1528319 0.118595965 0.98111033 
-0.8132348 0.051055823 0.57969177 
-0.26943842 0.59472203 0.7574355 
-0.9474555 0.10892213 0.30077228 
-0.92262876 0.34942138 0.16328196 
-0.7768371 -0.4373118 -0.4530812 
-0.23705775 -0.23644409 -0.9422834 
0.4408335 -0.27222022 -0.8553141 
0.31268436 -0.5523299 -0.77276146 
0.48338327 -0.86470765 -0.13645983 
0.9638337 -0.23261875 -0.13005036 
0.9135282 -0.08327905 0.39815935 
0.8406677 -0.18785551 0.5079252 
0.8724367 -0.083970435 0.48145947 
0.37675774 -0.4793337 0.7926494 
0.31802592 -0.5784628 0.75115937 
0.16844131 -0.8344349 0.5247343 
0.62666994 0.30544588 0.7169293 
0.20992339 0.010929851 0.9776568 
-0.18665929 -0.6194527 0.7625201 
-0.18929948 -0.68102866 0.7073654 
0.33428726 -0.6207295 0.70918757 
-0.08997409 -0.1697037 0.98137933 
-0.68005526 -0.39534461 0.6174363 
-0.39907083 0.07711203 0.9136718 
-0.59795547 0.62680954 0.49955893 
0.01627356 0.9433831 -0.33130595 
0.54572856 -0.2016997 -0.81332505 
-0.16021667 -0.96249235 0.21895017 
0.027327863 -0.9176232 0.396511 
-0.22473274 -0.9743734 -0.009573969 
-0.5580035 -0.8229084 -0.10702289 
-0.026240477 -0.66906667 0.742739 
-0.22455356 -0.5984778 0.7690254 
0.09175778 -0.68948156 0.71846765 
0.24807237 0.03930817 0.9679438 
-0.5531791 -0.76005536 0.3410406 
-0.6697243 -0.7098983 0.21797681 
-0.79487485 -0.587934 0.15002584 
-0.17605476 -0.46945193 -0.8652281 
0.29393992 -0.5653179 -0.7707238 
0.9735667 0.183932 -0.13541408 
0.9676983 0.24778265 0.046517648 
0.60367775 0.77823794 0.17297097 
0.22482294 0.28827822 0.9307794 
0.8396664 -0.05481184 0.5403295 
0.8987297 -0.1665441 0.4056454 
0.98726994 0.10234546 -0.121751666 
0.8099819 0.086839005 0.57998997 
0.34650055 0.59816974 0.7225859 
-0.08024422 0.80136174 0.5927735 
-0.0155994175 0.4308131 0.90230644 
0.17548645 0.4698056 0.86515164 
0.12038084 0.66589564 0.7362686 
-0.4313293 0.12026438 0.894143 
0.0016293784 0.99999577 0.002407703 
-0.6553096 0.7411357 -0.1459015 
-0.6810753 0.40330872 -0.61112905 
-0.64632213 0.49333254 -0.5821433 
-0.14854145 0.47159493 -0.8692145 
-0.4024759 0.13895026 -0.90482384 
0.70370054 -0.3278669 -0.63032436 
-0.5525939 -0.09032862 -0.82854146 
-0.75457984 0.42234367 -0.50223017 
-0.8132394 0.08214418 -0.5761025 
-0.34234986 0.08102017 -0.9360729 
-0.2137946 0.40791708 -0.8876348 
0.33179852 0.39857486 -0.8550135 
-0.42229718 -0.32586944 -0.84585714 
-0.69707954 -0.33946887 -0.6315386 
0.45857432 0.30878556 -0.8332834 
0.7654933 0.076651104 -0.6388621 
0.93559325 -0.010256633 -0.352931 
0.7689447 -0.14431195 -0.62281466 
0.9128821 -0.15239108 -0.37871253 
0.8039022 -0.15522274 -0.5741491 
0.90795267 -0.26467317 -0.3249157 
0.12542312 0.63390374 0.76317436 
0.7336067 -0.43989885 0.5179867 
0.021857532 -0.526943 0.8496196 
-0.10936903 -0.60486823 0.7887794 
-0.09468832 -0.51582015 0.851448 
0.20636332 0.21238317 0.9551479 
-0.5561019 -0.4218405 0.7161015 
-0.64861673 -0.45749816 0.6082696 
-0.83241534 0.054638963 0.5514521 
-0.563581 -0.28181994 0.7765011 
-0.9455965 -0.29994753 0.12601134 
-0.9217082 0.11036264 -0.37185216 
-0.9151049 -0.14814632 -0.37501436 
-0.046375014 -0.58864737 -0.80705875 
0.29048467 -0.1515933 -0.94479537 
0.9930579 -0.06813497 -0.09588378 
0.8281645 0.09915997 -0.5516438 
0.40327862 0.88080657 0.24808522 
0.25880626 0.8554428 0.44859436 
0.5982546 0.46831208 0.65021175 
0.29368895 0.65944207 0.69201374 
-0.2598266 0.69073904 0.67481095 
-0.30459797 0.4605888 0.8337135 
-0.15891278 0.55600536 0.815846 
-0.51252466 0.5804096 0.6328059 
-0.21851286 0.12919876 0.9672434 
-0.20283209 -0.06667822 0.9769408 
0.31236166 -0.17489651 0.93372446 
-0.5864115 0.34425247 0.7332202 
0.24915095 0.48307773 0.83938056 
-0.19724227 0.32642654 0.92441404 
0.17116836 0.30852762 0.9356881 
-0.41233712 -0.22752552 0.88216233 
-0.5245519 0.14410523 0.8390942 
0.35625955 0.5459022 0.7583336 
0.10053055 0.4779073 0.87263864 
-0.17716359 0.60888666 0.77322066 
-0.04305735 0.29838243 0.9534747 
-0.855318 -0.30911487 0.41578728 
-0.056910567 0.026751235 0.9980209 
-0.6264691 -0.26314726 0.7336826 
-0.50937575 0.12166703 0.8518999 
-0.69644636 -0.25786608 0.6696773 
-0.8841724 0.46690667 0.015406733 
-0.42238945 0.90617603 0.020794159 
-0.19662195 -0.34750146 0.9168329 
-0.5571358 -0.5614015 0.6119053 
-0.09519273 -0.90113974 0.4229488 
-0.37014958 -0.89697325 -0.24171945 
0.27164567 -0.22722046 -0.9351896 
0.32764384 -0.66950905 -0.66663873 
-0.09269915 -0.77960026 -0.619379 
0.12878135 -0.955878 -0.2640314 
-0.49688914 -0.6403779 -0.58567697 
0.21049604 -0.9530629 -0.21762927 
0.7819666 -0.38377327 0.4911685 
-0.05478575 -0.807249 -0.58766294 
0.23926443 -0.94333404 -0.22994244 
0.6985335 -0.6685062 -0.2552461 
0.9403543 0.14884372 0.3059073 
-0.04658607 -0.7902106 0.6110622 
0.71135515 -0.014570259 0.70268166 
0.037538048 0.18711323 0.9816209 
-0.42861128 0.31537393 0.8466591 
-0.11360803 0.5828289 0.804614 
-0.29516315 0.5050343 0.81106055 
-0.98338354 0.047829323 -0.17512648 
-0.7113339 0.21373013 -0.66956973 
-0.012626628 -0.8533739 -0.5211464 
0.031104093 -0.9570014 -0.28841105 
0.1602289 -0.83098155 -0.53272533 
0.27067658 -0.92955554 0.25032115 
-0.4145471 -0.9061727 -0.08367655 
0.043165233 -0.65137696 -0.75752556 
0.60507923 -0.7667311 -0.21448216 
0.22406067 -0.62557817 0.74729437 
0.49440864 -0.8208557 -0.28593025 
0.0877481 -0.96971947 0.2279136 
-0.7159039 -0.67205465 0.18927288 
-0.38613015 0.47417423 -0.79124105 
-0.7178155 0.107287854 -0.6879173 
-0.8299787 0.11089042 -0.54666144 
-0.5118624 -0.70627546 -0.48905215 
-0.5737692 -0.48304895 -0.661402 
-0.40822604 -0.5803071 -0.7046951 
-0.5720975 -0.6517821 -0.49788022 
0.48825318 -0.7896696 0.37152514 
0.6963004 -0.5560643 -0.45382643 
0.57845515 -0.5888357 -0.5645017 
0.3405777 -0.7567354 -0.5579951 
0.8679234 0.18988587 -0.45896888 
0.75874424 0.080585375 -0.64638484 
0.9790793 -0.19705185 -0.050737876 
0.62038624 -0.650887 -0.43756962 
0.58789295 -0.80338675 -0.094612785 
0.97574675 -0.012161588 -0.21856466 
0.7893683 -0.16718616 0.590717 
0.6199896 0.6500498 0.43937263 
0.5535197 0.3783607 0.7419294 
0.1329774 0.7946181 0.59236735 
0.41477185 0.71017087 0.56887764 
0.05957235 0.75246245 0.65593565 
-0.9059247 0.33915576 0.25352302 
-0.91089 0.09331911 0.40195894 
-0.8946053 -0.14543264 0.42252898 
-0.81567985 -0.30440885 -0.49193656 
-0.4657694 -0.06405908 -0.8825844 
-0.75631446 0.45082936 -0.47406915 
-0.7367422 0.63005346 -0.24544574 
-0.86467606 0.3038756 -0.3999937 
-0.8082176 0.30195126 -0.50557864 
-0.41939574 0.5051554 -0.75427145 
0.31397718 -0.2506112 -0.9157578 
-0.064276494 0.67570513 -0.73436445 
0.22444324 0.7505351 -0.6215485 
-0.73077357 0.55914927 -0.39156377 
-0.18833104 0.8347964 -0.51734567 
-0.6449605 0.7641278 -0.01160818 
0.043698415 0.1794861 -0.9827896 
0.21271819 0.36694428 -0.90559536 
0.1464379 0.26923043 -0.9518776 
0.52655256 0.21711308 -0.8219516 
0.52710634 0.1483213 -0.8367555 
0.53875583 0.26487973 -0.7997381 
0.8400128 0.53785753 -0.071328975 
0.895585 0.42802733 0.12132711 
0.9777985 -0.0019348453 -0.2095382 
0.8073225 -0.016224125 0.58988744 
0.16312926 0.45640928 0.87468815 
0.20370434 0.22802284 0.9521083 
0.28869265 0.3427248 0.89397776 
-0.0062143262 0.034059513 0.9994005 
-0.40539616 0.5001623 0.76517427 
0.13922471 0.8658518 0.48053837 