# OOMMF: rectangular mesh v1.0
# Segment count: 1
# Begin: Segment
# Begin: Header
# Desc: Time (s) :  3.7900000000000015e-07
# Title: m
# meshtype: rectangular
# meshunit: m
# xbase: 2e-09
# ybase: 2e-09
# zbase: 5e-10
# xstepsize: 4e-09
# ystepsize: 4e-09
# zstepsize: 1e-09
# xmin: 0
# ymin: 0
# zmin: 0
# xmax: 1.024e-06
# ymax: 1.024e-06
# zmax: 1e-09
# xnodes: 256
# ynodes: 256
# znodes: 1
# ValueRangeMinMag: 1e-08
# ValueRangeMaxMag: 1
# valueunit: 
# valuemultiplier: 1
# End: Header
# Begin: Data Text
-0.94407964 0.12942679 -0.30325297 
-0.72052896 -0.33440346 -0.60746396 
-0.17251374 -0.6101761 -0.7732555 
-0.34184995 -0.25523245 -0.9044308 
0.4286201 -0.39996022 -0.81013364 
-0.04349502 -0.49336004 -0.86873704 
0.67367345 0.02862186 -0.7384748 
0.75121003 -0.5926362 -0.29063 
0.45328215 -0.88607705 0.096967734 
0.32625973 -0.9450236 -0.022025608 
-0.09422244 -0.7667833 0.63495326 
0.16711725 -0.8644684 0.4740953 
0.6425543 -0.76607853 0.015739609 
0.9178949 -0.34954217 0.18785417 
0.78544396 0.533486 0.3138002 
0.12975556 0.44114965 0.8880037 
-0.45741516 0.42936978 0.7787253 
-0.43363407 0.51698345 0.73803097 
-0.6757483 0.48209715 0.55762595 
-0.78258115 0.022121618 0.6221556 
0.625677 0.7244619 0.2892807 
0.5364454 -0.8306554 -0.14912449 
0.1645897 -0.9619868 0.21792613 
0.10954981 -0.98598266 -0.1258459 
0.29765758 -0.6716154 0.67847836 
0.03408736 -0.027772391 0.999033 
0.088101074 -0.64555347 0.7586165 
0.28213775 -0.8259296 0.48809704 
-0.2860136 -0.34149575 0.89530826 
0.40256998 -0.122815356 0.907113 
-0.19690116 -0.31091455 0.92981833 
-0.13127609 -0.22353989 0.965814 
0.2579503 -0.6174573 0.7431072 
-0.047362812 -0.8548563 0.5166988 
0.3082188 0.69111675 0.65372694 
0.13370876 0.6472567 0.7504538 
-0.5261945 0.8081211 0.26468784 
-0.5495622 0.44871792 -0.70472234 
0.9359537 -0.28306836 -0.20943524 
0.77499175 -0.6257241 -0.088640556 
0.4416102 0.69512093 0.5672631 
0.7187592 0.36116263 0.59409326 
-0.036835097 0.4663144 0.88385195 
0.012279573 0.27747193 0.9606553 
-0.4912573 -0.016140686 0.8708649 
-0.7166317 -0.5837002 0.38175008 
-0.5690946 -0.6927945 0.44290766 
0.102022134 -0.3168424 0.94297534 
-0.25332907 -0.8569002 0.44893932 
-0.8862956 -0.46096084 0.044669468 
-0.5540211 -0.46715468 0.689077 
0.047408853 -0.48022097 0.8758654 
-0.41777623 0.01804498 0.90837073 
-0.045488678 0.4591948 0.8871702 
-0.45569193 -0.47184986 0.75478643 
-0.55386686 -0.45558694 0.6969018 
-0.61890805 -0.732708 -0.28300512 
-0.5625222 -0.8257626 0.0410469 
-0.3028955 -0.5475657 -0.7800169 
0.25552922 -0.51850903 -0.8159983 
-0.016676513 0.33356094 -0.942581 
-0.6730052 0.69394976 -0.2559253 
-0.1276136 0.6712899 -0.7301265 
-0.566111 0.1739393 -0.8057688 
-0.1554268 -0.28918406 -0.9445714 
0.11087469 -0.89731824 -0.4272316 
0.17199698 -0.826617 -0.53583705 
0.46153438 -0.83423454 -0.30172613 
0.77508086 -0.20239663 0.59856933 
0.58331853 -0.72447807 0.367248 
0.28144407 -0.9429842 0.17767988 
0.5352436 -0.67863417 0.50296134 
0.14442399 -0.18801592 0.9714894 
0.8897996 0.20204327 0.40918866 
0.64174736 0.7460155 0.17782348 
0.5564137 0.69881415 0.4495138 
0.025063686 0.7245189 0.68879914 
0.07199986 0.67032903 0.7385629 
-0.27962935 -0.21519087 0.9356817 
-0.13361807 -0.35233676 0.9262856 
-0.032620426 -0.16539536 0.98568773 
-0.34555128 -0.39194536 0.8526273 
-0.5249401 -0.33149186 0.7839331 
-0.9755201 -0.097667575 0.19703244 
-0.5774095 0.045640603 -0.81517804 
-0.3721279 -0.11757779 -0.92070425 
0.0249423 -0.5687056 -0.82216287 
0.47700757 -0.15735051 -0.8646991 
0.39551517 -0.35004556 -0.84913826 
0.7025808 -0.0659839 -0.70853823 
0.88889086 -0.24041224 0.38996813 
0.7210953 0.48669115 0.49310574 
0.7753343 -0.071014956 0.6275458 
0.76742184 0.44670108 0.4599151 
0.43110675 0.854493 0.28980824 
0.3286021 0.8576877 0.3954651 
-0.5735761 0.026933506 0.81870943 
-0.89381653 -0.25334698 0.37001005 
-0.96188754 -0.26732358 0.057537645 
-0.9740895 0.05661044 -0.2189634 
-0.19403584 0.91062677 0.36484125 
-0.8412749 0.40317884 -0.3601436 
-0.69157326 0.29684135 -0.658492 
-0.8031566 -0.16059281 -0.5737155 
-0.56693333 0.049751356 -0.8222599 
-0.10502171 0.02428817 -0.99417335 
0.101338804 0.3454867 -0.93293595 
-0.38786194 0.79477894 -0.4667863 
-0.25926256 0.8447188 -0.46822318 
0.9098751 0.22016177 -0.3516477 
-0.083470784 0.89632875 -0.43546247 
0.4253733 0.5375318 -0.72809154 
0.4366795 0.852284 -0.2879638 
-0.17890704 0.5672012 -0.80391234 
-0.39763245 0.4984389 -0.77035534 
-0.903696 0.11076388 -0.4136001 
-0.7510698 -0.2815178 -0.5971951 
-0.25722918 0.39224958 -0.88316107 
-0.29619262 -0.042004123 -0.9542042 
-0.52412146 -0.506575 -0.684601 
-0.026762815 -0.25627685 -0.96623284 
0.28767866 -0.62194973 -0.72829914 
0.22624053 -0.90021896 -0.37204984 
0.5519319 -0.55907345 -0.6187149 
0.49983877 -0.7234072 0.47628063 
0.3663815 -0.9292578 0.047375582 
0.12918706 -0.93763226 0.32273293 
0.87966347 -0.32614118 -0.3461563 
0.33528888 -0.83706385 0.43232596 
0.33388808 -0.90053666 0.27848256 
-0.5520292 -0.8097097 0.19908303 
-0.0595631 -0.82349604 -0.5641865 
-0.22734952 -0.9558831 -0.18601045 
0.25583372 -0.6415197 0.72318846 
0.3805447 -0.7893021 0.48185903 
0.16727811 -0.26766518 0.9488801 
0.78377444 9.534173e-05 0.62104565 
0.45105478 0.32330835 0.83187824 
-0.49179408 -0.24746957 0.83480394 
-0.3405393 -0.11552141 0.93310654 
-0.4894745 0.67354304 0.5538543 
-0.32041314 0.52170455 0.7906705 
-0.018784134 -0.057709884 0.99815667 
-0.981496 0.15571629 0.11143654 
-0.331272 -0.40385312 0.8527377 
0.3088522 -0.08082587 0.94766957 
-0.057615064 -0.9838799 -0.16929507 
0.45628276 -0.85722125 0.23870057 
0.8736916 -0.48207882 0.06529206 
0.4729052 -0.6632311 0.5800735 
0.8703312 -0.15392193 -0.46779442 
0.5542553 -0.80762905 0.20133702 
0.9260371 -0.053189293 0.37366605 
0.69238454 0.22625032 0.6851383 
-0.27036384 -0.48469788 0.83184814 
0.255276 -0.85888803 0.4440109 
0.76797175 -0.104824655 0.6318475 
0.010734963 -0.7733309 0.6339118 
-0.07401633 -0.16223504 0.9839723 
-0.7174232 -0.28118858 0.6373672 
-0.47252443 0.6112908 0.63485765 
-0.6828608 -0.31421074 0.65952474 
-0.5252823 -0.49853104 0.6895979 
-0.56765217 0.013828812 0.82315236 
-0.50491136 -0.5029081 0.70153266 
-0.18464784 0.7524886 0.63219154 
0.37275174 -0.50956607 0.77549887 
0.45192102 -0.35743508 0.8173174 
-0.15651695 -0.7159085 0.68042445 
0.6458343 -0.5402605 0.5394595 
0.7131827 -0.61049193 0.34448525 
0.3253454 -0.7294847 -0.6016665 
0.42801932 -0.87745994 0.21647987 
-0.0095561715 -0.68851525 0.72515893 
-0.77191496 0.19477132 0.60515404 
-0.72706175 -0.47432715 0.49638188 
-0.011954931 -0.5023991 0.8645533 
0.7285754 -0.2638271 0.63211805 
0.19627221 -0.12043971 0.9731246 
0.41033104 0.55573756 0.72303826 
-0.889856 0.41486993 -0.18984023 
-0.35824874 0.8671582 -0.34596917 
-0.46229482 0.7660851 0.4465392 
0.3277148 0.9348717 -0.13644807 
0.14191003 0.41989893 -0.89640754 
-0.38547975 0.050125316 -0.92135376 
-0.48948342 0.15511034 -0.85810655 
0.52993834 0.6517462 -0.5425793 
0.6133208 0.7349464 -0.28929466 
0.5538181 0.52290726 -0.64796114 
0.24606667 0.9688615 0.027544959 
0.0041240617 0.6549489 0.755662 
-0.29279798 0.4579175 0.8393932 
-0.4111716 0.5872278 0.6972098 
-0.62374765 0.0004667772 0.7816257 
-0.19701728 0.8199977 0.5373899 
0.14862548 0.93253297 0.3290786 
0.6985687 0.71423966 0.04316955 
0.20463943 0.97705674 0.059015423 
-0.6296395 0.65960073 0.4104645 
-0.20058034 0.93744034 0.28455794 
-0.6129377 0.72794133 0.30726016 
-0.49506453 0.7515057 0.43606254 
-0.95653796 0.28849566 -0.04249136 
-0.5700539 0.8088379 -0.14429067 
-0.5419731 0.68687737 0.48421556 
-0.98511004 0.00896994 -0.17169125 
-0.5782651 0.0682072 -0.8129928 
0.7341441 -0.67673934 0.055285275 
0.6262453 -0.680008 0.3813214 
-0.27766454 -0.9450364 0.17265211 
0.6123981 -0.7529402 0.24093528 
0.9464034 0.14068012 0.2907403 
-0.070940115 0.16624369 0.9835297 
0.11243458 -0.059734713 0.99186206 
-0.32490274 -0.19717252 0.9249655 
0.24248989 -0.1388163 0.9601712 
-0.017985303 0.25555894 0.96662617 
0.37522277 -0.004142045 0.9269255 
0.30520704 0.69075245 0.65552247 
-0.101511 0.39124906 0.9146692 
0.43511447 0.46740234 0.7695522 
-0.7901317 0.5798258 0.19873118 
0.041423105 0.006660346 -0.9991195 
-0.29189217 -0.51552564 -0.80562544 
-0.76262486 -0.26268435 -0.59110105 
-0.9585409 0.15520297 -0.2389802 
-0.8987837 -0.25884777 -0.353816 
-0.93609947 -0.03019351 -0.35043707 
-0.56463903 -0.5499479 -0.6154186 
-0.21596399 -0.48094139 -0.84973824 
0.47918794 -0.44948626 -0.7538839 
0.37054682 -0.4706849 -0.8007189 
0.38933396 -0.38827786 -0.8352601 
0.8556248 -0.42676726 -0.29287562 
0.8408487 -0.5409619 -0.018271366 
0.7782206 -0.048683796 -0.62610114 
0.7765609 0.57086015 -0.26659325 
0.53407127 0.57004076 0.62435687 
0.08495081 0.07450764 0.99359554 
-0.47780082 -0.35625336 0.80298823 
-0.16670369 -0.3427859 0.9245041 
-0.29187873 0.76181245 0.57831544 
-0.5359747 0.77482414 0.33522925 
-0.94159764 0.23148443 0.24455854 
-0.8686062 0.41873452 0.26492417 
-0.8333486 -0.48248008 -0.26970938 
-0.2753034 -0.4593597 -0.84450984 
0.3075397 -0.73192346 -0.6080358 
-0.19311422 -0.82788074 -0.5266123 
0.37510118 -0.918145 0.12770592 
0.2616119 -0.9506665 -0.16671106 
0.043800164 -0.99775344 -0.050693262 
0.028052215 -0.32331923 0.94587415 
0.5032626 -0.17787626 0.84562814 
0.027346674 0.6979683 0.71560633 
-0.56004786 0.756064 -0.33869416 
-0.8625269 -0.08078638 -0.4995207 
-0.6363946 -0.041230258 -0.77026105 
-0.28723016 0.07189746 -0.9551595 
0.49182412 0.33145478 -0.80513775 
0.5728188 -0.27174094 -0.7733276 
0.5648562 0.22271101 -0.79456747 
0.29976305 -0.9271199 -0.22492413 
0.23035744 -0.75707686 -0.6113676 
-0.18541822 -0.8137174 -0.5508938 
0.096379034 -0.9672944 -0.23463312 
0.7371582 -0.67571205 -0.0033176432 
0.3304282 -0.8566132 0.39627168 
0.62874055 -0.7776006 -0.004760609 
0.8406781 0.3971841 0.36811036 
0.56600296 0.42634282 0.70560086 
0.03465773 0.3924163 0.91913456 
0.16455762 0.33420423 0.9280239 
-0.3629333 0.61942846 0.6961235 
0.37493432 0.6397531 0.670925 
0.61722374 0.06338361 0.7842304 
0.64701664 -0.66480035 0.37337643 
0.81182677 -0.5831447 -0.02965995 
0.41089267 -0.83863395 -0.3575757 
0.18845007 -0.8723104 -0.4511776 
0.70581055 -0.7080435 0.022494372 
0.5842703 -0.5653391 0.58225435 
0.20371424 -0.60954165 0.76613283 
0.25572425 -0.9635165 0.079001874 
0.2922463 -0.86650515 0.404674 
0.21708196 -0.9385525 0.26831824 
0.71897674 -0.6380238 0.27567765 
-0.124362014 -0.8668868 0.48274365 
-0.25610366 -0.8013868 0.54054624 
-0.06062674 -0.8593088 0.5078512 
0.030698271 -0.196347 0.9800539 
-0.45135334 0.45495206 0.767658 
-0.6280049 0.72350013 -0.28663108 
0.36928058 0.22706524 -0.9011512 
0.78079164 0.13075154 -0.6109571 
0.41053298 0.70943016 -0.57286257 
0.9093975 0.0401445 0.41398618 
0.3089611 0.45685607 0.8341617 
0.17777716 -0.0630362 0.9820498 
-0.5087321 -0.45324606 0.7319562 
-0.37975955 -0.7584553 0.52964914 
-0.41988245 -0.904348 -0.07650846 
-0.042769514 -0.98595303 -0.16145407 
-0.13181537 -0.9650061 0.22668901 
-0.42721626 -0.83264774 0.35239765 
0.1005578 -0.8189006 0.5650574 
0.22651628 -0.913875 0.33693165 
-0.40670335 -0.89677143 -0.17433712 
0.21332534 -0.8933202 0.39556462 
0.19653144 -0.36814806 0.90875876 
-0.13348345 -0.9746631 0.17948298 
0.06131866 -0.9233132 -0.37912118 
-0.7005945 -0.59310824 -0.39672416 
-0.5899389 -0.39446127 -0.70453703 
-0.094427995 0.16834633 -0.9811947 
-0.037737433 0.3428987 -0.9386141 
-0.09979545 0.45741856 -0.8836341 
0.24096379 0.15426314 -0.95819587 
-0.33747533 0.44401854 -0.83003503 
-0.055925075 -0.5629236 -0.8246148 
0.5289504 0.17799158 -0.8297774 
0.69954914 0.0010491271 -0.71458375 
0.84315765 0.30970925 -0.43950573 
0.8329693 0.024657149 -0.55276954 
0.8063746 -0.4790493 -0.3468025 
0.799551 -0.5970133 0.065524675 
0.23765048 -0.91658384 -0.3215529 
0.81155324 -0.50274885 0.29769966 
0.6066683 -0.5233078 0.5984167 
0.6180083 0.66726124 0.41572613 
0.5555983 0.21468234 0.8032572 
0.20079681 -0.45327884 0.8684578 
-0.3404191 0.7892976 0.5110031 
-0.3432135 0.52022165 0.78203195 
-0.013756705 0.29962337 0.9539584 
-0.33280414 -0.61771727 0.7125075 
-0.9074411 -0.31373116 0.279506 
-0.91255045 -0.396646 0.099617764 
-0.7830796 -0.03915435 -0.62068784 
-0.924868 0.025038024 -0.37946326 
-0.511149 -0.3583988 -0.7812024 
0.10479423 -0.90803254 -0.4055799 
0.008222187 -0.042858917 -0.99904734 
0.76760226 -0.024010539 -0.6404765 
0.99607265 0.0044221138 -0.08842933 
0.7836531 -0.58180606 0.21769165 
0.74668384 -0.34720767 0.5673713 
-0.0008693463 -0.29352084 0.95595235 
0.5513493 0.60055965 0.5790874 
0.46389684 0.8855371 0.02497901 
0.12033658 0.64221746 0.75701773 
-0.7725482 -0.31325856 0.55230284 
-0.82106847 -0.45952338 0.33865145 
-0.5052783 -0.12379396 0.85403097 
-0.99433786 0.073562585 -0.07668642 
-0.7471826 0.6248296 0.2265086 
-0.9464963 -0.1531364 0.28406683 
-0.20588383 -0.023539566 -0.9782933 
-0.5363757 -0.4715983 -0.69992596 
-0.44317067 -0.13443205 -0.88630015 
0.38271156 0.12870952 -0.91485834 
-0.76230097 0.05259156 -0.64508253 
0.031699628 0.5116623 -0.8586017 
0.21571802 0.7800931 -0.58729947 
0.24299976 0.829718 -0.502513 
0.5449274 0.6766427 -0.49518564 
0.5719272 0.7290638 -0.37598598 
0.008581679 0.8769469 -0.48051053 
-0.30201644 0.936275 -0.1793744 
-0.4616206 0.75369644 -0.46781203 
-0.9917034 -0.0044660307 0.1284701 
-0.81108797 -0.28597346 0.5102504 
-0.65635765 -0.62930804 -0.41613236 
-0.47737196 -0.33862597 -0.810832 
-0.4980527 -0.7587816 -0.41975474 
-0.38634735 -0.86958086 -0.3075139 
0.26256534 -0.9501734 0.16801788 
0.2793908 -0.9114556 -0.30197626 
0.15437438 -0.9873838 0.03524012 
-0.2254606 -0.8660022 -0.44632703 
-0.10230711 -0.97141737 -0.21419978 
-0.27370432 -0.87052256 0.40899462 
0.4618517 -0.6885106 -0.5591477 
0.5290204 -0.8485973 -0.004489976 
0.037430156 -0.9910934 0.1278006 
-0.5491181 -0.82514644 -0.13267489 
0.03852068 -0.92076385 -0.38821405 
0.31791377 -0.87279147 -0.37035897 
-0.06720958 -0.98439014 -0.16266239 
0.5439023 -0.60456985 -0.58194995 
0.10905832 -0.9937227 -0.024929862 
0.44074494 -0.6437869 0.62552565 
-0.18209136 -0.37492892 0.9089946 
-0.29178908 0.77850336 0.55569047 
-0.1644589 -0.5861536 0.793333 
-0.54600173 -0.17197464 0.81994325 
-0.78434366 -0.07860912 0.6153258 
-0.6910629 0.15586852 0.7057883 
-0.90805775 0.27751213 0.31371668 
-0.27360588 -0.6028443 0.74947894 
0.6216032 -0.75346553 0.2142415 
-0.22108513 -0.886091 -0.40738708 
-0.36454657 -0.91844213 0.15352492 
0.051114883 -0.9301783 0.36353213 
-0.0061232476 -0.9190553 0.39408115 
-0.09297546 0.23017883 0.9686968 
0.18044612 -0.2174422 0.9592487 
0.7492269 0.43866488 0.49621794 
0.80684286 0.04828577 0.58878946 
0.42785314 -0.44582474 0.7862456 
0.19275646 -0.48429397 0.85340756 
0.39583182 -0.14678371 0.9065164 
-0.12955934 -0.33823058 0.9321022 
-0.015319222 -0.17609738 0.9842536 
-0.194236 -0.64360756 0.7402984 
-0.60099655 -0.42438728 0.677273 
-0.26117942 -0.44803086 0.8550168 
0.17665017 -0.7236995 0.66712356 
0.12773176 -0.6726986 0.72880805 
-0.2932678 -0.16421613 0.9418212 
-0.21830581 -0.73861295 0.6378036 
0.11862738 -0.5915159 0.797519 
0.037502464 -0.43108594 0.90153116 
0.5303942 -0.69423884 0.48653322 
0.13316287 -0.906364 0.4009639 
0.5583669 -0.82927865 0.02287999 
0.2885258 -0.95689154 0.033339843 
0.16491994 -0.9649192 0.20428501 
-0.04075712 -0.1896269 0.98101 
-0.30452806 -0.012869557 0.9524165 
-0.28651723 0.5561116 0.78015894 
-0.6256789 0.048892424 0.7785471 
0.2093086 0.06464178 0.97571075 
0.21248358 0.43196118 0.8765046 
0.1711904 0.5897901 0.78920317 
-0.20951742 0.8912251 0.40226898 
-0.18464634 0.93954176 0.28838712 
-0.8032289 0.3168089 -0.5044359 
-0.0076882015 0.87300986 -0.48764214 
-0.7343101 0.45958078 -0.499574 
-0.024128666 0.66980577 -0.7421443 
0.0323924 0.3093475 -0.95039725 
0.15937205 0.96555215 -0.20569307 
0.30856568 0.9511579 0.009274086 
0.45478508 0.8827226 -0.1182007 
0.72689134 0.5336919 0.43220612 
0.10895333 0.9212853 0.37331322 
-0.0075332928 0.95847446 0.28507906 
-0.40817532 0.45729488 0.79011047 
-0.92805403 0.28899246 0.23494479 
-0.1326629 0.87222517 0.47076938 
-0.08352407 0.92622644 0.3675982 
-0.14956748 0.9817376 -0.11756243 
-0.034610353 0.91237164 -0.40789723 
0.13329166 0.95019096 0.28172776 
-0.13518468 0.97041005 0.2000738 
-0.42374 0.90205127 -0.08214568 
-0.5937125 0.7894722 -0.15568957 
-0.7133261 0.6991717 0.04821645 
-0.64247495 0.7549081 0.13168103 
-0.35596082 0.015437423 0.9343734 
-0.7182956 -0.6765144 0.16241856 
-0.73888034 -0.6683694 0.08566354 
-0.36984262 -0.7527815 -0.5445517 
0.084433004 -0.95476025 0.2851386 
-0.36790538 -0.88225734 -0.29371378 
0.29820874 -0.90533507 0.30239043 
0.79186606 -0.45406285 0.40838107 
0.7288653 -0.60395104 0.32248804 
0.5348586 -0.649677 0.54022795 
0.47604874 -0.64745706 0.59512776 
0.3074247 -0.49165994 0.8147151 
0.16868536 0.28081173 0.9448228 
0.3035039 0.47669074 0.8250159 
0.036884665 -0.030400919 0.998857 
0.37457913 -0.09895454 0.92189944 
-0.027287243 0.23644821 0.97126096 
-0.90962446 0.20948522 0.35874698 
-0.22003452 0.69696015 -0.6825185 
-0.5797674 0.24469946 -0.7771693 
-0.53352225 0.7420082 -0.40592852 
-0.22804165 0.48266506 -0.84559536 
-0.15192604 -0.083077006 -0.98489434 
-0.57668704 -0.34660876 -0.7397936 
-0.027320301 -0.6948059 -0.7186783 
0.67367685 -0.36569154 -0.64220655 
0.84687865 -0.062548794 -0.5280948 
0.9095904 -0.27243292 -0.31372866 
0.34353212 -0.6662328 -0.66190606 
0.9794764 0.1210589 -0.16115466 
0.9985157 0.007837822 -0.053896863 
0.97611076 -0.019412462 0.21640502 
0.9495197 0.3109793 0.04128423 
0.61166394 0.43559223 0.66039884 
0.15335205 -0.06779607 0.98584324 
-0.30067784 -0.66217715 0.6863777 
0.17528434 -0.43009225 0.885605 
-0.29776472 -0.20429923 0.9325224 
0.3376578 -0.04928859 0.93997765 
-0.34616175 0.68278235 0.643413 
-0.99419117 -0.1052457 -0.022522263 
-0.995569 0.06652805 0.06645599 
-0.53236866 -0.24597783 -0.8099868 
-0.07771336 -0.763208 -0.6414627 
-0.2385972 -0.64809966 -0.7232139 
0.5833607 -0.6219416 -0.52237827 
-0.38535684 -0.9227169 0.009670237 
0.15478343 -0.9699009 -0.18797429 
0.65223736 -0.72212374 0.23048584 
0.43608996 -0.40895247 0.8016131 
0.57111657 -0.15194298 0.8066841 
-0.9369815 0.34724772 0.038533174 
-0.84942704 0.4392625 -0.29244184 
-0.4832618 0.07563758 -0.87220246 
-0.20678042 -0.04578573 -0.97731555 
-0.17926794 -0.2573042 -0.94955647 
-0.096461214 -0.17443992 -0.9799316 
0.4372623 0.54855704 -0.71266186 
0.3964533 -0.5516298 -0.7338457 
0.9422507 -0.3348373 0.006894213 
0.29339653 -0.95313674 -0.073817275 
0.24603468 -0.81851816 -0.5191291 
0.2860378 -0.9525841 -0.103758976 
0.63317823 -0.64216787 -0.43209457 
0.7662678 -0.4788271 -0.42843726 
0.95670813 -0.29093647 0.008094138 
0.4919948 -0.7146067 0.4972711 
0.38706285 0.613567 0.68827176 
0.21418518 0.5422092 0.81248623 
-0.059739184 0.8844407 0.46281305 
0.48069307 0.8768188 -0.011101842 
0.7380664 0.43584535 0.51506984 
0.2536364 -0.23524684 -0.9382578 
0.2676836 0.100892924 -0.9582099 
0.20906255 -0.032596305 -0.9773589 
0.5634525 -0.30959913 -0.7659437 
0.8607031 -0.50029916 -0.09429135 
0.5898489 -0.8061152 -0.047504462 
-0.39895165 -0.91449195 0.06739539 
0.64252186 -0.08800268 -0.7611972 
0.2798679 -0.8907703 0.35805336 
0.37177053 -0.927465 0.0399436 
0.85398847 -0.49415502 0.16283321 
0.8059165 -0.5825363 0.105594344 
0.8918354 -0.41393918 -0.18243898 
0.379601 -0.5816038 0.71947217 
-0.06700792 -0.45806074 0.88639176 
0.07913541 0.22642381 0.9708089 
-0.24493772 0.50719684 0.826291 
0.85264885 0.24509239 -0.46143237 
0.6828131 0.50135565 -0.5314215 
0.48068744 0.8720014 0.09248383 
0.77851784 0.4071512 0.47763783 
0.5617174 -0.39519078 0.72684103 
0.69938666 -0.1718074 0.6937871 
-0.3169918 -0.14983518 0.9365179 
-0.17517006 -0.7416663 0.6474926 
-0.028019756 -0.96164376 -0.2728668 
-0.09329483 -0.959435 0.26604626 
0.20370625 -0.97075194 -0.12706138 
0.36253917 -0.89581144 0.2570744 
-0.049207363 -0.91040385 -0.41078407 
-0.027858227 -0.99001247 0.13820043 
-0.19923635 -0.8425337 -0.5004416 
0.2221482 -0.96123314 -0.16334373 
-0.18632753 -0.54879606 0.8149263 
-0.48851082 -0.8725544 0.0024649343 
0.1524442 -0.4242688 -0.8926124 
-0.26222986 -0.5835624 -0.7685639 
-0.8647509 -0.2754666 -0.4199096 
-0.7137939 -0.29138336 -0.63686275 
-0.7852245 -0.008248224 -0.6191563 
0.28042012 0.6515768 -0.7048492 
-0.3008207 0.5860217 -0.7523865 
-0.49241307 -0.23246644 -0.8387423 
-0.14645077 -0.43041635 -0.89067054 
0.5344349 0.19128639 -0.82327944 
0.5729662 -0.2609572 -0.77692425 
0.6320703 -0.089582354 -0.76971567 
0.73070574 -0.09293229 -0.6763377 
0.62809116 -0.7696633 -0.11454283 
0.45970395 -0.7934928 -0.39880034 
0.9705566 -0.20215751 -0.13096672 
0.8399814 -0.3978829 0.3689453 
0.96029896 0.062299374 -0.27192777 
0.5824354 0.25989667 0.7702095 
0.8256654 0.21026127 0.523514 
0.5128284 0.051081553 0.85697013 
-0.38259247 0.4393883 0.81274915 
-0.04096784 0.31391034 0.9485684 
-0.45837885 -0.0814047 0.8850211 
-0.8905315 0.373465 0.2597645 
-0.9174884 -0.276443 0.28599706 
-0.5154264 -0.59033 -0.62116516 
0.34361064 0.07875368 -0.93580425 
-0.19632304 -0.78880376 -0.58244836 
0.24709222 -0.17420328 -0.95320445 
-0.010128688 -0.62007844 -0.78447443 
0.4149669 -0.4243247 -0.8048298 
0.70306754 -0.16432603 -0.69187653 
0.8678503 -0.49328345 -0.059221704 
0.9332485 -0.35460475 0.05746977 
0.39158154 -0.85097915 0.34999773 
0.7085197 -0.0340223 0.7048705 
0.36808228 0.064258404 0.92757016 
0.10420706 0.21518874 0.9709968 
-0.4028046 -0.08139979 0.91165924 
-0.29743615 -0.36104366 0.8838434 
-0.3466303 0.094937705 0.93318504 
-0.15984377 0.42183828 0.89246994 
-0.25535738 0.5956693 0.761558 
-0.99937767 0.028271904 0.021095209 
-0.5489109 0.8358527 0.0068719885 
-0.9006762 0.035135444 -0.43306813 
-0.657079 0.46911916 -0.59006304 
-0.53432006 -0.043546695 -0.8441599 
0.06123215 -0.67093575 -0.73898304 
0.26482305 0.33285436 -0.9050286 
0.57948786 0.68041146 -0.44859123 
0.8631945 0.2872787 -0.4151699 
0.57626635 0.7284789 -0.3704534 
0.6607548 0.74930614 0.044085145 
-0.055694886 0.88160247 -0.46869507 
0.24071877 0.92537004 -0.29282245 
-0.44291255 0.8826482 -0.15735552 
-0.6505836 0.53707725 -0.5369255 
-0.93349904 -0.122169115 -0.33712664 
-0.74642414 -0.6211058 0.23891157 
-0.9914354 -0.13002834 -0.012187048 
-0.42653617 -0.8019078 -0.41834286 
-0.42297605 -0.80615413 -0.41377154 
0.31032327 -0.66276616 -0.68149877 
0.5813244 -0.8127482 -0.03876011 
0.19079946 -0.87556684 -0.4438225 
-0.25183722 -0.75897074 -0.60045105 
-0.01978238 -0.7700147 -0.6377194 
0.08258643 -0.19314295 -0.9776887 
-0.80216837 -0.42008868 -0.4243249 
0.16360645 -0.7896476 -0.5913458 
0.14965439 -0.87826616 -0.45415 
-0.052930534 -0.9983718 0.021266237 
-0.7751235 -0.52283245 0.35472506 
-0.17782538 -0.8496213 -0.49650976 
-0.16225713 -0.87927276 -0.44783044 
0.26025265 -0.7654664 -0.588498 
0.54702103 -0.22696598 -0.80576324 
0.41987017 -0.76299465 -0.49147546 
0.51089317 -0.6875556 0.51599944 
0.11145669 -0.90975493 0.3999044 
-0.15136726 -0.15086631 0.97689676 
-0.19315027 -0.7001932 0.68732995 
-0.48918194 -0.30849198 0.8158025 
-0.34224376 -0.5390762 0.76958835 
-0.46809998 -0.5896483 0.65817726 
-0.5471032 -0.16784538 0.82006466 
-0.89771265 -0.4307167 -0.092710905 
-0.6585688 -0.48122284 -0.57854277 
-0.13228306 -0.411791 -0.901626 
-0.36639884 -0.7317135 -0.5747586 
0.089878365 -0.95684147 -0.27636278 
0.54085875 -0.8164948 -0.20201036 
0.7772656 -0.2592265 0.5732887 
0.61752814 -0.6111808 0.49509308 
0.91289705 0.29956838 0.2772684 
0.7077315 0.5155674 0.48301813 
0.34025273 -0.13474639 0.9306297 
0.27769297 -0.7511241 0.59891504 
0.60253024 -0.57505417 0.5534168 
0.23092334 -0.5583755 0.7968006 
-0.3561439 -0.21858677 0.908505 
-0.37289685 -0.4751131 0.79700404 
-0.97547996 0.0943028 0.19886152 
-0.5517612 -0.7036525 0.44769728 
0.02663714 -0.8676346 0.49648836 
-0.21572551 -0.27065206 0.93819505 
-0.4379519 -0.6963001 0.56865144 
-0.61985064 -0.7380055 0.26670805 
0.17257918 -0.98492646 0.011676834 
-0.0040133097 -0.99989045 -0.014247375 
0.06620175 -0.99766695 -0.016675355 
0.70918316 -0.69866776 -0.09446019 
0.7903395 -0.5661337 -0.23421407 
0.3779985 -0.91120464 0.16377807 
-0.003280338 -0.62257916 0.7825501 
0.38969007 -0.48331636 0.7839306 
0.63475406 -0.21100621 0.74334633 
-0.05559018 -0.3893414 0.91941446 
-0.52438456 -0.094218254 0.84625274 
0.2306462 0.46687332 0.8537164 
-0.031806625 0.53269947 0.8457066 
-0.53632224 0.5173481 0.66686547 
-0.6188518 -0.015566837 0.78535354 
0.5575375 0.8042496 0.20575368 
-0.3358371 0.79928946 0.498347 
-0.85677713 0.48121864 0.1853689 
-0.9118098 0.39919734 0.09614842 
-0.23034427 0.71034455 -0.6650956 
0.30601227 0.82498765 -0.47513372 
0.52230567 0.8268643 -0.20854807 
0.37642923 0.83338207 -0.40469152 
0.30166724 0.7775072 0.55179656 
-0.01268341 0.9998873 -0.0080357585 
0.095642306 0.9103761 0.40257677 
0.5547163 0.78225654 0.28348652 
-0.10069506 0.7648279 0.6363168 
0.009774662 0.90079975 0.43412465 
0.14899352 0.94037116 -0.3057825 
-0.019381596 0.9868987 -0.16017322 
-0.49810034 0.8607267 0.10509803 
0.15650934 0.6759501 0.72013634 
0.41679412 0.6265912 0.65853333 
0.13555841 0.45948553 0.87777966 
-0.39250952 -0.17277458 0.90337443 
-0.68183213 0.6311123 0.36986807 
-0.32617348 0.6243135 0.70981944 
-0.6536724 0.17278822 0.7367881 
-0.33802116 -0.6137002 0.71352214 
-0.6937918 -0.28506643 0.6613548 
-0.06946378 -0.9817304 -0.17714489 
-0.39465213 -0.5486595 -0.7370363 
0.2597166 -0.8397647 -0.47680447 
0.5344658 -0.3286962 -0.77865607 
0.3329697 -0.61282927 -0.71663904 
0.78669465 -0.46071115 -0.41092193 
0.847912 -0.31888032 -0.4235101 
0.4773116 -0.63965386 0.60250866 
0.37159574 -0.91509086 0.15660605 
0.5362317 -0.65461123 0.53286004 
0.8163995 -0.54272354 -0.19733962 
0.3233643 0.18420637 0.9281722 
0.20831631 0.023328135 0.9777833 
0.5679563 0.007564958 0.823024 
-0.28232113 0.2683222 0.92103094 
-0.5656213 0.72361684 0.39553925 
-0.8012235 0.5019557 -0.32570124 
-0.5341255 0.7123186 -0.45531544 
-0.30252394 0.103857376 -0.94746655 
-0.03408909 0.3493973 -0.9363544 
0.28072748 0.3983781 -0.8732051 
0.044907857 0.1009934 -0.99387306 
0.109499335 -0.21298426 -0.9709004 
0.32618952 -0.7961984 -0.50957686 
0.8075957 -0.56247044 0.17724612 
0.81144905 -0.56895936 0.13355054 
0.66622907 -0.6247251 -0.40725613 
0.93420154 -0.12251362 0.33504927 
0.7032259 0.6622999 0.25851944 
0.98748124 0.15758258 -0.006972592 
0.51682836 -0.37153104 0.77126735 
0.69802946 -0.27627054 0.6606282 
0.20920454 -0.31863892 0.9245014 
0.376092 -0.85009336 0.36864093 
-0.706694 -0.5476822 0.44791502 
0.1926934 -0.4335463 0.88028806 
0.06055964 -0.5896957 0.80535185 
-0.54405195 -0.07077044 0.8360616 
-0.08991578 0.16995633 0.981341 
-0.83795494 -0.22076727 0.49909258 
-0.87596166 -0.37599176 -0.3021943 
-0.06893611 -0.73837984 -0.6708525 
-0.06086749 -0.50752836 -0.85948247 
0.46371934 -0.72048503 -0.51562184 
0.09642079 -0.86192846 0.49777752 
-0.47170267 -0.8405959 0.26626137 
0.5220261 -0.77489996 0.3563972 
0.81013775 -0.5657652 -0.15357926 
0.35302958 -0.8403675 -0.41128165 
-0.43733475 -0.59797955 0.67168355 
-0.85707563 -0.19183484 -0.478143 
-0.7718309 -0.018574804 -0.6355565 
-0.6759959 0.039933633 -0.7358227 
-0.5592766 0.25272202 -0.7895197 
-0.53447807 0.35231215 -0.7682508 
0.10870703 0.57943803 -0.8077342 
0.2540975 -0.31788003 -0.9134478 
0.2850109 -0.54973227 -0.78521544 
0.19250944 -0.85815144 -0.47593725 
0.13912964 -0.3597101 -0.922633 
-0.061454255 -0.72973937 -0.6809581 
0.5409449 -0.19328456 -0.81854737 
0.78324825 -0.4044184 -0.472195 
0.7749815 0.34142193 -0.53182226 
0.83266973 -0.52865726 0.1648718 
0.8350793 -0.1596808 0.52644527 
0.5328909 0.30923247 0.7876564 
0.19442672 0.89557344 0.40018293 
-0.26249334 0.9473695 -0.18327111 
-0.23841654 0.8292102 -0.5055375 
0.2028669 0.4244608 -0.88242733 
0.23638864 -0.03783479 -0.97092175 
0.52413565 0.20997652 -0.8253434 
0.8117924 -0.073033795 -0.57936114 
0.45712656 0.29571992 -0.83879983 
0.5651322 0.12641867 -0.81525695 
0.4391634 -0.5383906 -0.71921563 
0.76643485 -0.62981784 -0.12612417 
0.76279193 -0.51910317 0.3855911 
0.51989657 -0.78868157 -0.32816002 
0.6799484 -0.5797922 0.4489 
0.750389 -0.61849374 -0.2331994 
0.8487404 -0.38008705 -0.36765957 
0.51188076 -0.07795475 0.85551226 
0.33088925 -0.53827864 0.77509254 
-0.08217859 0.3391649 0.9371307 
-0.05469241 0.62529707 0.77846795 
0.20072497 0.03882456 0.978878 
0.83536273 -0.039426073 0.5482835 
0.8991152 -0.21590337 0.38075933 
0.95682245 -0.28442755 0.05993167 
0.51457024 -0.5725639 0.63826966 
0.35650352 -0.075019225 0.93127733 
-0.21621299 0.33077264 0.9186085 
-0.30032167 -0.31421283 0.9005983 
-0.17741308 -0.9841251 0.0047436836 
-0.72189283 -0.69169974 -0.020550815 
0.45353562 -0.28972158 -0.8428327 
0.41779265 -0.7059286 -0.57193893 
-0.4709645 -0.5153878 -0.7159385 
-0.22257112 -0.7670399 -0.60175735 
-0.34847265 -0.7887569 -0.5063885 
-0.23290521 -0.97206056 -0.029214103 
-0.22776061 -0.8864503 0.4029033 
-0.36158717 -0.92973787 -0.06958592 
-0.70994514 0.04273232 -0.7029594 
-0.61796534 -0.25333947 -0.74427015 
-0.64552283 0.040801372 -0.7626504 
-0.8203488 0.36248544 -0.44230342 
-0.15914829 0.5514637 -0.81887716 
0.04631332 0.5822218 -0.8117099 
0.48723328 -0.23484255 -0.84110206 
0.55909234 -0.009084511 -0.8290557 
0.4092848 0.78802246 -0.45989844 
0.06327691 0.5151134 -0.8547832 
0.03577698 -0.18082915 -0.9828636 
0.25142518 0.002517297 -0.96787345 
0.5584039 -0.5239055 -0.6432015 
0.6105495 -0.78483456 0.1061325 
0.55765486 -0.7928485 -0.2457894 
0.4675245 -0.8818973 0.060646556 
0.90448064 -0.38855073 -0.17590684 
0.9447983 -0.31158057 0.10135978 
0.99359727 -0.07574537 -0.0838276 
0.8043811 -0.12934844 0.5798622 
0.5112966 -0.5140886 0.6886863 
-0.402536 0.35811427 0.8424482 
-0.43209437 0.30642134 0.8481748 
-0.24063875 -0.39213148 0.8878773 
-0.2688908 -0.11352161 0.9564573 
-0.93037236 0.36331588 -0.049080327 
-0.557397 0.31555685 -0.7679404 
-0.71326745 -0.12743832 -0.689209 
0.01599509 -0.040686198 -0.999044 