# OOMMF: rectangular mesh v1.0
# Segment count: 1
# Begin: Segment
# Begin: Header
# Desc: Time (s) :  3.850000000000002e-07
# Title: m
# meshtype: rectangular
# meshunit: m
# xbase: 2e-09
# ybase: 2e-09
# zbase: 5e-10
# xstepsize: 4e-09
# ystepsize: 4e-09
# zstepsize: 1e-09
# xmin: 0
# ymin: 0
# zmin: 0
# xmax: 1.024e-06
# ymax: 1.024e-06
# zmax: 1e-09
# xnodes: 256
# ynodes: 256
# znodes: 1
# ValueRangeMinMag: 1e-08
# ValueRangeMaxMag: 1
# valueunit: 
# valuemultiplier: 1
# End: Header
# Begin: Data Text
-0.22950062 0.8991328 0.3726791 
0.24816635 0.36049202 0.8991435 
-0.49404415 0.4793287 0.72537196 
-0.5819415 0.5086852 0.63449466 
0.36113235 0.5815715 -0.72894317 
0.3871043 0.38439202 -0.8380889 
0.42984062 -0.15665826 -0.8892106 
0.030741518 0.24697089 -0.9685352 
0.2944659 0.07667319 -0.95258135 
0.2592047 -0.44830626 -0.8554733 
-0.566245 0.09166245 -0.8191243 
0.38355044 -0.7079396 -0.59305197 
-0.046608984 -0.4083575 -0.91163135 
-0.23439921 -0.4756479 -0.84783024 
-0.3406516 -0.6499191 -0.67938334 
-0.04958635 0.19586709 -0.97937596 
0.74328005 -0.046849504 -0.6673379 
0.22036427 0.51509804 -0.8283197 
0.24786922 0.42565808 -0.87027365 
0.65672415 0.7358122 -0.16520844 
0.4471567 0.8731073 -0.19425385 
0.74858546 -0.0027140868 -0.66303277 
0.6999449 0.25234625 0.6681307 
0.13399804 0.2671021 0.95430654 
0.31495616 -0.59205717 0.7418025 
-0.17150752 -0.26082903 0.95002806 
-0.27486518 0.15923928 0.9482047 
-0.8487703 0.5143283 -0.12270046 
-0.5016573 0.626642 0.59637225 
-0.7732583 -0.1666581 -0.6117978 
-0.5865948 -0.33307528 -0.7382191 
-0.53166544 -0.846563 0.025747448 
-0.81934047 -0.41677737 -0.39367247 
0.30920875 -0.69511193 -0.64900655 
0.14024213 -0.850928 -0.50621504 
-0.50139475 -0.71153224 -0.49226543 
-0.33977175 -0.5352027 -0.77337795 
0.60600317 -0.7952887 -0.016615296 
0.5297883 -0.011269939 0.8480551 
-0.0632627 -0.2569914 0.9643408 
-0.59429675 -0.36188817 0.71822584 
-0.38066 -0.39036703 0.838279 
-0.6308167 -0.43812025 0.6404069 
-0.73295057 -0.5781079 0.35857338 
-0.92511773 -0.08767936 -0.36941782 
-0.98183113 0.18522514 -0.04122399 
-0.3990177 0.5776745 -0.7120935 
-0.9724258 0.010812877 -0.2329619 
-0.12932868 0.5856395 -0.8001879 
-0.11262495 0.88663065 -0.44855517 
-0.8158363 0.5658074 -0.11947022 
-0.90489066 0.4216057 -0.058495183 
-0.9137799 -0.26142487 -0.3109073 
-0.9831606 -0.13742882 -0.12045197 
-0.72582895 -0.44492516 -0.52460855 
-0.62461644 -0.7138668 -0.3166205 
0.09554135 -0.9911973 -0.09165107 
0.19232085 -0.9647039 -0.17988671 
0.43390048 -0.57575184 0.6929937 
0.7214583 -0.5633849 0.40261075 
0.4594358 -0.510821 0.7266228 
0.8921576 -0.22575133 0.39126885 
0.089521326 -0.3836993 0.9191087 
0.013013301 -0.87661654 0.48101386 
0.7047432 -0.5059879 -0.49730602 
0.8304867 0.28585652 -0.47809812 
0.23946069 0.93436784 -0.2638472 
0.6408466 0.73331004 -0.22709481 
0.9965355 0.027891863 0.07835226 
0.6751304 -0.35158274 0.64852804 
-0.2682636 0.9633306 -0.0053571514 
-0.70082957 0.7009018 0.13256931 
-0.90149534 0.42829552 -0.062203832 
-0.018019529 0.99566495 0.09125007 
-0.1252643 0.94159573 0.3125802 
-0.3629948 0.8196709 0.44314146 
-0.34844458 0.90773463 0.23367572 
-0.92735386 0.23771754 -0.28897303 
-0.9356496 0.04111922 -0.35052675 
-0.27760398 -0.2583073 -0.925318 
0.2542631 -0.42866153 -0.86694854 
0.35314792 0.06966523 -0.9329702 
-0.47945967 -0.67404795 -0.5619412 
-0.33816078 0.050318148 -0.93974227 
-0.6692871 -0.1739965 -0.7223435 
-0.7090435 -0.504799 -0.49237728 
-0.5043046 -0.45851812 -0.7317363 
-0.8694589 -0.3290081 -0.3685036 
-0.44084185 0.32137528 -0.83807904 
-0.4237749 0.020381482 -0.90553826 
-0.47987565 -0.21423124 -0.85077864 
-0.39235377 0.37785643 -0.83861977 
0.709755 0.50462073 -0.49153417 
0.8758819 0.4616226 -0.1404834 
0.77147096 0.48871717 0.40741652 
0.7742508 0.14774528 0.61539185 
0.0027940234 0.7825021 0.62264174 
-0.40394494 0.88214767 0.24216525 
-0.19605285 0.59989756 0.7756843 
-0.46798858 0.52433825 0.71137625 
-0.828813 0.35215175 0.43480814 
-0.992798 -0.112380944 -0.041507225 
-0.95612454 -0.28823766 -0.05239358 
-0.55651945 -0.7443498 -0.36909285 
-0.13490154 -0.52206016 -0.8421727 
0.8401563 -0.43192044 -0.32799718 
0.8106874 -0.35324323 -0.46691045 
0.31791317 -0.041282915 -0.9472206 
0.7743771 -0.18183832 -0.60603213 
0.9252389 0.3150447 -0.21137637 
0.5205041 0.3883627 -0.7604274 
0.43333226 0.8836003 -0.17740862 
0.3624734 0.17629513 -0.91516834 
0.5034188 -0.5384028 -0.6757899 
0.44864336 0.5045935 -0.7376344 
0.93709296 0.28105223 -0.20704211 
0.9371005 0.113014854 0.33025807 
0.384626 0.4668897 0.7962895 
-0.37319517 0.69620246 0.613211 
-0.3419278 0.9198945 -0.19204034 
-0.4118921 0.66883177 0.61887735 
0.36969087 0.53279555 0.7612211 
0.28970644 -0.13605435 0.94739616 
-0.11780513 -0.4419281 0.8892816 
0.38257557 -0.39620334 0.83466095 
-0.50260586 -0.31882927 0.8035765 
-0.6666258 -0.706079 0.23887765 
-0.9761424 -0.17614512 0.12696005 
-0.8041796 0.46209934 0.373844 
-0.8358974 -0.013115138 -0.5487291 
-0.16926953 -0.43390834 -0.8849133 
-0.79152083 -0.6093592 -0.046649467 
-0.97551656 0.059390556 -0.21175522 
0.09216561 -0.97161865 -0.21785961 
0.0070949695 -0.50206155 -0.86480284 
0.7434479 -0.41151813 -0.52719843 
0.7837994 0.6203963 -0.02769142 
0.8679424 0.4525972 0.20452853 
-0.116901286 -0.71154445 -0.69284815 
0.29442742 -0.42198542 -0.85746187 
0.8842471 0.09956378 -0.4562831 
0.99836063 -0.0036604118 0.05711968 
0.9810362 -0.019245228 -0.19286682 
0.53301275 -0.8460789 0.0069329925 
0.966638 -0.20949946 -0.14737992 
0.93187356 -0.3619944 -0.023912685 
0.8594672 0.50821245 0.055103783 
0.46796423 0.8837269 -0.006036692 
-0.36492127 0.5528611 0.74911755 
-0.34768245 0.4405427 0.8276709 
0.099979125 -0.38491866 0.91751933 
-0.6602239 0.36745435 0.65504324 
-0.9844908 -0.0365711 0.1715823 
-0.968797 -0.21570747 0.12207682 
-0.9793863 -0.15448414 -0.13014297 
-0.37495515 -0.72467494 -0.5781478 
0.631557 -0.2304415 -0.74029225 
0.82269627 0.0036492439 -0.5684696 
0.6220934 0.25018188 -0.74189556 
0.13236974 0.13944708 -0.9813424 
0.32452127 0.09797847 -0.9407902 
0.33402127 0.6707811 -0.66218024 
0.1944474 0.9384088 -0.28562087 
0.36512324 -0.055168092 -0.92932314 
0.5498172 0.77972984 -0.2995369 
0.60269564 0.76444817 0.22886029 
-0.23731007 0.7472619 0.6207123 
-0.5258657 0.84432125 -0.10289288 
-0.504532 0.28968233 0.81334597 
-0.8928811 0.11377658 0.43568146 
-0.5719426 -0.10974457 0.8129193 
-0.9813954 0.15308596 0.115878284 
-0.7414018 0.4720296 0.4769816 
-0.8317129 0.22763002 -0.5063974 
0.25664657 -0.39426863 -0.8824312 
0.18433346 -0.00968116 -0.9828161 
0.056596585 -0.32406086 -0.9443418 
0.3686362 -0.6253508 -0.6877819 
0.9460101 -0.14151599 0.2916129 
0.8283716 -0.55994093 0.016335096 
0.9871033 -0.11629167 -0.11001542 
0.7197825 0.27833706 0.6359573 
0.55255306 0.8280091 0.095320754 
0.8660662 0.36313564 -0.34360144 
0.9747071 0.09509875 0.2022434 
0.3066789 0.786273 0.536398 
0.89013046 0.45028746 -0.07006417 
0.39776325 0.912392 -0.09656702 
0.41669545 0.82864016 0.37379187 
0.022448955 0.68659586 0.7266926 
-0.2472257 0.87044847 0.42567465 
-0.45079467 0.8670012 -0.21235153 
-0.10272646 0.9725755 0.20867266 
-0.8897893 0.31491077 0.33031252 
-0.72001225 0.05725709 -0.6915953 
-0.6473736 0.5643097 -0.5123104 
-0.81318116 -0.50701016 -0.28579205 
0.037455436 -0.43425968 -0.9000088 
-0.23342085 -0.9470737 -0.22037704 
0.17986505 -0.47680834 -0.8604083 
0.732797 0.4318411 -0.5258535 
0.8990823 0.43698594 0.026348438 
-0.40515247 0.53933156 -0.73822296 
0.1495185 0.21482918 -0.96513873 
0.9875889 0.050180722 -0.14882891 
0.8796448 -0.002265324 0.47562596 
0.54772323 0.51947975 0.65585065 
-0.34824744 0.7458071 0.56788695 
-0.622537 -0.05188307 0.7808686 
-0.84506273 0.4795429 0.23644803 
-0.47947687 0.5032163 -0.7189404 
0.47683403 0.7987094 -0.36700523 
0.5875832 -0.31111532 -0.7469628 
0.8908137 0.3743868 -0.25746 
0.7203118 0.6936479 -0.0018755235 
-0.15650591 0.5633241 -0.811278 
-0.7832694 -0.100244656 -0.6135471 
-0.89852697 -0.25534874 -0.3569965 
-0.11502451 -0.25666302 -0.95963204 
-0.23420994 0.04125329 -0.9713105 
0.15034789 -0.16988099 -0.9739282 
-0.22985962 0.11447033 -0.96646845 
0.026982293 0.7269808 -0.68612754 
-0.24710533 0.19582893 -0.9489942 
0.5675287 0.6479929 -0.50795317 
-0.08960229 0.986494 -0.13711722 
-0.34209603 0.7260038 0.5965643 
-0.17845821 0.9807079 -0.07977994 
0.22006246 0.97057885 0.097720474 
0.40038824 0.6881803 -0.6050597 
0.29113775 0.79046273 -0.5388948 
0.19205488 0.2740957 -0.94233036 
0.46459723 0.012431424 -0.88543487 
0.8227967 -0.35045388 -0.4474234 
0.31373432 0.0029422513 -0.9495063 
0.40142202 -0.20410767 -0.89286083 
0.58986866 -0.47065687 -0.65615326 
0.9933635 0.06796126 0.0927914 
0.8391578 0.51494014 -0.17507367 
0.3524187 0.2775894 0.89372545 
-0.12030396 0.70545596 0.6984689 
0.19505128 0.19383787 0.96144783 
-0.14387877 -0.5347567 0.832667 
-0.40546387 -0.8869339 -0.22124039 
-0.17192611 -0.90808314 -0.3818723 
-0.83581614 -0.49384114 -0.23985913 
-0.3954669 -0.05364297 -0.9169125 
-0.3556569 -0.8862109 -0.29688144 
-0.030637065 -0.019522648 -0.99933994 
0.3617887 0.0892252 -0.9279805 
-0.2788792 0.07183412 -0.9576358 
-0.22999361 -0.068088144 -0.97080743 
0.4046034 -0.8730719 -0.27210557 
0.800267 0.34115243 0.49314085 
0.20335065 0.77728593 0.5953782 
0.40712732 0.9124299 0.041460197 
-0.5672243 0.76637393 0.30154198 
-0.056252092 -0.02519962 0.99809855 
-0.652672 -0.290667 0.69966567 
-0.51359004 0.65426904 0.5551193 
-0.19661193 0.91688764 0.3473627 
0.65191936 0.27980122 -0.7047783 
0.16031836 0.7765268 -0.6093473 
-0.94117564 -0.26837185 -0.20534115 
-0.7326168 0.62518495 -0.26910317 
-0.90536153 0.33865842 -0.2561854 
-0.82419395 0.5581537 0.09575417 
-0.18366192 0.74040437 -0.64658314 
-0.8489571 -0.4463864 -0.28286207 
-0.6312705 -0.47484165 -0.61320716 
-0.35352743 -0.5602177 -0.7491158 
0.25058982 -0.30454695 -0.9189428 
0.9381035 -0.08946232 -0.33460194 
0.4707863 0.21030076 -0.85681623 
0.75518036 0.28990126 -0.5879284 
0.4278358 0.88092756 -0.20229453 
0.5831026 0.8052714 0.10737469 
0.75430304 0.43280706 -0.49366504 
0.9691101 -0.22940408 -0.09055123 
0.60110444 -0.13686138 0.7873642 
0.6614486 0.27300608 0.69853675 
-0.7558157 -0.5188061 0.3994784 
-0.9465195 -0.2194636 0.23650935 
-0.9173921 0.09232765 0.38712722 
-0.89156294 0.34021717 0.2989444 
-0.9929498 0.004987018 0.11843089 
-0.37473744 -0.9160471 -0.14293236 
-0.77337927 -0.50072306 0.3887943 
-0.5995504 -0.685253 -0.4134824 
-0.6653053 -0.6863704 -0.29370838 
-0.6530692 -0.06728118 -0.75430363 
-0.7845695 -0.35465318 -0.5085981 
-0.5978747 -0.80108505 0.028435914 
0.39581984 -0.58895296 0.70460004 
-0.058666375 -0.40787256 0.91115224 
0.0030767387 -0.27514812 0.96139693 
-0.7916263 0.36256683 0.49180615 
-0.5879794 -0.2300253 0.77547956 
-0.8370519 -0.5403946 0.08554359 
-0.6755265 0.124702044 -0.7267141 
-0.6875969 0.43615428 -0.5804998 
-0.0027790954 0.5097265 -0.86033213 
-0.08925453 0.845009 -0.5272509 
-0.19833219 0.93952674 -0.27920234 
-0.1286589 0.87647706 0.46393424 
-0.49413568 0.83714134 -0.23457251 
-0.36166644 0.7130686 -0.60060865 
-0.26622927 0.6889821 -0.67411107 
-0.61351734 0.18654871 -0.7673306 
-0.7943603 0.3059575 -0.52476853 
-0.6570799 -0.4373536 -0.6139772 
-0.9184996 -0.01854253 -0.39498723 
0.4375199 -0.41555545 -0.79742706 
0.5309835 -0.67628115 -0.5105883 
-0.10293024 -0.87047005 -0.48133928 
0.6548901 -0.71280074 0.25106612 
0.6896058 -0.71742386 -0.09872641 
0.48113897 -0.8495401 -0.21630305 
-0.31364807 -0.9318206 0.1825799 
0.16617192 -0.9603135 -0.2240199 
0.4686133 -0.7489134 -0.46854067 
0.09261486 -0.55929625 -0.82377803 
0.8776625 0.21314989 0.42927352 
0.6372544 -0.4811026 0.6020358 
0.5269453 -0.40670377 0.7462712 
0.77857375 -0.04139353 0.62618655 
0.22659057 0.65739006 0.718676 
-0.47900137 0.8478514 0.22738904 
-0.5507493 0.71155345 0.43631056 
-0.53906626 0.6692338 0.5114038 
-0.22166103 0.91312593 0.3421513 
-0.06805454 0.7651451 0.6402511 
-0.22414824 0.5384273 0.8123138 
-0.9011676 0.32922563 0.2819708 
-0.9493036 0.2890403 0.12360554 
-0.7471706 -0.03125746 -0.6638969 
-0.39513466 -0.34607783 -0.8509399 
-0.473956 -0.17210129 -0.86356646 
-0.8135693 0.026147654 -0.5808798 
-0.884584 0.041282643 -0.4645504 
-0.8517173 0.01574913 -0.5237649 
-0.3890829 0.07548346 -0.918105 
0.10532438 0.60038584 -0.79274434 
-0.9390768 0.0130222235 -0.3434609 
-0.6872828 0.66893065 -0.28315055 
-0.7434906 0.50163525 -0.4422488 
-0.045427296 0.54879946 -0.83471894 
-0.16222945 0.7610828 -0.6280403 
-0.36180633 -0.09756953 -0.9271335 
0.03660298 0.39746785 -0.9168858 
0.91013503 -0.02108689 -0.41377467 
0.67161864 -0.044768054 0.7395433 
0.51872766 0.39144504 0.76006085 
0.29741076 0.71209514 0.63597757 
-0.3546396 0.6523893 0.6697902 
-0.48151866 0.6496548 0.58829284 
-0.49232182 0.17873105 0.8518653 
-0.3523114 0.4402203 0.8258831 
-0.61243093 -0.052743122 0.78876275 
-0.93263406 -0.16664548 -0.32003605 
-0.35168034 -0.65638536 -0.6674423 
-0.16788574 -0.44346705 -0.8804269 
0.36011228 -0.3817176 -0.8512408 
0.6425051 0.30645695 -0.70233285 
0.63802505 -0.69700205 -0.32728004 
0.25825968 -0.57118213 -0.77913606 
0.50135297 0.8256668 -0.25868803 
0.74919885 0.6433467 0.15749949 
0.43595847 0.8815867 -0.18095648 
0.7967827 0.41047737 -0.44344783 
0.5560727 0.6452048 -0.52392185 
0.9205438 0.19073953 0.34090686 
0.788742 0.45748213 0.4106046 
0.6990546 0.5777943 0.42127964 
0.57804173 0.50238544 0.6430216 
0.6651658 0.66873616 0.33218455 
0.5038592 0.6750357 0.53893673 
0.7300253 0.6728789 0.1195704 
0.3387404 -0.07051557 0.93823373 
-0.07903413 -0.450201 0.8894227 
-0.17225774 0.32397413 0.9302516 
-0.17620853 0.4686162 0.8656497 
-0.6478516 0.6770529 0.34912422 
-0.7695885 0.593373 -0.23588598 
-0.5143041 -0.48589554 0.7066801 
-0.9122807 0.20167042 -0.35647315 
-0.88340133 -0.24411802 -0.40001082 
-0.8579285 0.3557233 -0.37070167 
-0.94168526 -0.19643542 -0.27320692 
-0.12370023 -0.6687065 -0.73316437 
-0.14534782 -0.19531095 -0.9699112 
0.35334447 -0.18316275 -0.91738707 
0.7974355 0.23727466 -0.554795 
0.73552704 0.67042774 -0.09760503 
0.5588513 0.21205443 -0.80169713 
0.17343463 0.7272717 -0.6640757 
0.57500887 0.27015802 -0.77225614 
0.97042406 0.13964589 -0.19691673 
0.9244806 0.3811392 0.008274988 
0.9241053 0.08576425 -0.37238947 
0.9690845 -0.24087535 0.053425886 
0.71805614 -0.34447914 0.60475576 
0.9459611 0.26267263 -0.19015938 
0.31504723 0.7012412 0.63953584 
0.2944227 0.21558891 0.9310407 
-0.46985912 -0.29613647 0.83158624 
-0.5467724 0.24721041 0.79995435 
-0.6445658 0.63657653 0.4234446 
-0.8353454 0.5452503 -0.0700024 
-0.82384634 0.5186006 -0.22875887 
-0.9597986 -0.2794871 -0.025958216 
-0.18829332 -0.7876072 -0.5867031 
0.40421477 0.012050994 -0.91458476 
0.5981071 0.06477193 -0.7987944 
0.7735032 -0.18009114 -0.60766774 
0.72499406 0.21135531 -0.6555246 
0.8701327 0.46986228 -0.14865625 
0.77695596 0.11954008 0.6181017 
0.62986076 0.65203995 0.42204204 
0.6255786 0.5991097 -0.49971902 
0.12702338 0.6336468 0.7631231 
0.5932525 0.3562925 0.7218776 
-0.10509643 0.15352495 0.98254 
-0.18510364 0.9391712 0.2892994 
-0.9037997 0.10994266 0.41359252 
-0.50984603 -0.18261197 0.84066045 
-0.8895478 0.35406777 0.28868803 
-0.5057262 0.082762755 0.8587149 
-0.94051725 -0.31589514 -0.12505086 
-0.9838584 0.10780143 -0.14283426 
-0.84551084 -0.5286628 -0.07501449 
-0.36678526 -0.12165586 -0.92231685 
0.38279423 -0.13378489 -0.9140953 
0.017491145 -0.42678794 -0.9041826 
0.45893908 -0.5399531 -0.70556766 
0.25177646 -0.3945301 -0.8837164 
0.4317826 -0.7157872 -0.54882836 
0.85244334 0.21051149 0.47856587 
0.5472267 0.80306065 0.23587392 
0.6494189 0.758673 -0.05167606 
0.9459284 0.3198362 0.054076903 
0.76105535 0.6348337 0.13334602 
0.5485845 0.2547756 0.79633194 
0.70838326 0.68092 0.18585251 
0.1948619 0.4824015 0.854001 
0.57122624 0.62496394 0.53209096 
0.7371472 0.6629955 0.13057944 
-0.19984515 0.82896703 0.5223751 
-0.37683463 0.9243772 -0.059351064 
-0.7328406 0.6736255 0.09577785 
-0.46502778 0.73355335 -0.49562955 
-0.0426599 0.9983307 -0.03893595 
-0.4249764 0.40022177 -0.8119222 
0.27390462 -0.37431043 -0.88592774 
0.13656646 -0.61056507 -0.7801025 
0.58748794 -0.32401723 -0.7415328 
0.5872495 0.5254164 -0.61569124 
-0.024596881 0.9659784 -0.25745082 
0.6207035 0.74149936 -0.25476635 
0.67027366 0.45268694 -0.5880543 
0.9209709 0.23436342 -0.3112658 
0.8425845 0.53675133 0.044151 
0.118583575 0.098391876 0.98805726 
-0.35375953 0.47555095 0.8054226 
-0.4154741 0.60579824 0.6785203 
0.17500514 0.98258626 0.062430747 
-0.054753542 0.98274565 0.17667204 
0.29154316 0.92118835 -0.25771034 
0.043430742 -0.021726463 -0.99882025 
0.040893286 0.9988293 0.025840066 
0.51248896 0.82463884 0.23942831 
-0.5284423 0.84811974 0.0379689 
-0.6560181 0.7098972 0.25629348 
-0.84415907 -0.20281017 -0.4962495 
-0.3905645 0.14997146 -0.9082775 
-0.7313832 0.3849332 -0.5629432 
-0.46780872 0.2575613 -0.8454687 
-0.7980487 0.51266193 -0.3166957 
-0.6623456 0.42957112 -0.6138135 
-0.40166253 0.87993044 -0.2537514 
-0.06007989 0.81728095 0.57309896 
0.28790113 0.8799744 -0.37783355 
0.31903654 0.855885 0.4070339 
0.27754882 0.8208474 -0.4991757 
0.31094772 0.89585096 -0.31743115 
0.22026536 0.8738873 -0.4333639 
-0.14813644 0.43764305 -0.8868621 
0.15067875 0.66109043 -0.73502076 
0.6497487 0.4703725 -0.5971402 
0.6180649 0.5541817 -0.55756485 
0.4736824 0.6770559 -0.5632231 
0.8873839 0.42959186 -0.16733383 
0.715445 0.36229157 -0.59739715 
0.8227458 0.3402891 0.4552942 
0.45427316 0.50191313 0.73601574 
0.03166238 -0.5952831 0.80289197 
-0.22121407 -0.025848547 0.97488266 
0.10480516 -0.043221153 0.9935532 
-0.2671574 -0.9134719 0.3069141 
0.2548842 -0.95017934 0.17942479 
-0.6154225 -0.7466078 -0.25264987 
-0.43622667 -0.23567261 -0.86842656 
-0.3437687 0.25940263 -0.90251505 
0.36541325 -0.33039582 -0.8702367 
0.8356889 -0.0045624776 -0.54918414 
0.66927713 -0.024876291 -0.7425963 
-0.22569646 -0.3729307 -0.89999104 
-0.4473383 -0.33128205 -0.83074707 
0.40800497 -0.78855896 0.4601159 
0.65696347 0.10061873 0.747178 
0.38690075 0.711797 0.5862192 
0.19340424 0.71641773 0.67032874 
0.42029095 0.5836886 0.6947396 
-0.51299816 -0.07628015 0.8549937 
-0.39222214 0.44918814 0.8027402 
-0.25380623 0.8235165 0.5073491 
-0.81275666 -0.14176668 0.5650918 
-0.6928757 0.62802607 -0.35426915 
-0.6786249 0.4379717 -0.5896178 
-0.84997976 -0.1841998 -0.4935636 
-0.99439853 -0.08943757 -0.056326125 
-0.8264861 0.08008041 0.55723226 
-0.94519126 -0.3214941 0.05705392 
-0.5957782 0.67102325 -0.44133455 
-0.67161965 -0.13259636 -0.7289344 
-0.83377004 -0.16513085 -0.5268391 
-0.14884341 -0.035652798 -0.98821783 
-0.7429022 0.60124785 -0.29427445 
-0.26068044 0.21538943 -0.9410914 
0.7145653 0.6157709 -0.3319983 
0.78292185 0.3274194 -0.52898943 
0.6537173 0.60591257 0.4533473 
0.6782077 0.3218903 0.66062176 
0.43497694 0.9004202 0.006217933 
0.63725424 0.23932832 0.7325497 
-0.07611127 -0.13300233 0.98818904 
0.037051592 -0.1323008 0.99051696 
-0.3657398 -0.076677136 0.9275533 
-0.74148935 -0.56275886 0.36537126 
-0.92752445 -0.21227832 -0.30763012 
-0.70202327 0.55387527 -0.44764444 
-0.7877666 0.2413197 -0.5667352 
-0.69230294 -0.6818308 -0.23626994 
-0.5922364 -0.78726786 -0.17165527 
-0.45965877 -0.8818606 0.10505129 
0.46491045 -0.8406088 -0.27791265 
0.30023256 -0.9055337 -0.2997822 
0.78966993 -0.50366664 0.35034484 
0.9752045 -0.18668461 0.118849315 
0.007667093 -0.9962459 -0.08622838 
-0.39492974 -0.72135556 0.56892586 
0.06466912 -0.21299073 0.9749117 
-0.9029158 -0.3851846 -0.19072488 
-0.4195735 -0.83459693 0.35693994 
-0.6717256 -0.62884337 -0.39158762 
-0.94730675 -0.05113271 -0.3162206 
-0.52818793 0.37993234 -0.75938714 
0.33785793 0.44511682 -0.82929075 
0.15648879 0.9843681 -0.08081273 
0.38746554 0.75442594 -0.52982277 
0.4213173 0.8919603 0.16400808 
-0.37879705 0.6604502 0.6483197 
-0.38688722 0.8862949 0.2545578 
-0.8924142 0.29408702 -0.34221327 
-0.8415491 0.3406028 -0.4192671 
-0.7179187 0.3278261 -0.6141032 
-0.95644176 0.1207251 -0.26579055 
-0.5433232 -0.5544611 0.6303752 
-0.44412804 -0.5310587 -0.7216141 
-0.56924516 -0.6130227 -0.5478716 
0.22342984 -0.66657794 -0.71116316 
0.24051929 -0.9660633 -0.09419253 
-0.29701343 -0.806676 -0.5109375 
-0.13445659 -0.9618526 -0.23824587 
-0.22454748 -0.8802859 0.4179414 
0.17383449 -0.96599895 -0.19138335 
-0.47100195 -0.84711534 -0.246075 
-0.087350965 -0.63715583 -0.7657692 
0.31751993 -0.8785101 0.356933 
0.112230085 -0.87055796 0.4790964 
0.47942388 -0.7111596 0.51420313 
0.37139532 -0.39501324 0.8402559 
-0.24996267 0.56523633 0.7861467 
0.2716498 0.95249623 -0.13768594 
-0.23842336 0.66599214 0.70683014 
-0.23245463 0.8705187 0.4337767 
-0.0037325744 0.6831676 0.73025215 
0.020809865 0.9519662 0.3054955 
-0.09466598 0.9878764 0.123039685 
-0.33468398 0.893108 0.30057403 
-0.7236401 0.6840291 0.09192028 
-0.8943414 0.34171748 -0.2887608 
-0.7547409 0.39350817 -0.52489763 
-0.70942706 0.41637236 -0.56863636 
-0.9228112 -0.35451323 0.15079723 
-0.88702446 0.35885593 -0.29053402 
-0.63625383 -0.14191598 -0.75831455 
-0.4874899 0.41260177 -0.7694891 
0.19676849 0.90721464 -0.37181148 
-0.07925051 0.480307 -0.8735128 
-0.09529431 0.8033641 -0.5878139 
-0.7715984 0.43645567 -0.46275526 
-0.195683 0.03711308 -0.97996473 
0.22552405 0.7330831 -0.64166045 
0.5060495 0.67225057 -0.5403639 
0.3460327 0.4154177 -0.8412428 
0.18515803 0.8287737 -0.5280633 
0.61008865 0.6204803 0.49274343 
0.121446855 0.45916885 0.8800083 
0.50745326 0.59021133 0.62780726 
0.19501129 0.36266002 0.91128945 
-0.26612917 0.4885425 0.83096427 
-0.47662294 0.3436803 0.8091443 
-0.98272586 0.18156551 0.035830785 
-0.89826286 -0.40425646 -0.17233889 
-0.7892604 -0.25928876 -0.55663055 
-0.31093034 -0.36590806 -0.8771737 
-0.048620526 -0.6172916 -0.78523064 
0.3385499 -0.6342159 -0.6950929 
0.855332 0.021584285 -0.51763064 
0.86645406 -0.32265142 -0.38099006 
0.6628679 -0.6864226 -0.29904884 
0.9953945 -0.09252037 0.02509807 
0.119254276 -0.07354543 0.9901361 
0.7622608 -0.49603075 -0.415827 
0.70120424 -0.3996423 -0.5904225 
0.96592695 0.2296275 -0.11940011 
0.7120707 -0.5356133 0.45395353 
0.65246725 0.66119134 0.37028703 
0.70080245 0.44682232 0.5560808 
0.85130125 -0.20594595 0.4825686 
0.68840307 0.34607393 0.6374435 
0.325638 0.5065749 0.7983368 
0.3448681 0.41085562 0.8439572 
0.16869506 0.1425128 0.9753113 
0.26208207 0.31902686 0.910788 
0.24604514 -0.5825339 0.77467155 
0.48032033 0.660592 0.57698417 
-0.5892512 0.17552996 0.7886522 
-0.83280164 0.20502199 0.5142058 
-0.8179525 -0.12926205 0.5605757 
-0.73525023 0.6212634 -0.27099627 
-0.66013324 0.6581275 -0.36206678 
-0.37529513 0.8790461 -0.2939927 
-0.6793151 0.33868438 -0.6510176 
-0.48378673 -0.40182468 -0.77748775 
-0.6151608 0.15434545 -0.773146 
0.6022958 -0.24376406 -0.760144 
0.25883895 0.6980967 -0.66758037 
0.42052355 0.8470419 -0.32508475 
0.21224959 0.696979 -0.6849602 
0.32195163 0.18833773 -0.92783415 
0.34410712 0.43640652 -0.8313481 
0.8701321 0.16229792 -0.46532723 
0.5276298 0.6166836 0.58421594 
0.22438633 0.39014202 0.89299494 
0.5702421 -0.4466091 0.6894667 
0.3837587 -0.23015384 0.8942923 
0.5974579 0.26530322 0.75674194 
0.5413169 0.14306647 0.8285578 
0.1042515 0.14619449 0.9837474 
-0.13335301 0.8567321 0.49822396 
-0.32302544 0.3950447 0.8599966 
-0.5572002 0.458684 0.6921972 
-0.65979373 0.7406522 0.12691149 
-0.99139017 0.12845252 0.02540779 
-0.9195281 0.18669933 -0.3458488 
-0.41670173 0.13977237 -0.8982334 
-0.37109664 -0.34885558 -0.8605737 
0.61605173 0.21565816 -0.75760937 
0.25593156 0.54253983 -0.8000935 
0.16630813 0.35931003 -0.9182799 
0.5958002 0.3066224 -0.742297 
0.8166143 0.16110927 -0.5542426 
0.61989444 0.58468777 0.52332705 
0.92110986 0.19014406 -0.33970872 
0.71720445 0.597248 0.3590441 
0.73832726 0.59733665 0.31314838 
0.42356777 0.06432615 0.9035777 
-0.19738628 0.25662485 0.94614077 
-0.07173491 -0.14402005 0.9869714 
-0.496544 -0.43694696 0.75001425 
-0.6223603 -0.4777333 0.62003124 
-0.7669364 -0.47815534 0.42799073 
-0.727377 -0.6855674 -0.030333139 
-0.9642496 -0.06907563 0.25583488 
-0.92004204 -0.14378436 -0.36448413 
-0.4993185 0.5113812 -0.69940716 
0.3436097 -0.0075523574 -0.9390822 
0.049010556 0.076745704 -0.9958455 
0.7887531 -0.01567276 -0.61451024 
0.597829 -0.02690668 -0.8011721 
0.41668153 0.2554634 -0.8724191 
0.99997586 -0.00649234 -0.0024767113 
0.40886858 0.22549476 0.8842956 
0.8171978 0.26516992 0.5117349 
0.75982916 -0.47135264 0.44775704 
0.5739889 0.074954234 0.8154254 
0.44462267 0.41792423 0.79224366 
0.44823426 0.7277304 0.5191286 
0.780939 0.6028395 0.16345932 
0.7129145 0.23246723 0.661598 
0.21405086 0.2826677 0.93503004 
0.44540495 0.6295781 0.6365893 
0.2669543 0.8402134 0.47199252 
-0.2044129 0.6700517 0.7136148 
-0.49842593 0.6269465 -0.5987568 
0.15974309 0.63913625 0.75232106 
-0.48377284 0.49988386 -0.7183871 
-0.6468191 -0.006823975 -0.76261294 
-0.33169082 0.46469232 -0.8210009 
0.4130319 -0.59649396 -0.68818575 
0.95222235 0.11470143 -0.28304797 
-0.01997238 0.79510176 -0.60614717 
0.5226366 0.25940463 -0.81213325 
0.5273261 0.63583624 -0.56359524 
0.9308123 0.25703442 0.2598497 
0.70052564 0.6285619 0.3378961 
0.28865036 0.024438854 0.9571227 
0.06667835 -0.116397835 0.9909619 
-0.058083232 0.75588864 0.6521187 
-0.14202556 0.6740187 0.7249328 
-0.7367682 0.5754213 0.35505366 
0.4843253 0.8731789 0.054661352 
-0.037773687 0.9987914 -0.03144577 
0.4974533 0.8136602 0.30082804 
0.3236477 0.7004775 0.6360688 
-0.7393096 0.2907477 0.6073608 
-0.25736117 0.93637025 0.23869684 
-0.612223 0.78523856 -0.092647076 
-0.9961599 0.077156045 -0.04138153 
-0.6837588 0.13445306 -0.7172143 
-0.26494512 -0.29823 -0.91698587 
-0.32565668 0.6671256 -0.6699935 
-0.081502624 0.9469227 -0.31095794 
-0.447059 0.8892088 0.097190805 
0.08100149 0.9458812 0.31424147 
0.22912069 0.9557458 -0.18453658 
0.3411327 0.917575 -0.20416844 
0.3004284 0.6928759 0.655489 
-0.23262775 0.95864993 -0.1639353 
-0.7537646 0.5759839 -0.31635666 
-0.20519029 0.8461492 -0.4918624 
0.47422835 0.4528618 -0.7549993 
0.6089956 0.7652199 -0.20871727 
0.26523417 0.9453135 -0.18982458 
0.50419205 0.84784055 -0.16418499 
0.8426234 0.4673051 -0.26760396 
0.30806357 0.9214766 -0.23659629 
0.37128878 0.53668034 0.75770646 
-0.25241724 0.08507561 0.9638712 
-0.23132333 -0.6403593 0.73241353 
-0.4372852 -0.5418723 0.71774375 
-0.32965532 -0.8666608 -0.37446836 
-0.32107493 -0.93106735 -0.17327629 
-0.103369616 -0.8816133 -0.46051356 
-0.9572889 -0.2859965 0.04247471 
0.088378794 0.480707 -0.8724162 
-0.8767668 0.41582432 -0.24159928 
-0.096514784 0.48143673 -0.8711507 
0.13133119 -0.035776213 -0.99069285 
0.30429125 -0.4741076 -0.82621354 
0.21838003 -0.9321063 -0.28894317 
-0.16204526 -0.9784441 0.12801743 
0.7001897 -0.6974637 0.15257421 
0.98983324 -0.14189231 -0.009835663 
0.87530994 0.44420558 0.1910865 
0.1609517 0.42077845 0.89277095 
0.6519683 0.60777575 0.4533718 
0.2502784 0.3848376 0.8884036 
-0.0134300105 0.14209944 0.9897613 
-0.4248685 0.66090024 0.61862564 
-0.18136497 0.5336621 0.8260215 
-0.65529025 0.7426836 -0.1378983 
-0.69715273 0.25766978 -0.66901743 
-0.800766 -0.10614025 -0.5894983 
-0.84118444 0.009025571 -0.540673 
-0.7417694 0.35381407 -0.5697314 
-0.8846776 -0.011973132 -0.4660496 
-0.8763742 0.16347422 -0.4530392 
-0.59547824 -0.2559495 -0.7615087 
-0.14104852 -0.059895404 -0.9881893 
0.27797022 -0.2593344 -0.92492074 
0.31168082 -0.4700734 -0.8257639 
0.41551286 0.67416716 -0.6106127 
0.9050758 0.31856224 -0.28170174 
0.8753735 0.47679362 0.07993186 
0.8959833 0.2616508 0.3588217 
0.45987394 0.28430805 0.8412402 
0.34755218 0.8800824 0.32351556 
0.6970871 0.6526429 0.2968619 
0.014743023 0.9692274 0.24572551 
-0.26009887 -0.14870742 0.9540622 
-0.6596211 -0.5627621 0.4981957 
-0.93101954 -0.12591971 0.34255955 
-0.96273303 0.15619789 0.22078806 
-0.83978784 -0.5043448 0.20097944 
-0.48071578 -0.8470085 -0.22691187 
-0.43656576 -0.6461108 -0.62606007 
-0.25072262 -0.25561455 -0.933702 
0.09214998 -0.90585166 -0.41345054 
0.6696289 -0.6379988 -0.38020343 
0.6629702 -0.72311854 -0.19383013 
0.6089347 -0.7181536 0.3368294 
0.716409 -0.6694826 0.19634466 
0.50623417 -0.8621945 -0.018649366 
-0.0046560857 -0.6083089 0.79368675 
-0.42169175 -0.39210248 0.8175769 
-0.71752214 -0.69646794 -0.009718077 
-0.4385973 -0.77979195 -0.44671804 
-0.69401467 -0.67949784 -0.23796298 
-0.47830713 -0.12835836 -0.8687614 
0.029298238 0.456036 -0.88947904 
0.65945756 0.64000493 -0.39434686 
0.16892673 0.95455873 0.2455229 
0.016532995 0.9927309 0.119214766 
0.499246 0.8149545 0.29428297 
-0.013573231 0.9834895 0.18045601 
-0.5198171 0.5554918 0.6490139 
-0.51070327 0.8456129 0.15530968 
-0.79532015 0.4651072 0.38876894 
-0.83781195 0.42177415 0.34666687 
-0.87192196 -0.2542818 0.4184412 
-0.8984176 0.14501116 -0.41450903 
-0.67338777 0.5256374 -0.51985985 
-0.6785295 -0.66255295 -0.3172086 
0.07827931 -0.52006745 -0.8505306 
-0.51390827 -0.7599095 -0.3980401 
0.08282038 -0.8771424 -0.4730349 
-0.6159098 -0.7701769 -0.16577916 
-0.8108086 -0.57244 -0.12207352 
-0.13844682 -0.8397006 -0.52510506 
-0.49087325 -0.8419386 -0.22401515 
-0.23942281 -0.7897888 -0.56472164 
0.18947224 -0.981729 -0.01756916 
0.683203 -0.72291255 -0.10310767 
-0.13133566 -0.9483956 0.288612 
0.053197376 -0.617148 0.7850467 
0.24381086 0.54988974 0.79886013 
0.42911014 0.7200658 0.5453164 
0.22289845 0.07855862 0.9716712 
0.34024042 0.70377564 0.62364775 
-0.16985352 0.24793012 0.9537717 
-0.88503796 0.45711532 0.088053614 
-0.26406458 0.7311382 0.62905234 
-0.79989594 0.5088243 0.31822073 
-0.8577371 0.32984713 0.39431965 
-0.62730867 0.4638478 -0.625563 
-0.22914077 0.96941316 0.08793533 
-0.55572116 0.6868252 -0.46844974 
-0.89082056 -0.33603132 -0.30581325 
-0.56995 -0.09848675 -0.81575567 
0.33976108 0.077391766 -0.9373222 
-0.24556203 0.7096694 -0.660355 
-0.28051582 0.68425095 -0.6731357 
0.060232393 0.802416 -0.5937177 
-0.22038572 0.9574827 -0.18616429 
-0.35698318 0.61058253 -0.7069314 
-0.30030066 0.33382913 -0.8935198 