# OOMMF: rectangular mesh v1.0
# Segment count: 1
# Begin: Segment
# Begin: Header
# Desc: Time (s) :  4.120000000000003e-07
# Title: m
# meshtype: rectangular
# meshunit: m
# xbase: 2e-09
# ybase: 2e-09
# zbase: 5e-10
# xstepsize: 4e-09
# ystepsize: 4e-09
# zstepsize: 1e-09
# xmin: 0
# ymin: 0
# zmin: 0
# xmax: 1.024e-06
# ymax: 1.024e-06
# zmax: 1e-09
# xnodes: 256
# ynodes: 256
# znodes: 1
# ValueRangeMinMag: 1e-08
# ValueRangeMaxMag: 1
# valueunit: 
# valuemultiplier: 1
# End: Header
# Begin: Data Text
0.89227796 0.37525266 0.25104898 
-0.056448046 0.12618037 0.9904 
0.8009934 0.45061266 0.39415464 
0.19507247 -0.44951832 0.8717111 
0.98339105 -0.01969713 0.18042792 
0.56643516 -0.004362121 0.8240949 
0.3499542 0.46347678 0.8140771 
0.80779344 0.32793042 0.48982787 
0.3271029 0.048998993 0.9437176 
0.116837725 0.44494334 0.8879046 
0.5016582 0.14156681 0.8534038 
0.61493164 -0.3728795 0.69485253 
-0.3759363 -0.7172019 0.5867653 
0.005435308 -0.88381356 0.4678079 
-0.8753514 -0.48283815 -0.025043957 
-0.55755043 0.3588622 -0.74856895 
-0.14294861 -0.16146027 -0.9764714 
-0.33455428 -0.8784084 -0.34128004 
0.012110607 -0.084877886 -0.99631774 
0.69787765 -0.42745885 -0.5746702 
0.8129038 -0.5702247 0.118453264 
0.023134187 -0.98570186 0.16690294 
0.6459114 -0.76123625 0.0576009 
0.112948395 -0.44636497 0.8876942 
0.15351795 -0.93670076 0.31468096 
0.34983477 -0.9353019 0.05316148 
0.6116852 -0.5733956 0.5450309 
-0.017228683 -0.23965712 0.9707048 
-0.88084364 0.31244138 0.3556611 
-0.5880271 -0.14719434 0.7953351 
-0.95341104 -0.28830385 0.08881567 
-0.46870857 -0.8814448 0.058029596 
0.44557807 -0.89503706 -0.019207068 
0.5995323 -0.7936094 0.10365942 
0.78368163 -0.13796973 0.60564643 
0.59889114 0.60943615 0.5195354 
0.9765799 -0.15781657 0.14623816 
0.31336373 -0.864293 0.3934474 
-0.019816818 -0.68281484 0.7303227 
-0.38304302 -0.01835656 0.9235481 
-0.9788861 0.20440467 0.0007919531 
-0.82223666 -0.008195687 0.56908685 
-0.6327819 -0.7074622 0.31477657 
-0.19394219 -0.9452013 -0.26264253 
-0.20937322 -0.43916422 0.8736692 
-0.7813255 -0.3563426 0.51239663 
-0.69223875 -0.16274025 0.7030798 
-0.89678526 -0.042864323 0.4403851 
-0.3791705 -0.893242 0.24155462 
-0.08944584 -0.9563748 -0.27811292 
-0.057505257 -0.4056962 -0.9121973 
-0.30181837 -0.54990685 -0.77878636 
0.5672104 0.053303607 -0.8218462 
0.3000656 -0.72657734 0.61809874 
0.6291721 -0.51307255 0.5838657 
0.04258623 0.10268812 0.9938016 
0.12753187 -0.42860535 0.8944458 
0.29968652 0.2966759 0.9067368 
-0.02538261 -0.2146043 0.9763712 
0.82662445 -0.30905902 0.4702919 
0.90448403 0.103284754 0.4138127 
0.6276036 -0.06362204 0.77592915 
0.76702476 -0.05225361 0.63948625 
0.91465384 0.09219037 0.39358535 
0.4673189 -0.63124645 0.61898386 
0.956103 0.060481466 0.2867213 
0.6505245 0.06455353 0.75673693 
0.8081195 -0.26245034 0.52731663 
0.57513875 0.6670428 0.473571 
0.6240869 0.6608896 0.4168219 
0.58617526 0.8050487 0.09107819 
-0.018813808 0.5223622 0.8525162 
0.5419458 0.34717292 0.7653533 
-0.19572392 0.54709005 0.8138702 
-0.60111046 -0.15715307 0.7835619 
-0.8602382 -0.21409489 0.46276727 
-0.542208 -0.16480069 -0.82392436 
0.14193137 0.9391064 -0.3129453 
-0.5838659 0.8081039 -0.077902436 
-0.5447397 0.7412857 -0.39211503 
-0.6320275 0.43471706 -0.64153135 
-0.002627391 -0.34758013 -0.93764657 
0.7119526 -0.20765989 -0.6708211 
0.77171093 -0.35518685 0.52754587 
0.05005266 -0.6658929 0.74436647 
-0.21954644 0.5148689 0.8286794 
-0.49582052 0.8269036 0.26531604 
-0.5922769 0.78323585 0.18907653 
-0.64705 0.055714287 0.76040936 
-0.93100244 0.34220618 0.12700164 
-0.90238696 0.06337227 -0.42624152 
-0.961949 -0.26657966 0.05991287 
-0.9557582 -0.27060333 -0.115326 
-0.85486716 -0.5161054 0.053266518 
0.6324007 0.028170856 -0.77412915 
0.98279107 0.1746008 0.06030239 
0.50591934 0.8563204 0.10373574 
0.80969423 0.4621383 0.3616954 
0.32798192 0.84395754 0.42445692 
0.2781654 0.61927795 -0.73424715 
0.90597427 -0.2537575 -0.3388479 
0.83873856 -0.40336853 0.36580253 
0.5254679 0.09157613 0.8458708 
0.45610544 0.013670001 0.8898209 
0.46086702 0.50797033 0.7277141 
0.05416248 0.27062747 0.96115935 
-0.11630676 0.26907748 0.9560701 
0.22621912 0.18829252 0.95570445 
-0.52539945 0.4537747 0.7197528 
-0.04304967 0.58686423 0.80854017 
-0.15742466 -0.53825945 0.8279459 
-0.50134337 -0.7535085 0.42529973 
0.12112054 -0.74587667 0.6549793 
-0.030836118 -0.7673669 0.64046633 
0.3427499 -0.90504575 -0.251823 
0.9181837 -0.18440731 -0.35061768 
-0.25671184 -0.962785 -0.0845228 
-0.00949642 -0.9742252 -0.22537774 
-0.10511474 -0.43097636 -0.8962201 
0.21876721 0.47285438 -0.85355127 
0.35228384 0.10450561 -0.93004024 
0.18474695 -0.39027992 -0.90197015 
0.19835687 0.12683192 -0.9718891 
0.4388871 0.49886167 -0.74733883 
0.7491381 0.4443311 -0.49128604 
0.865931 0.45799342 0.2010115 
0.5669556 0.50575763 0.6502082 
0.77680033 0.36860666 0.51059806 
0.4179809 0.82862157 0.37239546 
-0.48034012 0.5545603 0.6795117 
-0.21698311 0.94289005 -0.25273862 
-0.8619984 0.351752 0.3650061 
-0.68630254 0.7236579 0.07285666 
-0.73636675 -0.5510612 -0.3925501 
-0.5150893 -0.5561165 -0.65224046 
0.19999541 -0.94793504 -0.24783283 
-0.17836459 -0.9711831 0.15808055 
-0.5961685 -0.79170394 -0.13337179 
-0.27122107 0.11320178 -0.95583713 
-0.024118654 -0.32677925 -0.9447929 
0.5013034 -0.29837564 -0.81219876 
0.82148254 0.23840557 -0.51800513 
0.71166945 -0.3878832 -0.5857246 
0.7809 -0.19588795 -0.59314686 
0.24944524 0.3597977 -0.8990677 
0.257904 0.52640533 -0.81017464 
0.64306265 -0.22250909 -0.7327757 
0.8818456 -0.055428535 0.46826917 
0.7407307 0.031262618 0.6710742 
0.46009353 -0.15305218 0.8745794 
0.1463712 0.5045224 0.8509012 
-0.3516415 0.9298191 0.10855759 
0.040769797 0.9521211 0.3029907 
-0.24482843 0.62515724 0.7411056 
0.20506372 0.9239532 0.32289228 
-0.19124892 0.8869544 0.42039937 
-0.14297283 0.6158295 -0.77479863 
0.2184427 -0.9750923 -0.03844344 
-0.53180206 -0.8279167 0.17815924 
-0.8825711 0.45980784 0.09820973 
-0.82400835 0.5573829 0.10165968 
-0.9268949 -0.3328864 -0.17335698 
-0.28998846 0.67345935 0.6799701 
-0.80571264 0.55444354 0.20837404 
-0.82770246 0.5149915 -0.22291838 
-0.9476164 0.23835656 -0.21262518 
-0.9718731 -0.15524298 -0.17709404 
-0.077398844 -0.22433826 -0.9714329 
-0.83324945 -0.48390785 -0.2674483 
-0.235589 -0.8802038 -0.41199425 
-0.008114811 -0.06025689 -0.99814993 
-0.19037983 -0.8504899 -0.490329 
0.27251554 -0.62687624 -0.7299051 
0.2581327 -0.9638129 0.06657678 
-0.32147267 -0.8554254 0.4060822 
-0.3887987 -0.86655265 0.31292534 
-0.7069809 -0.36121997 0.6080281 
-0.4116886 -0.6860956 0.59982115 
-0.3788493 -0.89791906 0.2240865 
0.28155658 -0.9125773 0.29652774 
-0.840053 -0.46648055 0.2769602 
-0.7216369 -0.69119596 -0.038580894 
-0.2576218 -0.879923 -0.3992076 
0.42446363 -0.8676636 0.2588251 
0.15675515 -0.7722576 0.61566716 
-0.28443193 -0.5467213 0.7875242 
-0.6578611 0.122606695 0.7430924 
-0.95627505 0.15141523 -0.2502228 
-0.5198949 0.52951723 -0.670314 
-0.75240946 0.4171101 -0.50980324 
0.02952884 -0.30392036 -0.9522398 
-0.07230625 0.3277135 -0.9420062 
-0.3558409 -0.2039892 -0.91201186 
0.371456 -0.26203138 -0.8907077 
0.10528012 -0.24724264 -0.9632171 
0.6886109 -0.36401454 -0.6271432 
0.254418 -0.51815945 -0.8165675 
0.6084286 -0.5804382 -0.5412081 
0.7497644 -0.60779446 -0.26160917 
0.7212004 0.3814153 -0.57826674 
0.6716105 0.112919286 -0.7322491 
0.1983559 0.23698767 -0.9510477 
-0.12200295 0.102424815 -0.9872308 
0.91102314 0.36362404 -0.19445944 
0.8136719 0.57200897 -0.10365351 
0.9983246 0.016770951 0.0553801 
0.84259266 -0.47262976 0.25818366 
-0.6348872 -0.33611888 -0.69565964 
-0.3843921 -0.11978089 -0.9153662 
0.3382233 -0.46945924 -0.81560594 
0.3659267 -0.47679836 -0.7992253 
0.9754794 0.1926155 -0.10648574 
0.6481392 0.47669894 -0.5938635 
0.3639211 -0.43053162 -0.82595646 
0.6186167 0.23082538 -0.7510213 
0.69824976 0.079766095 0.7113963 
0.63442713 0.10746023 0.7654767 
0.49532524 -0.5886183 0.6388908 
0.690643 -0.29424763 0.66062903 
0.5669703 -0.8002821 -0.19517477 
0.36780533 0.1282661 0.92101413 
0.7008843 -0.0047104815 0.7132595 
0.8605904 0.2729841 0.429958 
-0.04526927 0.84970623 0.52530944 
-0.69135755 0.7213413 -0.041127548 
-0.9376236 0.045892354 0.34460977 
-0.37516212 0.76577556 -0.5223421 
-0.1490378 0.9084942 -0.39041805 
-0.093340784 0.8860437 -0.45410812 
-0.037667 0.9952244 -0.090052865 
0.41634145 -0.12624279 0.9004014 
0.01921696 -0.16702908 0.9857647 
0.4629816 0.091326684 0.8816504 
0.16959396 -0.023525778 0.9852332 
0.37940502 -0.08033523 0.92173654 
-0.31542814 0.09645162 0.9440351 
-0.98586136 -0.10173011 -0.13314837 
-0.9598649 -0.28046227 -0.0005368436 
-0.8225718 -0.24416703 0.5135739 
-0.8221174 -0.04161748 -0.567795 
-0.64617604 -0.66787434 0.36932445 
-0.9407974 0.3014042 0.15509973 
-0.3157738 -0.9417744 0.1155333 
-0.62581164 0.7114604 -0.31966227 
0.5136528 -0.2646733 0.81615496 
0.48697975 -0.23714691 0.84060216 
-0.16868043 0.5386541 0.8254688 
-0.059149124 0.7495055 0.6593504 
-0.7304985 0.3206133 0.6029753 
-0.5110806 0.7289252 0.45548293 
-0.9524444 0.28715807 -0.10193198 
-0.17265165 -0.98486966 -0.014943437 
0.8906497 -0.12398877 0.43745843 
0.43290704 -0.83636713 0.33627605 
0.6744541 -0.7382051 -0.012841556 
0.057813186 -0.7751243 0.6291581 
0.7847336 0.22448917 0.5777525 
0.13366158 0.062475417 0.9890559 
-0.032862596 -0.47078276 0.881637 
0.11283107 -0.91905177 0.37764168 
0.54698133 -0.5723243 0.6109472 
0.83090466 0.038257312 0.5550981 
0.495154 0.13074121 0.8589117 
0.54002905 -0.1292693 0.83165985 
-0.4555483 -0.0061436133 0.89019 
0.36633438 0.029617779 0.93001187 
0.2318212 -0.33351794 0.9137969 
-0.50859463 0.048632495 0.8596316 
-0.33693063 -0.8193293 0.46387205 
-0.34912974 -0.8625266 0.3662737 
-0.5947199 -0.76756483 0.23906566 
-0.37741834 -0.59658676 -0.70826524 
-0.51990026 -0.6563623 -0.5467104 
0.34866643 -0.31171396 -0.88389266 
0.67854637 -0.24875394 -0.6911558 
0.5765783 -0.52186245 -0.628663 
0.71496916 -0.6880086 -0.12435193 
0.55247915 -0.62952256 0.5463225 
0.45520213 -0.81391805 0.36101043 
0.04810754 -0.899727 0.43379384 
0.44502768 -0.8935728 -0.058975462 
0.5165374 -0.79051656 -0.3290481 
0.2059243 -0.9328224 0.2956984 
-0.4554991 -0.7016881 0.5478636 
-0.25706244 -0.80279577 0.5379944 
-0.5398025 -0.27479032 0.7956781 
-0.9485457 -0.25569233 0.18676887 
-0.45465133 -0.7244521 -0.51813275 
-0.043279465 -0.84041137 -0.54021806 
0.6013124 -0.64199585 -0.47567308 
0.7420713 0.5598372 0.36866322 
0.8905598 0.42773002 -0.15475929 
0.85447526 -0.4817826 0.19431297 
0.40994692 -0.72554463 0.55274636 
0.09689946 -0.44228137 0.8916264 
-0.28464228 0.31584415 0.9051084 
-0.76447326 0.31829545 0.56059676 
-0.6134087 -0.32978484 0.71761537 
-0.6830386 -0.4547567 0.57153714 
-0.6474324 -0.729292 -0.2212795 
-0.3938435 -0.5798616 0.7131956 
-0.60812074 -0.7683665 0.19950473 
-0.59800315 -0.048547197 0.8000221 
-0.79605734 -0.4462944 0.40879577 
-0.71337175 -0.6508971 -0.25968015 
-0.5494095 -0.8256924 -0.12798928 
0.13448143 -0.60410136 -0.78547835 
0.09433106 -0.70303595 -0.7048703 
0.2766585 -0.32744876 -0.90345865 
0.8382955 -0.38446575 0.38658354 
0.7571077 -0.41605157 0.50367576 
0.36611155 -0.59987926 0.71141213 
-0.002801743 -0.79590696 0.6054125 
-0.31784317 -0.6289874 0.70947206 
0.42452583 -0.5349283 0.73049957 
0.1673025 -0.8001827 0.5759494 
0.9336567 -0.35813427 -0.005014778 
0.7209243 -0.34358853 0.6018431 
0.66889054 -0.41175652 0.61890393 
0.7444448 -0.62524295 -0.23425046 
0.8540087 -0.4235496 0.30211768 
0.9600475 0.15395844 -0.23367867 
0.9737272 -0.12782122 0.18846022 
0.6752778 -0.3983705 0.62072617 
0.74395293 -0.10015159 0.6606843 
0.62220967 -0.19604886 0.757905 
-0.17403202 0.21574709 0.96081537 
-0.52931815 0.088794 0.8437642 
-0.37335193 0.701837 0.6066574 
-0.4309544 0.3000125 0.85104096 
-0.77733815 0.32720995 0.5372887 
-0.98465204 -0.14975846 -0.08962566 
-0.22986262 0.85496354 -0.46497357 
-0.04225166 0.99317986 -0.10866749 
-0.7255558 0.20385592 0.657276 
-0.4595671 0.84945816 0.259266 
0.61219627 0.59718555 -0.5182521 
0.5034523 0.34923723 -0.790297 
0.7785625 0.5361935 -0.32609367 
0.7232291 -0.15653288 0.6726345 
0.02409317 0.05310699 0.9982981 
-0.14633818 0.12536156 0.9812593 
-0.36543518 -0.27172723 0.890293 
-0.8360914 0.5290864 0.1449786 
-0.7567295 -0.6265657 0.1864832 
-0.5567715 0.60738975 0.56664205 
-0.99953675 -0.022545395 -0.020446066 
-0.60814285 -0.7937333 -0.012235091 
-0.95191735 -0.22951752 -0.20291637 
0.25595567 -0.7963322 -0.54803437 
0.4437821 -0.5638296 -0.69652975 
0.8056703 -0.17623827 -0.56554 
0.7143415 0.119469464 -0.68952405 
0.7485485 -0.51517296 -0.41745904 
0.8231259 0.2824955 0.49260557 
0.70419085 0.70479506 -0.085902706 
0.7772825 0.4940538 0.38954177 
0.7117174 -0.08770357 0.6969695 
0.40155864 0.27135202 0.87471074 
0.23584972 0.4706247 0.85022783 
0.14746565 0.5909263 0.7931331 
-0.7699189 0.33490968 0.5431947 
-0.5588597 0.35145396 0.7511032 
-0.5479532 -0.67360556 0.49598673 
-0.20960678 -0.39908695 0.89263356 
-0.20208788 -0.29547817 0.93373084 
-0.0050926637 -0.42325312 0.9059972 
0.33822924 -0.83467287 0.4346518 
0.036908608 -0.8598756 0.5091677 
0.10559859 -0.9720513 -0.20967911 
-0.4396581 -0.8545804 -0.27639294 
0.33151546 -0.22603282 -0.91597307 
-0.17308207 -0.6586663 -0.7322577 
0.27987033 -0.70917255 -0.6471065 
-0.2844289 -0.80305344 -0.52364624 
-0.5666671 0.40754402 -0.71609807 
-0.33769068 0.31517363 -0.886922 
0.38278756 0.4406704 -0.81196266 
0.8576982 0.5139403 0.014805859 
0.8962522 0.2283248 -0.3802628 
0.5182018 0.51680017 -0.6814577 
0.77620125 -0.6006298 0.1917174 
0.88054705 0.4266548 0.20640446 
0.76422906 0.22015275 0.6062069 
0.18258831 0.14399864 0.9725872 
-0.3124147 0.8165314 0.48546228 
-0.68561345 -0.25323933 0.68249846 
-0.8959735 -0.3903047 -0.21188164 
-0.5865326 -0.59316003 -0.55148953 
-0.4163158 -0.10178481 -0.90350497 
-0.24348567 -0.67879087 -0.69278985 
0.21459852 -0.9481494 -0.23443615 
-0.19471924 -0.868524 -0.4557965 
-0.5916087 -0.2739712 -0.7582473 
-0.65358275 0.28050184 -0.70295686 
0.54641277 0.37577546 -0.7484824 
0.8323415 -0.024649883 -0.5537148 
0.45111406 0.46649966 -0.760838 
0.44157055 0.4970256 -0.7469813 
0.64413685 0.71771747 -0.26451722 
-0.5459297 -0.062249675 -0.8355154 
0.50222665 0.30791125 -0.80805886 
0.7796894 -0.4823059 -0.39933142 
0.7803701 -0.5815407 0.22985423 
0.9246882 -0.17495637 0.338145 
0.4658031 0.26946026 0.8428635 
-0.12841144 0.9204675 0.36912084 
0.22854082 0.7315726 0.64231664 
-0.3104358 0.81101876 0.49586108 
-0.1269437 0.29265076 0.94775575 
0.3531562 0.49321398 0.79499733 
0.3070668 0.6265939 0.71630305 
0.080001555 0.8590319 0.5056323 
-0.47273535 -0.68820655 0.5503573 
-0.61372024 -0.6576592 0.4368431 
-0.21993837 -0.39560968 0.89169514 
-0.93933195 0.15595385 0.30550608 
-0.95038354 -0.15832841 -0.26777485 
-0.539898 0.26303196 0.79957765 
-0.67442197 0.31922618 0.66577 
-0.71848804 0.57975817 0.38425976 
-0.93626285 0.33100837 -0.117667 
-0.38303736 0.11667686 -0.9163345 
-0.38353726 -0.62762725 -0.67748296 
-0.123855114 -0.54672706 -0.8280999 
-0.8791735 -0.19663008 -0.43403983 
-0.67981255 -0.32217553 -0.65883076 
-0.74990046 -0.64804614 -0.13298732 
-0.119518116 -0.952298 -0.28079185 
0.31097627 -0.9211918 -0.23387897 
-0.35132232 -0.8444094 0.4044074 
-0.5003147 -0.8498208 0.16580088 
-0.4646426 -0.3055268 0.83112013 
-0.5798155 -0.68463886 0.44168273 
-0.503178 -0.8542818 0.13044031 
-0.15885189 -0.9374805 0.30967158 
0.11348718 -0.9756241 0.18782565 
-0.34905216 -0.8599471 -0.37236232 
0.56150854 -0.8233499 0.08248233 
0.28172845 -0.88972324 -0.359196 
0.21086825 -0.9605365 -0.1813956 
0.19164252 -0.97492236 -0.11313469 
-0.19647956 -0.57475966 0.7943848 
-0.86800295 0.16349848 0.46887013 
-0.74139816 0.5924701 0.3151317 
-0.9199843 0.20623122 -0.3333131 
-0.55332357 0.14851885 -0.81961894 
-0.45670062 0.42703015 -0.7804293 
-0.118544325 -0.49162474 -0.86270064 
0.4678649 0.13772793 -0.8730025 
0.39611086 -0.04841034 -0.9169257 
0.6940787 0.24852976 -0.67563885 
0.44202256 -0.17256401 -0.88024867 
0.4871339 -0.61056876 -0.6244249 
0.89219797 0.013113964 -0.4514542 
0.90739715 0.2596946 -0.3304378 
0.3135728 0.891042 -0.3282017 
-0.14168432 0.5964701 -0.79003096 
0.51090854 0.818461 0.2628579 
0.17118981 0.84167147 0.512136 
0.2154513 0.62156564 0.7531513 
0.26964876 0.9141145 0.30279413 
-0.6594118 0.3959995 -0.6390309 
-0.8126896 -0.17177883 -0.5568014 
-0.52697945 -0.5455138 -0.6516958 
0.5048699 -0.13447258 -0.8526568 
0.3073447 0.41754496 -0.85509974 
0.60000074 0.46110135 -0.65374666 
0.36973855 0.33703148 -0.86585414 
-0.034648124 0.4721625 -0.8808304 
0.1889258 0.5638852 -0.8039531 
0.46593627 -0.54535145 -0.6967749 
0.9503236 -0.20660558 0.23280737 
0.5204949 -0.81819236 0.24422637 
0.8083201 -0.44823104 0.38171688 
0.95652276 -0.0332889 0.2897518 
0.82092476 0.041888352 0.5694981 
0.28664035 0.7616171 0.5811855 
0.22353548 0.39980105 0.88892686 
0.14740328 0.16156729 0.9757911 
-0.20133625 0.70073193 0.6844257 
-0.6061042 0.6012723 0.5206817 
-0.88115895 0.4260582 0.20502068 
-0.28289902 0.94724166 0.15066987 
-0.28161106 0.92949265 0.23819874 
-0.04884569 0.9382801 0.3424102 
0.28546727 -0.26038638 0.92233807 
-0.46028307 -0.060263228 0.8857245 
-0.020162527 -0.4835797 0.8750681 
-0.026748016 -0.26619813 0.96354717 
0.516003 -0.19755709 0.83349395 
-0.46803957 -0.31260335 0.8265701 
-0.9165501 0.0045340387 0.39989418 
-0.98838645 -0.14839856 0.032713074 
-0.930073 -0.358077 -0.08212944 
-0.43489152 -0.8028551 -0.4077904 
-0.49843898 -0.8371969 -0.22507824 
-0.694622 -0.54085714 -0.4743142 
-0.692581 -0.64916563 0.31450838 
-0.20262124 -0.5931159 0.7792036 
-0.103429124 -0.3100971 0.94506204 
0.40592223 0.08140183 0.9102753 
0.18374445 -0.08362641 0.97941035 
-0.11166171 -0.13255386 0.9848661 
0.17319228 0.30230513 0.9373452 
-0.6089122 0.113363706 0.78509533 
-0.8235404 0.12825656 0.5525682 
-0.46767414 -0.34997234 -0.8116652 
0.30125326 -0.8869998 -0.34996834 
0.26482156 -0.9585654 0.10498523 
0.3595265 -0.9216052 -0.14623456 
-0.2837941 -0.8741005 0.3942198 
0.55221015 0.32349607 0.76838416 
0.11036031 -0.09770178 0.9890778 
-0.60979754 -0.58926195 0.5300164 
0.06628677 -0.7998789 0.59648967 
0.06444215 -0.6703031 0.73928416 
0.55077374 -0.26420787 0.7917339 
0.46714124 -0.22197409 0.8558661 
-0.21005712 -0.36568794 0.90672404 
-0.42651045 -0.42779812 0.79691756 
0.368547 -0.61226267 0.69950527 
0.25569788 -0.7547969 0.60406965 
-0.15517524 -0.33898494 0.9279062 
0.043613266 -0.8351396 0.54830647 
0.23211598 -0.96499616 0.1220848 
0.061600357 -0.68831897 0.7227879 
-0.9630838 -0.26850513 0.019357031 
-0.29326767 -0.7103313 -0.6398622 
0.5183387 0.5228961 -0.67668664 
0.65688 0.037731037 -0.75305045 
0.74105024 -0.49755245 -0.4508727 
0.87203115 -0.30605283 -0.38196 
0.47931156 -0.77204657 -0.41737834 
0.031021412 -0.20325583 -0.9786342 
0.57731205 -0.800276 0.16207802 
0.16501491 -0.80256134 0.5732936 
0.2729325 -0.010243972 0.96197873 
0.20842294 -0.4425994 0.87216157 
0.25122136 -0.96229935 0.1042499 
0.9298844 -0.36324647 0.05802735 
-0.18223953 -0.47413918 0.8613831 
-0.48713294 -0.6330823 0.6015882 
-0.5233898 -0.7557 -0.39367574 
-0.1304922 -0.8500358 -0.51030475 
0.19348188 -0.53353614 -0.82334936 
0.9425249 -0.33408523 0.005820601 
0.7399149 -0.4538796 0.49650723 
-0.1357069 -0.6846399 0.7161369 
0.24694438 -0.86564904 0.43551162 
0.14388722 -0.18500945 0.97214615 
0.106488004 -0.02052782 0.99410206 
-0.67763793 -0.25156856 0.6910283 
-0.40607366 -0.7708316 0.49083903 
-0.6109829 -0.69007874 0.38793212 
-0.7162422 -0.63556993 -0.2881805 
-0.34940052 -0.35669762 -0.8664215 
-0.8806835 -0.3796013 -0.2833717 
-0.82018733 -0.5718606 0.016381197 
-0.6963554 -0.6748114 0.2443744 
-0.32721862 -0.8421499 -0.42861587 
-0.30089653 -0.6519039 -0.6960479 
-0.25400773 -0.66316825 -0.70405114 
-0.035525545 0.0700337 -0.99691194 
0.28769088 -0.055285517 -0.9561264 
0.98788875 -0.15023042 -0.038816717 
0.72864735 -0.6590782 -0.18624978 
-0.0611024 -0.86002237 -0.5065846 
0.21889159 -0.9157566 -0.33686268 
0.06745142 -0.8319471 0.55074 
0.5837188 -0.8106925 -0.04527898 
0.5916145 -0.8029241 -0.07283776 
0.38130125 -0.8455806 0.37363485 
0.5195351 -0.8225253 0.23137711 
0.6747512 -0.69817543 -0.23929465 
0.5671337 -0.7028694 -0.42934126 
0.67258203 -0.65626466 -0.3419797 
0.46156254 0.09264452 0.8822568 
0.9931023 -0.046615917 0.10758591 
0.8925992 0.31165513 0.32578805 
0.4558963 -0.21868062 0.86274993 
0.63544476 -0.04769192 0.77067214 
0.20850828 0.22759707 0.95116985 
-0.29855508 -0.5387762 0.7877723 
-0.72838765 0.2955417 0.6181478 
-0.6247106 0.3019946 0.7200944 
-0.20863189 -0.1057694 0.97225803 
-0.87846583 0.42759448 -0.21321511 
-0.94037664 0.33344746 -0.06711649 
-0.46850476 0.86961114 -0.15582025 
-0.82003474 0.44988146 0.35376504 
-0.9082782 0.16289185 -0.3853531 
0.3157057 0.34887007 -0.88239425 
0.525142 0.8461229 -0.09111441 
0.55304235 0.77455145 0.30694354 
0.21113886 -0.54082227 0.81420624 
0.3447147 -0.22458406 0.911446 
-0.520459 -0.099284895 0.848095 
-0.79386646 -0.23001018 0.5629135 
-0.7882589 0.22790264 0.5715842 
-0.5672472 -0.59296936 0.57150507 
-0.8438016 0.4500751 0.29228628 
-0.8975892 -0.32207 -0.30100605 
-0.8084916 -0.25783423 -0.52902067 
-0.2696685 -0.8206778 -0.5037528 
-0.6387599 -0.2971777 -0.70969796 
0.3824445 -0.753737 -0.5344312 
0.85069305 -0.24318774 -0.46602696 
0.6613927 -0.61932176 -0.4230844 
0.45578304 -0.7473091 -0.4835194 
0.84795016 -0.36555243 0.38386452 
0.3261007 -0.069800034 0.9427546 
0.794117 0.04730165 0.60592145 
0.9397089 0.10222288 0.32633996 
0.8224385 0.17450987 0.5414252 
0.44698197 0.13257387 0.88466454 
-0.23304951 -0.20672014 0.9502393 
-0.37143233 0.08903538 0.9241811 
-0.047299664 -0.0062942426 0.998861 
-0.85627604 -0.286078 0.4300591 
-0.093356706 -0.1982117 0.9757032 
-0.6135151 -0.48559508 0.62273324 
-0.20890561 -0.84041864 0.50005513 
-0.09354612 -0.8717583 0.48092264 
-0.29761857 -0.95310473 -0.054905407 
-0.6761178 -0.72853947 -0.109977715 
-0.5789719 -0.77500635 -0.25329182 
-0.39350173 -0.77174556 -0.49956524 
0.29051888 -0.85833424 -0.42291963 
0.1493426 -0.7196131 -0.67812526 
0.2306958 -0.594056 -0.77063423 
-0.3709953 0.59374887 -0.7140202 
0.040437367 0.27677038 -0.96008486 
0.70824534 0.6330185 -0.31253195 
0.93317175 0.35227293 -0.07137551 
0.812772 -0.55776954 -0.1682106 
0.699165 -0.3638438 0.61545604 
0.062020194 -0.43428364 0.89863855 
0.62432617 0.40596214 0.6673917 
0.41896406 0.34272423 0.84083843 
0.2571189 -0.31765828 0.91267914 
-0.34889418 -0.0847516 0.9333221 
-0.9124775 -0.13750617 0.38532725 
-0.87727726 -0.13492571 0.46062976 
-0.8193608 0.14667308 -0.5541976 
-0.31082493 0.17407286 -0.9343911 
-0.15628141 -0.77144074 -0.6168107 
-0.3182578 -0.8952345 -0.31187698 
-0.16862623 -0.46939766 -0.86673594 
0.071244925 -0.69995654 -0.710623 
0.054121416 0.22681916 -0.97243196 
-0.31698745 0.09037518 -0.9441141 
0.26570308 0.5498588 -0.7918695 
0.7973964 0.5841847 -0.15128547 
0.6971887 0.66582334 -0.26572052 
0.30566487 0.84491646 -0.43895918 
0.08967442 0.8967301 -0.43339786 
0.09718148 0.83274484 -0.5450614 
0.7843655 -0.26561958 -0.56055075 
0.6075476 -0.7942027 0.011319864 
0.76887673 -0.100413516 0.6314632 
0.75716656 0.06262441 0.6502131 
0.95158696 -0.006598646 0.307309 
0.26931864 0.22314996 0.93684137 
-0.1358059 0.56996125 0.81037086 
0.48102397 0.5272481 0.70044655 
0.42394024 0.31789318 0.84806764 
0.74964124 0.07130486 0.6579922 
-0.39318877 -0.47664005 0.7862678 
-0.31117263 -0.7810757 0.54138005 
-0.26882508 -0.27313375 0.923651 
-0.29350886 0.30683583 0.90537524 
-0.84871346 -0.21131566 0.4848002 
-0.64829075 -0.43105692 0.62762177 
-0.87241006 -0.18260087 0.45338476 
-0.9975888 0.06000775 0.034867115 
-0.8869262 0.29525718 0.35522562 
-0.9197306 0.3659219 -0.14211547 
-0.53518707 0.53646743 -0.65251637 
-0.7308265 0.25619572 -0.6326582 
-0.7501575 -0.5059285 -0.42579353 
-0.41760343 -0.4301366 -0.8003687 
-0.6693236 -0.22157916 -0.70916057 
-0.3040307 -0.67638713 -0.6708695 
-0.18235524 -0.95898706 -0.21700355 
-0.18545699 -0.9605971 0.20702429 
-0.5027132 -0.6873576 -0.5242319 
-0.6031979 -0.4384396 -0.6662755 
-0.012859478 -0.95365727 -0.30062005 
-0.8698018 -0.46368933 0.16863331 
-0.30604336 -0.855183 0.41832963 
0.44697306 -0.7974813 -0.40526393 
-0.03687901 -0.99758774 0.058810055 
-0.078710735 -0.84069985 -0.53575045 
0.33808094 -0.40984935 -0.8471864 
0.46531692 -0.3264248 -0.82275575 
0.7128308 -0.11826451 -0.69129294 
0.005273727 -0.34409088 -0.9389216 
-0.9340835 -0.01436047 -0.35676593 
-0.3736268 0.62139815 -0.68867075 
-0.8459273 0.51625794 0.13373473 
-0.9949548 0.07649425 0.064911194 
-0.32111448 0.90348625 -0.2838983 
-0.3461028 0.49174872 -0.7989969 
-0.1298781 -0.59182644 -0.79553336 
0.3096278 -0.20898396 -0.92760783 
0.35305724 0.33295172 -0.8743533 
0.39214426 0.20291714 -0.89724445 
0.47366145 0.059932616 -0.8786655 
0.64910644 -0.0053510764 -0.7606788 
0.634017 -0.2905952 -0.7166428 
0.79212373 0.12871636 -0.5966341 
0.4038199 0.90454024 -0.13688155 
0.5265105 0.827761 0.19390328 
0.039651558 0.32208163 0.9458812 
-0.27681416 0.82765126 0.48822874 
-0.01778107 0.89084154 0.45396632 
0.8164066 0.5774578 0.004789051 
0.87400687 0.48559365 -0.01762803 
-0.6840553 0.13321494 -0.71716255 
-0.6317169 0.009681739 -0.77513885 
0.003154256 0.34116423 -0.9399984 
0.19898713 0.45015556 -0.8704965 
-0.3334436 0.822837 -0.46016806 
0.15627217 0.6477248 -0.7456753 
0.3634455 0.7802232 -0.50907665 
0.48635456 -0.11790855 -0.86576957 
0.7173363 -0.15968616 -0.67818063 
0.63809276 -0.35296953 -0.68428814 
0.5415321 -0.5222213 -0.65880793 
0.7785275 -0.60094887 -0.18098456 
0.74981505 -0.33650225 0.5696873 
0.5577628 0.019210491 0.8297781 
0.6592794 -0.13011895 0.74055374 
0.24994622 0.0068602944 0.9682355 
-0.4266859 0.8199855 0.38152713 
-0.50713897 0.6753103 -0.5355054 
-0.11294983 0.94573975 -0.30466193 
0.09214272 0.80033493 -0.59243053 
-0.24727109 0.73602074 0.6301829 
0.19522165 0.33852926 0.9204817 
-0.30911344 0.87943023 0.36201018 
0.49113297 -0.7669282 0.41304904 
0.08565206 -0.70820504 0.700792 
-0.5878136 -0.5934089 0.54985553 
-0.5901957 -0.18738753 0.7852102 
0.08281082 -0.75266874 0.6531709 
0.04975285 -0.8683072 0.49352548 
-0.75193286 -0.48431072 0.44725847 
-0.96420276 -0.23006934 0.131838 
-0.6048372 -0.5181753 -0.6047036 
-0.6121267 -0.22976854 -0.7566422 
-0.71838135 -0.42685404 -0.549294 
-0.8608079 -0.47172406 -0.19101374 
-0.52014494 -0.3375478 -0.7845449 
-0.6338017 -0.43634266 -0.6386709 
0.2767666 -0.7331689 -0.6211793 
0.87900186 -0.4332837 0.19905052 
0.643024 -0.2330607 0.72952235 
0.14031656 0.02139882 0.98987544 
-0.03791702 -0.26351124 0.9639108 
-0.42040563 0.102985546 0.90147275 
-0.99362624 -0.07864666 0.08075608 
-0.13181144 -0.05145818 -0.98993826 
-0.060231276 -0.5394265 -0.83987576 
-0.13731578 -0.961857 -0.23659176 
0.36663026 -0.89051646 0.26937482 
-0.04456976 -0.9732023 -0.22559033 
0.35444027 0.005677397 0.9350615 
-0.08445694 -0.86762303 0.4899974 
-0.62860054 -0.59534454 0.5004261 
-0.051680323 -0.9752051 0.21518382 
-0.011946272 -0.662031 0.7493813 
0.17288557 0.013029811 0.9848558 
-0.0050748093 -0.5449186 0.83847356 
0.23737572 -0.30618644 0.9219017 
0.43459654 -0.28511906 0.8543027 
-0.3573295 -0.93300706 0.04258597 
0.41308618 -0.832352 0.36952674 
0.4236725 -0.69150174 0.5850871 
0.5008854 -0.8590475 -0.10559942 
0.40891635 -0.9073787 0.09721801 
0.17815651 -0.9747197 0.13484049 
-0.40425435 -0.9144659 0.018181438 
0.20736928 -0.8094821 -0.5493058 
0.04536096 -0.89122176 -0.45129392 
0.23648696 0.097055055 -0.96677524 
0.5495574 0.27733493 -0.7880813 
0.55300033 -0.43458468 -0.7108635 
-0.010363926 -0.23533252 -0.97185963 
-0.09722171 -0.05076279 -0.99396735 
0.6015048 -0.52978736 -0.5979276 
0.4292977 -0.90211946 0.04340511 
0.14575493 -0.98821527 0.046756916 
0.16980405 -0.67344344 0.71947247 
0.35623485 -0.7489551 0.55871564 
-0.2019914 -0.9566425 0.2098442 
-0.60983396 -0.6876511 -0.39400333 
-0.67677987 -0.6826391 -0.27563173 
-0.3474424 -0.59179014 -0.7273708 
-0.05230857 -0.9103795 -0.41045454 
-0.29718137 -0.577984 -0.76001173 
0.5049053 -0.80998147 -0.29832998 
0.20230862 -0.96133333 -0.18684058 
0.61500114 -0.713705 -0.33525947 
0.5302417 -0.62880945 0.56872004 
0.0047976696 -0.13358964 0.9910251 
0.70971686 -0.1270517 0.69293576 
0.020129053 -0.73530173 0.677441 
0.25527442 -0.8852863 0.38872004 
-0.025975976 -0.9650759 0.26067936 
-0.4679984 -0.5845551 0.6627766 
-0.44185212 -0.8745123 -0.19998784 
-0.1783809 -0.8261369 -0.5344887 
-0.12684995 -0.9134212 -0.38674393 
-0.5215685 -0.63989997 -0.5643531 
-0.5869646 -0.43164104 -0.68495154 
-0.23915355 0.055324867 -0.96940434 
-0.04726125 -0.28460044 -0.95748055 
0.10000059 -0.032369874 -0.9944607 
-0.01738568 0.25329164 -0.96723384 
0.05131125 -0.32153678 -0.9455059 
0.18255818 -0.25843498 -0.94862217 
0.3148448 -0.11262296 -0.94243777 
0.12937957 -0.774601 -0.6190753 
0.28439358 -0.6534393 0.70152515 
0.42256388 -0.38383967 0.8210401 
0.12669863 -0.68249077 0.719829 
0.4651135 -0.7240827 0.5092875 
0.34693488 -0.6537988 0.67244583 
0.6250792 -0.6420529 0.44389644 
0.27887365 -0.94667464 0.16135842 
0.027945615 -0.963875 0.2648853 
0.4526621 -0.77408916 0.44258678 
0.38456926 -0.761653 0.52152777 
0.5789937 -0.20805958 0.78833854 
0.33125022 -0.16435419 0.92911845 
0.35441357 -0.4463886 0.821662 
0.5692977 -0.0887362 0.81732863 
-0.24176548 -0.25321543 0.9367131 
-0.12064677 -0.1632799 0.9791752 
-0.23752332 0.17862041 0.954818 
-0.2948802 0.23209876 0.92691743 
-0.5489024 0.7201361 0.42439392 
-0.92084664 0.33568832 0.19838063 
-0.51878595 0.6265133 0.581672 
-0.56087357 0.68103427 0.4707583 
-0.6007699 0.2987961 -0.7414826 
-0.65440375 0.022567464 -0.7558084 
-0.061820637 0.8860191 -0.4595088 
0.4822589 0.40630516 0.77610725 
0.6034695 -0.69273645 0.39489353 
0.5306238 -0.62735903 0.5699641 
-0.7291269 -0.46481624 0.5023146 
-0.846556 -0.29592118 0.44246316 
-0.8028495 -0.40254253 0.4397641 
-0.8457684 -0.2057057 0.49230188 