# OOMMF: rectangular mesh v1.0
# Segment count: 1
# Begin: Segment
# Begin: Header
# Desc: Time (s) :  4.2700000000000037e-07
# Title: m
# meshtype: rectangular
# meshunit: m
# xbase: 2e-09
# ybase: 2e-09
# zbase: 5e-10
# xstepsize: 4e-09
# ystepsize: 4e-09
# zstepsize: 1e-09
# xmin: 0
# ymin: 0
# zmin: 0
# xmax: 1.024e-06
# ymax: 1.024e-06
# zmax: 1e-09
# xnodes: 256
# ynodes: 256
# znodes: 1
# ValueRangeMinMag: 1e-08
# ValueRangeMaxMag: 1
# valueunit: 
# valuemultiplier: 1
# End: Header
# Begin: Data Text
-0.39419466 -0.6421296 -0.65748024 
-0.41878295 -0.10822628 -0.901614 
-0.22846204 -0.5088098 -0.8300107 
-0.3006824 0.5299356 -0.7929429 
0.03991196 0.7408382 -0.67049664 
0.1820392 -0.063071035 -0.98126644 
-0.09795749 -0.64146334 -0.7608739 
0.85833204 -0.48008433 -0.18106705 
0.633548 -0.7737033 0.00025912657 
0.95482033 -0.29613364 -0.024960138 
0.79084873 -0.35192144 0.5007091 
0.481573 0.86752653 0.1244393 
-0.17461841 -0.05498487 0.98309976 
-0.6522388 0.5208175 0.5507575 
0.3291626 0.77484924 0.5396857 
0.021128235 0.77325124 0.63374764 
-0.5333346 -0.1256463 0.83652085 
-0.446614 -0.8574199 0.25567007 
-0.9721299 -0.20432559 -0.11495454 
-0.09305091 -0.28884903 -0.95284206 
-0.41311923 -0.42861938 -0.80350345 
-0.47828698 -0.089750946 -0.8736055 
-0.36541706 0.43902296 -0.82081014 
0.18843241 0.5606585 -0.8063221 
0.050614107 0.48444277 -0.8733576 
0.8083122 0.15400244 -0.56825584 
0.91384804 -0.14004211 -0.38114303 
0.8773995 -0.331552 -0.34676144 
0.14023976 0.2920013 0.9460804 
0.8831526 -0.17188433 0.43646017 
0.6019495 0.56635034 0.5629423 
-0.40400395 -0.4117338 0.8168575 
-0.31137022 -0.18756856 0.9315936 
-0.028861593 0.03552698 0.998952 
0.10665009 0.5597774 0.8217513 
-0.4775054 -0.52685535 0.7031445 
-0.2761928 -0.9403699 0.19855021 
-0.32645184 -0.7576541 0.5651455 
-0.14927776 -0.9474383 0.2829788 
0.19461627 -0.9685623 0.15495704 
-0.13761424 -0.91227376 0.38577044 
-0.33015805 -0.9374232 -0.11060427 
0.034643687 -0.5769546 -0.8160413 
0.87370324 -0.3679134 -0.31824893 
0.7957735 -0.5938717 -0.118579395 
0.51144505 -0.7178197 0.47239706 
0.6867989 -0.17466216 0.70554984 
0.42509678 -0.89371216 0.14342786 
0.09099769 -0.94800127 0.3049804 
-0.17701703 0.05963965 0.98239917 
-0.70728755 0.108520016 0.6985469 
-0.9496558 0.2763606 0.14757612 
-0.92099196 0.07619784 0.3820572 
-0.82924455 -0.55846685 0.021638168 
-0.87780035 0.29636872 0.37634042 
-0.9980851 -0.05180447 0.03380277 
-0.40842223 -0.09070114 -0.90827566 
0.39870334 -0.39941776 -0.8255308 
-0.055846084 -0.43630385 -0.89806473 
0.27119082 0.20046937 -0.9414179 
0.41216797 -0.20471247 -0.8878122 
0.6321775 -0.3283767 -0.70179796 
-0.38373253 -0.487087 -0.7845353 
-0.23581651 -0.85774046 -0.4568061 
-0.88962096 0.39550015 -0.22837335 
-0.66555667 0.18341018 -0.72346056 
-0.8298462 0.50767857 -0.2315556 
0.102007665 0.8018191 -0.588796 
0.04536512 0.6908622 -0.7215619 
-0.31072426 0.026970265 -0.9501174 
-0.9828549 0.18172252 -0.03119546 
-0.7534834 0.46459466 -0.46520373 
-0.09553483 0.18799017 -0.9775136 
-0.3537071 -0.32939044 -0.8754389 
-0.02824623 -0.9755788 -0.21782593 
0.10850861 0.0045137694 -0.9940853 
0.29937953 -0.9536629 -0.029985437 
0.3007113 -0.73289853 -0.6102725 
0.43218872 -0.21931575 -0.8747077 
0.89057744 -0.45069918 -0.061172053 
0.5941359 -0.44553593 0.66970176 
0.7742499 0.14665094 0.61565477 
0.11514552 0.98118705 0.15496318 
-0.31081995 0.94918394 0.04940546 
-0.1497375 0.92644215 -0.34537458 
0.3499686 0.43521893 0.8295218 
0.55536234 0.831312 0.022205072 
0.36281523 0.7150975 -0.59749544 
0.0037474853 0.45572507 0.89011276 
-0.2588203 0.34180328 0.9034283 
-0.8703655 -0.11180571 0.47954494 
-0.552706 -0.26355553 0.79060394 
-0.78001904 -0.51905537 0.3495023 
-0.7040895 0.22518729 0.6734603 
-0.70484716 -0.027522974 0.7088251 
-0.5142425 -0.3957729 0.760867 
-0.2666043 -0.72522986 0.63479435 
-0.13884458 -0.6030225 0.78554827 
-0.15335837 -0.94547284 -0.2873368 
0.35724396 0.012843249 0.9339229 
0.303904 -0.91456693 0.26685137 
0.38502568 -0.59319365 0.7070195 
0.60305285 0.20952135 0.76969355 
-0.0468213 -0.8314007 0.55369735 
0.39458853 -0.9088092 0.13552004 
0.61426085 -0.48869953 0.61956143 
0.8524541 -0.00090271153 0.5228013 
0.39697194 -0.43385756 0.80881447 
0.22578672 0.33586878 0.9144466 
0.48812574 0.62210727 0.6121405 
0.3100741 0.69947237 0.6438886 
0.086912386 -0.1901865 0.9778933 
-0.22717732 0.10742292 0.9679105 
-0.22339325 -0.2258247 0.9482082 
-0.49182805 -0.48621514 0.72228813 
0.04289405 -0.7083004 0.7046068 
-0.05987368 -0.9333474 0.3539462 
0.5839604 -0.72811836 -0.3589346 
-0.18836275 -0.92756546 -0.32270998 
0.00910358 -0.9589746 -0.28334597 
0.5800355 -0.465568 -0.668435 
0.6166803 -0.396202 -0.6802421 
0.84117776 -0.45853043 -0.28665307 
0.5966609 -0.4487962 -0.66526526 
0.47798985 -0.5649109 -0.6726079 
0.9047338 0.41462678 -0.09768094 
0.9351113 0.2854455 -0.20997111 
0.8604421 0.26512906 -0.43513903 
0.6058117 -0.14315642 0.7826228 
0.62759095 -0.5615831 0.5392161 
0.5507144 0.7829196 0.28939703 
0.6165775 -0.28946444 0.73214924 
0.7042464 0.083078034 0.70507807 
-0.26049826 -0.45351595 0.8523286 
-0.6673503 -0.27933306 0.6903744 
-0.73361295 -0.6779927 -0.04623834 
-0.76264864 0.26374105 -0.5905996 
-0.52851254 0.5908232 -0.60959214 
-0.8581141 0.07603394 -0.50779814 
-0.6026726 -0.4352292 -0.66885084 
-0.32898778 -0.45512187 -0.8274244 
-0.09498682 -0.16458431 -0.98177874 
0.4877201 0.22457041 -0.8436215 
0.2492058 0.3902748 -0.8863307 
-0.7692351 0.56458294 -0.2992048 
-0.7352733 -0.0949197 -0.6710913 
-0.7170602 0.4417424 -0.5391553 
-0.73827827 0.43420902 -0.5161471 
-0.70170593 0.69161963 0.17108797 
-0.13352105 0.7342066 -0.66566724 
-0.553947 0.641352 -0.5308583 
-0.6157498 -0.45682004 -0.64200294 
-0.06960332 -0.6106933 -0.7888024 
0.8626416 -0.09936383 -0.49596027 
0.7102938 -0.5242926 0.46968085 
0.05623617 -0.48504043 0.87268174 
-0.012289257 0.03079816 0.9994501 
-0.78643537 -0.13081722 0.60366076 
-0.8234386 -0.5245549 0.21631263 
-0.9039381 -0.18255784 0.3867409 
-0.5576949 -0.401971 0.72622025 
-0.2966512 0.12996472 0.94610107 
-0.393835 -0.21640036 0.8933448 
-0.68504214 -0.22293395 0.6935545 
-0.9161526 -0.12056512 0.38226762 
-0.8701171 -0.085837446 0.4853124 
-0.32636774 0.6864622 -0.64981055 
-0.77900314 0.36241114 -0.51167583 
-0.46689796 0.1336028 -0.87416047 
0.19602513 -0.65347046 -0.73112965 
0.17071494 -0.4178236 -0.8923452 
0.25569734 -0.60578674 -0.7534199 
0.6097923 0.19681986 -0.7677339 
0.5934549 0.6330506 -0.49704945 
0.25130713 0.319346 -0.9137084 
0.25743556 -0.8210203 -0.50956124 
0.35525632 -0.6588454 -0.6631106 
0.7187312 -0.6952327 0.008776334 
0.30534667 -0.91726166 0.2557234 
-0.15095986 -0.5281976 0.8355947 
-0.6302621 -0.31512046 0.70955545 
-0.84691244 -0.4538348 0.27708024 
-0.42076376 -0.22778802 0.87810624 
-0.42180324 -0.8991887 -0.11636962 
0.70399195 -0.65762144 0.2681967 
-0.006746419 -0.7727473 0.634678 
0.644524 -0.6550783 0.39428598 
0.75221056 0.38992852 0.53116405 
-0.3677959 0.38238716 0.8476476 
-0.7327517 -0.071700886 0.67670816 
-0.7857038 -0.61832565 -0.01851791 
-0.81095695 0.0020239996 -0.58510244 
-0.2580738 -0.3059817 -0.9163914 
0.31447887 -0.4909804 -0.81242937 
0.4588713 -0.15931202 -0.8741035 
-0.14134043 -0.7040401 -0.6959529 
0.63804126 -0.3812519 -0.6689921 
0.4591729 -0.7716982 -0.44004798 
0.65934837 -0.7508175 0.039154015 
0.8637748 -0.48897976 0.12162221 
0.8635393 0.023036638 -0.5037552 
0.94813955 0.3087742 -0.07543114 
0.9872266 0.06084157 -0.14724772 
0.7703718 -0.4975565 0.398704 
0.4887932 -0.87227565 -0.014716096 
0.46853754 -0.8572132 0.21367793 
0.15686125 -0.835194 0.5271107 
0.11555753 -0.24962428 0.96142304 
-0.62003666 -0.738321 0.26539907 
-0.5452462 -0.82829523 0.12897123 
-0.8226448 -0.53024614 0.20516963 
-0.035422303 -0.86776865 -0.4957044 
-0.3620554 0.8763868 -0.31758785 
-0.424599 -0.2071849 -0.88135695 
-0.19459951 -0.71955234 -0.666615 
-0.4493446 0.80408347 -0.38928077 
-0.30114326 0.16275363 -0.9395871 
-0.049152896 0.03839062 -0.9980532 
0.23490861 -0.05776834 -0.9702993 
0.65881443 0.6516953 -0.3758414 
0.6031207 0.13763182 -0.7856863 
0.7890049 -0.49474728 -0.3642752 
0.9234441 0.29485422 -0.24558528 
0.38688198 0.7952183 0.46685138 
0.19368339 0.7492452 0.63333905 
0.46219167 0.22502652 0.857754 
-0.085229255 -0.09899581 0.99143124 
0.5889598 -0.62780297 0.50891036 
0.73962796 -0.13749534 0.6588213 
0.7100907 0.1420805 0.6896263 
0.32761085 -0.43244654 0.84003645 
0.12902163 -0.56772697 0.8130433 
-0.25442982 -0.91984516 -0.29858056 
-0.40171492 -0.5306048 -0.7463805 
-0.22812721 -0.84222543 -0.4884817 
-0.11698941 -0.9223973 -0.3680988 
0.19336943 -0.21375282 -0.95755845 
0.40086782 -0.52050906 -0.75390667 
0.7313523 -0.68199 0.0036624258 
0.30523044 -0.8206908 -0.48301268 
0.28443116 -0.6629005 -0.6925763 
-0.35724336 -0.1125375 -0.9272069 
0.0739528 -0.05606563 -0.99568456 
0.42377517 -0.60388005 -0.6750878 
0.72058433 0.025749147 -0.6928891 
0.7444912 0.64115256 0.18616202 
0.3335357 -0.16838008 0.9275787 
0.51592624 0.10321827 0.8503918 
0.6201669 0.49276385 0.6103908 
0.54210097 -0.42614922 0.7242399 
0.07601962 0.37123436 0.92542213 
-0.6475722 -0.0505685 0.7603243 
-0.95381814 -0.06323552 0.29365334 
-0.7902344 0.46802446 0.39557913 
0.3329731 0.3982108 0.8547263 
-0.33892682 0.1548977 0.9279738 
-0.44570363 -0.89367414 -0.05191215 
-0.43709385 -0.89684117 -0.06800736 
0.27107087 -0.8127846 -0.51565677 
0.594573 0.38814196 -0.7041511 
0.2764141 0.47211865 -0.8370778 
0.24600035 -0.66489375 -0.70526606 
-0.15946606 -0.54059035 -0.8260343 
0.15028083 -0.736803 -0.6591943 
-0.14682841 -0.4985228 -0.8543516 
0.48205486 -0.79643697 -0.3651183 
0.84062004 -0.5031735 0.2004359 
0.32214394 0.4239429 0.8464608 
0.493917 0.5959797 0.63313055 
0.39939305 0.21146056 0.89205927 
-0.036857143 0.60849464 0.79270154 
-0.5475294 0.41070122 0.72906524 
-0.77799577 0.06475409 0.62492377 
-0.9398264 -0.30878502 0.1462131 
-0.9520425 0.027442178 -0.30473265 
-0.537804 0.65441185 -0.53151864 
-0.60064745 -0.29647428 -0.7425131 
-0.63549834 0.32489482 -0.70041794 
-0.21266592 -0.3252075 -0.9214192 
-0.064469896 -0.74413526 -0.66491085 
-0.3906504 -0.28354907 -0.8757809 
-0.3425316 0.17580654 -0.9229108 
0.91942734 0.16848853 0.35533792 
0.7269362 -0.54946274 -0.41189143 
0.37628755 -0.02674755 0.9261168 
0.15871125 -0.5305049 0.8326916 
0.38793486 0.1415874 0.91074675 
0.5844153 0.13603616 0.79997057 
0.10235572 0.13119204 0.98605883 
-0.07723817 -0.14979976 0.9856948 
0.09852602 -0.30030906 0.9487398 
-0.30923483 -0.34610003 0.88577 
-0.37830222 -0.5956083 0.7086171 
-0.23474556 -0.97192174 0.01620718 
0.10239468 -0.9930385 -0.05822437 
0.6655031 -0.5282146 -0.5273473 
0.74983895 -0.6578503 0.070530854 
0.6299106 -0.6737298 -0.38639465 
-0.12197064 -0.29999474 -0.9461112 
0.4914063 -0.57492906 -0.6541992 
0.563048 -0.6520048 -0.5078058 
0.6134667 -0.5727638 -0.5436914 
0.65064126 -0.62383753 -0.4330044 
0.38097006 -0.8243342 -0.4187303 
0.31101906 -0.9415346 0.12953746 
0.48503184 -0.744883 0.4581414 
0.19722521 -0.5482197 0.8127469 
-0.551056 -0.40597403 0.7290558 
-0.026554182 -0.2500674 0.9678642 
-0.73118323 -0.52999693 0.42950493 
-0.99640864 0.07903241 0.030393047 
-0.81206113 -0.5614746 0.15906897 
-0.46761107 -0.34195974 -0.8151095 
-0.16235174 0.11069543 -0.98050416 
-0.10212754 -0.63261914 -0.7676999 
0.4072342 -0.10993147 -0.9066838 
0.2804301 -0.21124463 -0.9363411 
0.72175735 0.3031468 -0.6222286 
-0.01982815 -0.32243863 -0.94638276 
0.74032587 -0.56647354 -0.36197424 
0.426676 -0.3196297 -0.8460405 
0.23616959 0.48201784 -0.84373146 
-0.023557773 0.17175068 -0.98485875 
-0.18756762 0.5459575 -0.816547 
0.13940637 0.40545106 -0.9034242 
-0.2605363 0.5933751 -0.7615949 
-0.8370087 0.3140979 -0.44806132 
-0.5358026 0.7084636 -0.45934182 
-0.4735239 0.7884285 -0.39262664 
-0.8179643 -0.48524132 -0.30899072 
-0.5952311 -0.0064188633 -0.80352896 
-0.41457373 0.14075519 -0.8990643 
-0.085831955 -0.3470245 -0.93392015 
-0.27150017 0.034760043 -0.96181047 
0.25810024 -0.37940058 -0.888504 
0.53281206 -0.6532078 -0.53798795 
0.9722828 -0.23032251 -0.040219244 
0.82156605 -0.27977285 0.49674594 
0.45505607 0.57138056 0.6829703 
0.17450783 0.7956974 0.5800111 
0.16358885 0.5968025 0.7855352 
-0.020436252 0.038161807 0.99906266 
0.017431332 0.071701355 0.9972738 
0.3872222 0.4795125 0.7874813 
-0.14518504 0.252563 0.95662594 
0.05321138 -0.51453227 0.8558184 
0.19787419 -0.07570909 0.9772994 
-0.28801838 -0.076883815 0.95453364 
-0.6867639 -0.44732246 0.5729381 
-0.843586 0.03781534 0.5356609 
-0.7603676 -0.4669618 0.4514289 
-0.53640884 -0.8178298 0.20837516 
0.0029713046 -0.9984043 -0.056392044 
-0.4116124 -0.86561567 -0.2851049 
0.36243635 -0.92998314 -0.061410386 
0.24512345 -0.9687575 0.03772816 
-0.031236308 -0.97242254 -0.23112516 
0.5951982 -0.74915165 -0.2907076 
0.7217987 -0.68930864 -0.06213074 
0.6277983 -0.76171 0.1602098 
0.22418138 -0.7537168 0.6177813 
0.7419064 -0.33890757 0.57854706 
-0.10886007 -0.38229576 0.91760534 
0.32956266 -0.45119575 0.8293437 
0.6776908 0.44246742 0.58733106 
0.27700466 0.5585127 0.7818772 
0.28251946 0.7258374 0.62717056 
-0.16923808 0.38338822 0.9079493 
-0.09740313 -0.35280225 0.9306144 
-0.7383443 -0.053106964 0.67232984 
0.30404422 -0.5909158 0.74724543 
-0.10269764 -0.54646236 0.8311631 
-0.4955473 -0.86720216 0.048922352 
-0.6351822 -0.516462 -0.57429147 
-0.38726556 -0.45650345 -0.80101824 
-0.29625884 -0.74038076 -0.6033798 
0.05066652 -0.47854438 -0.87660044 
0.5259847 -0.4080761 -0.7461997 
0.97069573 0.043823462 -0.23628262 
0.76985884 -0.07611627 -0.63365906 
0.7924637 -0.47552943 -0.38193345 
0.9119755 -0.33446437 -0.23755929 
0.80921763 0.08694281 -0.58104026 
0.75648004 -0.52633274 -0.38821638 
0.893117 -0.4485146 -0.03430299 
0.8529121 -0.023889976 -0.5215077 
0.9020723 0.35654956 0.24318309 
0.5707828 -0.41205707 0.7102226 
0.68138427 0.43738762 0.58686256 
-0.1407545 -0.010291552 0.989991 
-0.85728616 -0.34548324 0.381709 
-0.43879354 -0.539306 0.7187555 
-0.99684757 0.075365946 0.024800096 
-0.3945543 0.7961336 -0.4588008 
-0.56473297 0.8147826 -0.13117136 
-0.3884432 0.6883932 -0.61255765 
0.11658568 0.97614807 -0.18314673 
0.36774316 -0.2095901 -0.9060006 
0.50466913 -0.22013326 -0.8347756 
-0.102155596 0.53832495 -0.8365228 
-0.7537709 0.53589 -0.38033077 
-0.088305555 0.28940064 -0.95312613 
-0.17930497 0.42042294 -0.88943493 
-0.0074992976 0.88375264 -0.4678942 
-0.56853956 0.0027450856 -0.8226513 
-0.83602583 0.5480111 -0.02728788 
-0.7205444 0.388581 -0.57430005 
-0.4614159 -0.36937243 -0.80663466 
0.4704254 -0.16764724 -0.86636853 
0.8919335 -0.1296169 -0.43319055 
0.95468247 -0.22649431 0.19308487 
0.34958833 -0.57629216 0.7386984 
0.0105150305 -0.30898684 0.95100826 
-0.8713258 -0.37317127 0.31864515 
-0.51868606 -0.6623361 0.5406254 
-0.6046864 -0.55447125 0.5717658 
-0.75475323 0.08371422 0.65064555 
-0.7878731 0.35006723 0.50666445 
-0.8986251 -0.111054055 0.42442918 
-0.9951246 -0.056060385 -0.08114391 
-0.76372826 -0.5221561 -0.37956864 
-0.78695506 -0.24083756 -0.568066 
-0.46259442 0.612803 -0.6406863 
-0.6082717 0.018224351 -0.7935196 
0.19471402 0.7331578 -0.6515874 
0.6255033 0.19726908 -0.7548713 
-0.1423038 0.11046119 -0.9836402 
0.11093263 -0.034688406 -0.99322236 
0.45568174 0.71806675 -0.5260556 
-0.28757367 0.34065345 -0.8951294 
0.4028324 -0.52043414 -0.7529106 
-0.25054148 -0.48060498 -0.8403856 
0.62498814 -0.63534546 -0.45357037 
0.49181855 -0.7264804 0.4799383 
-0.23264445 -0.90284365 0.3615938 
-0.20041937 -0.87774616 0.43519402 
-0.0765253 -0.7593301 0.64619017 
-0.17735207 -0.8811196 0.438377 
-0.3915496 -0.65751976 0.6437055 
-0.842898 -0.52944857 0.0959551 
-0.13444017 -0.7744995 -0.61812335 
-0.14136618 -0.9585267 -0.24747175 
-0.29655027 -0.62971276 0.71799713 
-0.274304 -0.37912706 0.88375336 
-0.043120187 -0.39753005 0.91657543 
-0.97633016 -0.16583996 0.13883966 
-0.8652663 -0.30401197 -0.39861152 
-0.39169455 -0.5246585 -0.7558498 
-0.44545478 -0.6776265 -0.5851431 
0.093904935 -0.98019683 -0.17434458 
-0.15664305 -0.44926232 -0.8795603 
-0.078980014 -0.39454585 -0.91547567 
0.0689931 -0.71969634 -0.6908525 
0.13799077 -0.43861815 -0.8880162 
0.74012494 -0.60350823 -0.2966361 
0.9994873 0.022670835 0.022613779 
0.91050446 0.4050176 -0.083321065 
0.59633726 0.08080512 -0.7986566 
0.83947736 -0.5111442 -0.18441632 
0.7421118 -0.15600999 0.6518673 
0.9461913 -0.31573597 -0.070942044 
0.64120126 -0.7255293 -0.24993648 
0.9191526 -0.3310208 0.2135033 
0.51127297 -0.7151102 0.47667325 
0.1947268 -0.866428 0.45976532 
-0.69548315 -0.71346915 -0.08523488 
-0.58415693 -0.8085432 0.07084202 
-0.15504153 -0.95994776 -0.23337191 
-0.8622285 -0.43527275 0.2590363 
-0.47262704 0.23997842 -0.84795874 
-0.098430045 0.13191214 -0.98636234 
-0.39111003 0.14360236 -0.9090717 
0.03781961 -0.35497633 -0.9341101 
0.18051374 -0.25629303 -0.94959396 
0.4682264 0.35832775 -0.80769145 
0.86361635 -0.2287159 -0.4492836 
0.2590158 0.104201786 -0.96023583 
0.9744595 -0.21325803 -0.07035349 
0.957637 0.2825768 0.05551429 
0.4441788 0.0022738215 0.89593536 
0.07355248 -0.43711215 0.89639443 
-0.0071597337 -0.5663723 0.82411844 
-0.55900234 -0.6785009 0.47660574 
0.28958747 -0.6335683 0.7174471 
0.1840101 -0.8124041 0.5532992 
0.6367906 -0.38060308 0.67055136 
0.25448737 0.3194581 0.9127885 
-0.61731553 -0.20230895 0.7602582 
-0.8386278 -0.5362484 -0.095609 
-0.8878046 -0.45952022 -0.02538376 
-0.053172898 -0.9623252 -0.26665142 
-0.12216716 -0.7699613 -0.62628657 
0.14293383 0.13708079 -0.98019326 
0.76882404 -0.26205564 -0.5832981 
0.56237906 -0.24217209 -0.79062164 
0.485246 -0.7359895 -0.4720761 
0.7815809 -0.03402758 -0.6228751 
0.60175824 0.12734896 -0.78846014 
0.6729223 0.3366058 -0.6586898 
0.98665637 0.1224995 0.10725277 
0.9879361 -0.14861314 -0.04354917 
0.5755374 0.5805543 0.57594573 
0.41597643 0.38456082 0.82406104 
0.07767311 0.4608545 0.8840703 
0.2538531 0.7494338 0.6114799 
0.31374547 -0.11865775 0.9420638 
0.27815965 -0.43684095 0.8554514 
-0.56004304 0.09292703 0.8232354 
-0.8299252 0.5018771 0.24360566 
-0.81454736 -0.02914519 -0.5793645 
-0.8549529 -0.11399074 0.5060254 
-0.5776892 0.025017617 0.8158734 
-0.8542285 -0.15071881 -0.49757186 
-0.7016713 -0.55674446 -0.4446269 
-0.5252699 -0.55552316 -0.64458174 
0.63538605 -0.09032829 -0.7668934 
0.86036044 0.2510451 -0.4435724 
0.2011073 -0.44794166 -0.87115103 
-0.042357016 -0.768608 -0.63831633 
0.6487767 -0.46957886 -0.5988193 
0.6651964 -0.7282054 0.16501698 
0.45588028 -0.8782725 -0.14425892 
0.70622253 -0.61663115 0.3478733 
0.19146806 0.39647248 0.8978583 
-0.5112797 0.3449258 0.787159 
0.1515855 -0.22675952 0.96208215 
-0.43822148 0.36902657 0.81962276 
-0.56971574 0.014790417 0.8217088 
-0.70327294 0.66354626 -0.25517353 
-0.94684184 0.30316836 0.1076077 
-0.8173741 0.29968607 -0.49202424 
-0.65095997 0.5809135 -0.4886621 
-0.72182435 0.28025484 -0.63279295 
-0.8644668 0.38060802 -0.32838225 
0.25366712 -0.28900808 -0.9231075 
0.093579225 -0.85391045 -0.5119374 
0.46577772 0.054492243 -0.88322234 
0.5735435 0.16989605 -0.8013634 
0.71483535 -0.44796956 -0.5369672 
0.8341354 -0.50107855 -0.230518 
0.7130653 -0.2574097 0.6521335 
0.6766871 -0.504087 0.53664786 
0.6733413 -0.3952519 0.62481 
0.47039446 -0.2886986 0.83389586 
0.64628965 -0.004400052 0.7630796 
-0.16393135 -0.8484121 0.5033127 
0.40397832 -0.6415158 0.65211886 
0.19018571 -0.41174528 0.8912324 
-0.30318174 -0.53943527 0.78555113 
-0.58456445 -0.7939766 -0.16698998 
-0.08915943 -0.99365616 -0.06854346 
0.051471286 -0.5921475 -0.8041841 
0.18809395 -0.24947904 -0.94993734 
-0.15428348 -0.7359786 -0.6591905 
0.2253648 -0.33432305 -0.9151169 
-0.22689857 -0.073687285 -0.97112685 
-0.14580256 -0.6537449 -0.74253577 
-0.6673927 -0.278232 -0.69077784 
0.11541056 -0.42582855 -0.8974132 
0.32267264 -0.9051807 -0.2766411 
0.46791166 -0.83866566 -0.27874446 
0.57918 -0.7832893 0.22585051 
0.081913024 -0.5746989 0.8142552 
0.006159585 -0.34788027 0.93751884 
-0.20039955 -0.4532708 0.8685539 
-0.88202447 0.18290532 0.43425623 
-0.90190226 0.020514078 0.4314528 
-0.5727202 -0.8197265 -0.00632028 
-0.25500062 -0.6118838 -0.74871415 
-0.0850301 0.3019999 -0.9495083 
0.09358099 -0.76357055 -0.6389075 
-0.29233992 0.6327083 -0.71708965 
-0.22140007 -0.043083657 -0.97423095 
0.057732705 0.3592248 -0.93146366 
0.62999666 0.06667197 -0.7737306 
0.63065016 0.39199978 -0.6697885 
0.46886268 -0.6704171 -0.5750728 
0.9361747 0.31590512 -0.1542105 
0.7226755 0.6878088 -0.06825854 
0.27610856 0.75187606 0.59870404 
-0.42621163 0.9043362 0.022797087 
-0.63844925 0.7148932 0.28514954 
-0.75607866 0.32701838 0.5669252 
-0.86697644 0.28986847 0.4053741 
-0.63247156 0.77147806 -0.069292866 
-0.92541337 0.3030646 -0.22751267 
-0.8879304 0.052468777 -0.45697546 
-0.44226706 -0.37260082 -0.8158238 
-0.45670295 -0.32533547 -0.8279971 
-0.50111985 -0.22980297 -0.83430785 
-0.36027128 -0.13681795 -0.9227597 
0.28159186 0.21631287 -0.9348342 
0.1792867 -0.7248256 -0.66519487 
0.7673229 -0.49069023 -0.4128422 
0.5621576 -0.75043136 0.34760863 
0.23600917 -0.086445965 0.96789813 
0.5863812 -0.18513016 0.7885962 
0.054191507 -0.8830901 0.46606347 
0.26375708 0.16726026 0.949977 
-0.5321085 0.0352944 0.8459403 
-0.32118964 0.19069955 0.9276157 
-0.017878344 -0.08844049 0.995921 
0.021895465 -0.15587668 0.9875338 
-0.5389142 -0.7149669 0.44541427 
-0.4125861 -0.44852117 0.79284406 
-0.12130019 -0.116108425 0.98580176 
-0.50200087 -0.4938453 0.71000844 
-0.5352104 -0.60521454 0.58929217 
-0.4880302 -0.70238876 -0.51814735 
-0.12218425 -0.43844008 -0.89041644 
-0.19077459 -0.73046154 -0.6557676 
-0.1563767 -0.79423124 -0.5871485 
-0.01541273 -0.9046738 -0.4258261 
0.38780853 -0.69409716 -0.606493 
0.13580279 -0.977431 -0.16182193 
0.47172704 -0.754523 -0.45625496 
0.20194745 -0.73028046 0.6526161 
0.5734882 -0.70930004 -0.409884 
-0.045114186 -0.9411976 0.33483136 
-0.3022035 -0.21150164 0.9294839 
0.40116718 -0.65777576 0.63749206 
-0.11845497 -0.70140874 0.70284724 
0.09662265 0.13708425 0.98583573 
-0.2816234 -0.44579044 0.8496818 
-0.35385102 -0.6842673 0.63762677 
-0.59748816 -0.6070893 0.52388036 
-0.7407199 -0.5978154 0.30651405 
-0.13921663 -0.68660456 0.7135776 
-0.46357182 -0.8228434 -0.32867908 
-0.8254248 -0.15450945 -0.5429556 
-0.0049788826 -0.6030228 -0.7977084 
0.04004523 -0.26120257 -0.96445304 
-0.02648592 -0.6416496 -0.7665405 
0.63121885 -0.3862749 -0.6725731 
0.516823 -0.2600052 -0.815654 
0.3915402 -0.054732207 -0.9185318 
0.867826 -0.49678203 0.009252622 
0.57656527 -0.65740484 -0.4851717 
0.57299 -0.6742432 -0.46591696 
0.6707894 0.32622585 -0.66604674 
0.9430121 -0.1187704 -0.31084058 
0.9467348 -0.2915776 -0.13665919 
0.892896 -0.06296616 0.44583863 
0.99115235 0.09200289 0.09566826 
0.9273585 0.0954527 0.36179414 
0.38355038 0.360109 0.850418 
-0.51363754 0.25033906 0.8206747 
-0.7921275 -0.27958804 0.54255384 
-0.8613673 -0.14357634 0.48727024 
-0.7834474 0.61950547 0.04922607 
-0.62195635 0.7679024 -0.15328497 
-0.3925117 0.8948368 -0.21260723 
-0.5268524 0.8489258 0.041852344 
-0.10840066 0.46960878 -0.87619466 
-0.64528525 0.5764169 -0.5013488 
-0.27481344 0.21380551 -0.9374246 
-0.6811334 -0.2783621 -0.67717934 
-0.57425207 0.10626794 -0.81175226 
-0.10893116 0.79383093 -0.5983031 
-0.40724212 0.89894897 -0.16138345 
-0.95841265 0.23744318 -0.15832251 
-0.7244943 0.68922997 -0.008379861 
-0.69184 0.06943424 -0.71870464 
-0.17857529 0.20536739 -0.9622553 
0.72203016 0.41563654 -0.55309933 
0.27323264 -0.28439724 -0.9189462 
0.714304 -0.69825345 -0.047031134 
0.3080035 -0.90140635 0.30430332 
-0.19682515 -0.18527783 0.9627731 
-0.83163655 0.03230354 0.55438006 
-0.66227204 -0.15861149 0.73228294 
-0.6775619 -0.58855957 0.44103014 
-0.82573205 -0.52725786 0.2004143 
-0.6753529 -0.61669666 0.404455 
-0.9669656 -0.19873637 -0.159629 
-0.9272249 -0.09535934 -0.36216107 
-0.7991855 0.1852955 -0.5718112 
-0.34197676 0.5335097 -0.77357566 
-0.32630187 -0.15717103 -0.93210745 
0.019474486 0.20755881 -0.9780287 
-0.041858476 0.47354227 -0.8797759 
0.21682894 0.7924438 -0.57010365 
-0.17104082 0.8574922 -0.48523414 
-0.16017318 0.30753767 -0.93795794 
-0.3152212 0.6461259 -0.69509494 
-0.48409653 0.28981268 -0.82562655 
-0.5512657 -0.6878298 -0.4722249 
-0.32314578 -0.19255541 -0.92655236 
-0.26910943 0.17117187 -0.9477765 
-0.559299 -0.78599447 0.26343405 
-0.48490065 -0.732262 -0.47818792 
-0.31100696 -0.9503599 -0.0095368745 
-0.112973616 -0.98501897 0.13028724 
-0.1536515 -0.97485226 0.1614133 
-0.066428065 -0.9467919 -0.3149164 
-0.4099171 -0.84085333 -0.35345986 
0.4058843 -0.7146395 -0.5696916 
-0.110257134 -0.8804812 -0.4610815 
-0.2290926 -0.9729972 0.028164852 
-0.35506183 -0.75553596 0.5505421 
-0.5810818 -0.6472483 0.49336967 
-0.96871215 -0.028778981 0.24651292 
-0.6380216 0.33710247 -0.6923081 
-0.3477756 -0.5473755 -0.76120454 
-0.2990449 0.03702729 -0.9535205 
0.40825355 -0.62559545 -0.6648003 
0.61484253 0.04340139 -0.7874547 
0.4457973 -0.34640646 -0.82538915 
0.71527827 -0.1800632 -0.6752439 
0.89072675 -0.24405903 -0.3834594 
0.649495 -0.3908283 -0.6522343 
0.9723921 -0.070729755 -0.22237581 
0.8836719 -0.027612215 -0.46729198 
-0.28252327 0.46405745 -0.8395424 
0.56685203 0.37584507 -0.7330889 
0.4966374 -0.7687145 -0.40302524 
0.4520306 -0.6105384 -0.6503163 
0.46897298 -0.6106841 -0.6380668 
0.7382208 -0.67289186 0.047398623 
0.7187031 -0.66994804 0.18610644 
0.6476824 -0.71544605 0.26200086 
-0.073688604 -0.9937137 0.08428026 
-0.0040597008 -0.9724042 0.23326762 
-0.8468752 -0.48631543 0.2151738 
-0.98077196 -0.03509399 0.19197616 
-0.8357439 0.17352398 -0.5209813 
-0.68666184 0.24075414 -0.6859541 
-0.4577991 0.43601146 -0.7747994 
-0.1860392 -0.0014305908 -0.9825413 
-0.2689834 -0.232126 -0.9347543 
0.49501067 -0.017029744 -0.8687201 
0.686871 -0.027328132 -0.7262654 
0.8949477 0.013120971 -0.4459781 
0.9808993 0.19028896 0.04033275 
0.6181547 0.16376168 0.7688088 
0.031951614 -0.8094378 0.5863357 
0.24201246 -0.78074056 0.5760852 
-0.01979483 -0.94460505 0.32761168 
0.62412447 -0.77693695 0.08268967 
0.65771115 -0.5969643 0.45940143 
0.7402634 -0.5116006 0.4362051 
-0.10660041 -0.7688524 0.6304779 
-0.5607612 0.18481083 0.8070886 
-0.8134052 0.104993 0.57214373 
-0.96847796 0.23458625 0.0837835 
-0.54895353 -0.30713096 -0.77738065 
0.14813845 -0.97861636 0.14270608 
-0.49122247 -0.570957 -0.657806 
-0.29339567 0.014809797 -0.95587635 
-0.2794183 -0.58448684 -0.76177466 
0.07050452 -0.2704273 -0.9601553 
-0.01405019 -0.10259699 -0.9946238 
0.5355891 0.105768315 -0.837829 
-0.07971224 0.29696563 -0.95155525 
0.9877152 -0.13537152 -0.078059964 
0.77486986 -0.6143643 -0.14877215 
0.7622931 -0.5069009 0.40244365 
0.96252483 0.17380719 0.20817545 
0.675996 0.7317742 0.086810075 
0.596963 0.64331394 0.47935635 
0.6784373 0.25531012 0.68886834 
0.49536577 -0.58203846 0.64485973 
-0.5399756 -0.54570425 0.64080673 
-0.9317038 0.079164706 0.354487 
-0.997399 -0.008966499 0.07151855 
-0.5907949 -0.40208527 -0.69949186 
-0.96822137 -0.060093895 0.2427677 
-0.48425728 -0.15335944 0.8613802 
-0.95884764 0.031135077 -0.28220907 
-0.87038267 -0.09682101 -0.4827627 
-0.200675 -0.34022424 -0.9186823 
0.7220065 0.6481871 -0.24199215 
-0.13856182 0.9273601 -0.34756848 
0.2591325 -0.6696651 -0.6959879 
0.25460654 -0.7311003 -0.6329833 
0.84232974 -0.18098399 -0.5076667 
0.70160615 -0.6587738 0.27159914 
0.46115854 -0.87720186 0.1336035 
0.38883454 -0.53609836 0.74927056 
0.11298744 0.021321613 0.9933677 
-0.12588103 -0.493825 0.86040163 
-0.57918024 -0.27883756 0.76602864 
-0.42949212 -0.18526937 0.88386196 
-0.46187928 0.024195056 0.8866128 
-0.64399916 0.23090787 0.7293468 
-0.92101413 0.31638232 0.22723407 
-0.9952045 -0.004164529 0.09772755 
-0.58268183 -0.02834473 -0.81220603 
-0.79933196 -0.08134616 -0.5953581 
-0.9175452 0.3179153 -0.23883212 
-0.38636106 -0.35127646 -0.85283643 
-0.4122554 -0.72442055 -0.55250376 
0.35241127 0.38324317 -0.85377467 
0.032344736 0.59329116 -0.8043379 
0.47188413 -0.6278829 -0.6189414 
0.62902707 -0.6805104 0.37580663 
0.12108752 -0.8737879 0.470991 
0.5399791 -0.8254918 -0.1642738 
0.29822922 -0.94009364 0.16517667 
0.77502644 -0.59125227 0.22305833 
0.7023939 -0.2189093 0.67728996 
0.11398649 -0.65673923 0.74545336 
0.016558375 -0.45673186 0.8894503 
-0.52772874 -0.7345909 0.42647225 
-0.56462896 -0.34160787 0.7513309 
-0.54509896 -0.6452951 -0.53522086 
-0.25438675 -0.8666665 -0.42915806 
-0.12840654 -0.037261654 -0.99102134 
-0.046326354 -0.13526517 -0.9897258 
-0.24727535 0.08169685 -0.965495 
-0.1781059 -0.5417822 -0.8214319 
-0.8378369 0.18950662 -0.51197326 
-0.5965573 -0.06542319 -0.79989946 
-0.15168414 -0.19260292 -0.9694824 
0.018650489 -0.8824266 -0.47008032 
0.014729118 -0.9841483 -0.17673442 
0.30499518 -0.79832304 -0.51928633 
0.9585176 -0.19554503 0.20737943 
0.516735 -0.0036786385 0.8561375 
0.44735318 -0.29479793 0.84437513 
0.19923098 -0.47213337 0.85871834 
-0.35378483 -0.42511004 0.8331374 
-0.77845424 0.16127007 0.6066309 
-0.8714491 -0.4063589 0.27467972 
-0.8100436 -0.5741441 0.119113095 
-0.73642874 -0.11402741 -0.66683626 
-0.3333395 -0.41569236 -0.8462179 
-0.8670918 -0.2237208 -0.4450853 
-0.42448604 0.1547997 -0.89210355 
-0.19540179 0.76358163 -0.61543584 
0.9354194 0.09578351 -0.34031758 
0.5261912 0.68636453 -0.5020225 
0.7838664 -0.08183144 -0.61551374 
0.9000808 0.30837297 0.3078322 
0.9234576 -0.18696758 0.33506593 
0.7324069 0.6066562 0.30910915 
-0.49367875 0.68156374 0.540141 
-0.26337835 0.9312369 0.25185257 
-0.48304167 0.5253694 0.7004697 
-0.5383141 0.12055626 0.83407694 
-0.8399972 -0.12248453 0.5285854 
-0.8992381 0.060341466 0.43327814 
-0.8823015 0.46057218 -0.09704296 
-0.62100375 -0.69911927 -0.35438216 
-0.8511018 -0.49877962 -0.16384375 
-0.8326503 0.42089668 -0.35991612 
0.2672614 -0.013428838 -0.9635306 
0.09889182 0.55581635 -0.8254022 
0.58034503 0.022931384 -0.8140479 
0.83406633 -0.5303165 -0.15198028 
0.6666981 -0.7320333 0.140146 
0.71214724 -0.45814484 0.5319302 
0.62389994 -0.43892643 0.64660066 