# OOMMF: rectangular mesh v1.0
# Segment count: 1
# Begin: Segment
# Begin: Header
# Desc: Time (s) :  4.330000000000004e-07
# Title: m
# meshtype: rectangular
# meshunit: m
# xbase: 2e-09
# ybase: 2e-09
# zbase: 5e-10
# xstepsize: 4e-09
# ystepsize: 4e-09
# zstepsize: 1e-09
# xmin: 0
# ymin: 0
# zmin: 0
# xmax: 1.024e-06
# ymax: 1.024e-06
# zmax: 1e-09
# xnodes: 256
# ynodes: 256
# znodes: 1
# ValueRangeMinMag: 1e-08
# ValueRangeMaxMag: 1
# valueunit: 
# valuemultiplier: 1
# End: Header
# Begin: Data Text
0.5483049 0.10500508 -0.82966 
0.6017543 -0.77123314 -0.20758457 
0.11143018 -0.98715174 0.11451986 
0.6140574 0.025159545 0.78886026 
-0.45871368 -0.8855457 -0.07342114 
0.09568562 -0.94023436 0.32680815 
-0.28807172 -0.9353579 -0.20523214 
0.16617692 -0.977325 -0.13122924 
0.6811461 0.15073752 -0.7164623 
0.5666655 0.69281113 -0.4459856 
0.64031905 0.4038813 -0.653354 
0.22948088 0.64881015 0.7255233 
-0.29540324 0.1817222 0.9379307 
-0.57696784 -0.24968646 0.7776663 
-0.3983678 -0.15275568 0.9044163 
-0.77919865 0.6083915 0.15069628 
-0.25547066 0.003225352 -0.9668115 
-0.18930003 0.72286695 -0.66455173 
-0.75816154 0.35915914 -0.54423875 
-0.7131779 -0.58989114 -0.3786896 
-0.43496373 0.8641282 -0.25315812 
0.1596863 0.17719567 -0.9711344 
-0.44658884 0.66523665 -0.59834653 
0.21357888 -0.12530872 -0.968856 
0.42138076 -0.16679373 -0.8914136 
0.44107723 -0.44680136 -0.77834404 
0.37707305 -0.8775124 -0.2962904 
0.24439102 -0.7643548 -0.5966865 
0.32357493 0.30148283 -0.8968877 
0.7331168 0.14643678 -0.6641507 
0.7580146 0.034954637 -0.65130025 
0.9909005 -0.056771684 0.12203709 
0.85427165 0.28633004 -0.43386075 
0.6962884 -0.45596638 -0.55432594 
0.5182139 -0.8537956 -0.049875606 
0.931944 -0.3298655 -0.15056306 
0.76568526 -0.4550438 0.4546002 
0.28234312 -0.42273557 0.8611487 
0.35221666 -0.28708252 0.8908013 
-0.14144783 0.09725703 0.98515666 
-0.74534255 -0.31648764 0.58677083 
-0.48494497 -0.06874948 0.8718382 
0.048925575 -0.2132884 0.9757635 
-0.4906075 -0.35936996 0.7938246 
0.081119455 -0.5512011 0.8304198 
-0.22956322 -0.09549803 0.96859735 
-0.23184583 -0.66448706 0.71042556 
-0.64816326 -0.316951 0.6924063 
-0.6762583 -0.25453028 0.69129527 
0.19273391 -0.45228052 0.87080204 
-0.0938743 0.26230493 0.96040815 
-0.8888893 -0.19595182 0.4140999 
-0.8667846 -0.49459264 -0.06373843 
-0.598763 0.0517837 -0.7992506 
-0.19102962 0.07364601 -0.9788177 
0.14453562 0.075017534 -0.98665184 
0.66530234 -0.35557446 -0.65646005 
0.5689949 -0.5061204 -0.64814126 
0.6954501 0.6382002 -0.33022684 
0.7453198 0.5617799 0.35902908 
0.70447695 0.70970064 -0.0061086835 
0.25650555 0.57676697 0.7755932 
0.29562014 0.9042866 0.3080172 
0.19761239 0.9456106 0.25839886 
-0.103263475 0.21224122 -0.9717461 
-0.51558614 -0.3857524 -0.7650922 
0.20815602 -0.44457805 -0.87121844 
-0.3914985 -0.35181305 -0.8502685 
-0.15350462 0.06981204 -0.98567873 
-0.431136 0.49833432 -0.7521866 
-0.42285207 0.81115943 0.40400082 
-0.20635182 0.9075019 -0.36586803 
-0.2188559 0.36985344 -0.9029455 
-0.8816343 0.4704396 -0.037517983 
-0.7999305 -0.25448394 -0.5434603 
0.3151501 -0.6548655 -0.6869 
0.1818036 -0.7896588 -0.58599186 
-0.4931169 -0.76331735 -0.41735148 
0.3207694 -0.4061322 -0.85566574 
0.0040086107 -0.1835897 -0.9829948 
-0.2272765 -0.5952695 -0.77071375 
-0.94494414 -0.18115471 -0.27251366 
-0.87631404 -0.2988059 -0.37787414 
-0.6077026 -0.46625203 -0.6428894 
-0.49267086 0.006941546 -0.87018806 
0.33390084 -0.75344825 -0.566415 
0.05569797 -0.9413625 -0.33276772 
-0.54889125 -0.1106525 0.8285375 
-0.8176239 0.069476075 0.5715456 
-0.9830782 -0.18148269 0.02492612 
-0.947006 -0.15312484 -0.28236955 
-0.3482431 -0.9191615 0.1840354 
-0.3753014 -0.7800614 -0.5006527 
0.27729943 -0.91470706 -0.29396614 
0.84205395 0.09282555 -0.5313461 
-0.09472336 0.6849476 0.72240865 
-0.13009244 0.9872964 0.09122406 
-0.20977412 0.9716264 -0.109257005 
-0.42059165 0.89104414 0.17071348 
-0.08432479 0.8292103 -0.55253935 
-0.38011047 0.912469 -0.15138103 
0.13687618 0.9901323 0.03005101 
0.32067224 0.85415107 0.409384 
-0.29070467 0.22166488 0.93078226 
-0.13271444 0.5263064 0.8398742 
0.07249117 0.041430008 0.99650824 
-0.4225946 -0.83726215 0.3469954 
-0.7721454 -0.096238166 0.628116 
-0.64654535 0.6691296 0.36639422 
-0.92913735 0.102410026 -0.35526884 
0.11705242 -0.3607359 -0.92529374 
0.5529682 0.71752894 -0.42353106 
-0.23227587 0.40502536 0.8843091 
0.30384997 0.60451335 0.7363687 
0.21957712 0.22557372 0.94915885 
-0.18574017 0.16140118 0.96925247 
0.033317093 -0.955309 0.29372564 
-0.01719159 -0.95337325 0.30130354 
-0.20919499 -0.86663127 0.45297658 
0.18358402 -0.9774347 0.10449154 
-0.1076271 -0.8482718 0.518509 
-0.7299606 -0.4102931 0.5466417 
-0.46132398 -0.8849886 0.06305093 
-0.65667677 -0.7454542 -0.114340305 
-0.8311756 -0.55494845 0.03434296 
-0.0966468 -0.9578635 -0.27047545 
0.63630074 -0.4290388 -0.6411297 
0.4543435 -0.8872676 -0.07955143 
-0.30892682 -0.65662915 0.6880425 
-0.15967204 -0.28836313 0.94411415 
0.1951312 -0.1421395 0.9704227 
0.05198248 -0.1894035 0.98052245 
-0.11800746 -0.89560527 0.42891213 
-0.47605506 -0.8355722 0.27420932 
-0.3279561 -0.5245133 0.785704 
-0.39081627 -0.7688851 0.50604206 
-0.6673343 -0.6065654 0.43213812 
-0.84638005 -0.029482879 0.5317628 
-0.7716279 -0.6116569 0.17454587 
-0.9726775 0.17228673 0.15561427 
-0.5685214 0.1363286 0.81129396 
-0.9108863 -0.28123417 -0.3019828 
-0.81211174 -0.47644788 -0.33685607 
0.18334286 -0.97388285 -0.13393189 
-0.24799094 -0.9687621 -0.00073411694 
0.05117639 -0.80648065 0.5890416 
-0.43017498 -0.5510008 0.71508574 
-0.40138912 -0.90661377 -0.13014685 
-0.3631279 -0.67226756 -0.6451314 
-0.63278335 -0.16472982 -0.7566039 
-0.13297458 -0.83630395 -0.53189623 
-0.36252758 -0.4513536 -0.8153856 
0.040944844 0.21865602 -0.9749427 
0.82417023 0.059689008 -0.56318814 
0.33486348 0.36632535 0.86814296 
0.21338664 0.75473607 0.6203545 
-0.6171053 -0.29806167 0.7282447 
-0.38666505 0.6183697 0.6841851 
0.005292835 0.9771008 0.21271102 
-0.009604207 0.71591073 0.69812584 
-0.47806638 0.6635064 0.57551014 
-0.6407633 0.71372116 0.28288612 
0.27366522 0.7830519 -0.5585134 
-0.113516234 -0.31374222 -0.9426983 
-0.46147338 -0.2569428 -0.8491306 
-0.17583929 0.30899128 -0.93466836 
0.54724807 -0.21702862 0.8083429 
-0.98195547 0.015504472 -0.18847588 
-0.82967186 0.22007582 -0.5130411 
-0.7797506 0.52086955 -0.34739614 
-0.9593427 -0.28065452 -0.029910292 
-0.285998 -0.6847764 -0.6702883 
-0.33207923 -0.93278784 -0.14010784 
-0.046971742 -0.45208147 -0.8907391 
0.6497593 -0.060814995 -0.75770336 
-0.03863228 0.016534828 -0.99911666 
0.3206565 -0.03852714 -0.94641167 
0.31424838 -0.580098 -0.75148803 
0.4766019 -0.8022563 -0.35949352 
0.7444277 0.15493256 -0.6494793 
-0.04969046 -0.2389875 -0.9697504 
-0.120877914 -0.24936089 -0.96083707 
0.14942211 -0.4272152 -0.89171755 
0.119169265 -0.9711618 0.20650269 
0.36424407 -0.16831915 -0.91596675 
0.3147735 0.07378501 -0.94629467 
0.01918825 0.7780668 -0.6278885 
0.3227998 0.613582 -0.72063684 
0.08414037 -0.14229316 -0.9862419 
0.058602124 -0.5662773 -0.8221289 
0.4301041 -0.26143607 -0.8640959 
-0.51110065 -0.16817091 -0.84290856 
-0.5170463 -0.7626823 -0.38856018 
-0.24694559 -0.8438034 -0.47645968 
-0.4477268 0.30960628 -0.8388592 
0.13168755 -0.528129 -0.8388911 
-0.7831275 -0.6080374 -0.13039161 
0.12257849 -0.64991206 -0.75005925 
0.6540702 -0.49404117 -0.5728138 
-0.1474005 -0.6407518 0.75346565 
-0.011986965 -0.45079893 0.89254504 
-0.42408705 0.13173078 0.89598954 
0.010748483 0.9920273 0.12556401 
-0.26503152 0.8909773 0.36867014 
-0.6547691 0.15430072 0.7399114 
-0.29769105 0.28574803 0.91089416 
-0.63802403 0.24096428 0.7313423 
-0.75797313 0.4254717 0.4944197 
-0.15776831 0.987176 -0.024348965 
-0.6565292 0.7115067 0.250455 
-0.61424047 -0.6426552 -0.4579335 
-0.54376876 -0.8269695 -0.14295872 
-0.35054138 0.36542118 -0.86231565 
0.5548037 0.40336576 -0.72765994 
-0.59232664 0.13483657 -0.7943351 
-0.5167597 -0.50109637 -0.6941627 
-0.9277677 -0.16155338 -0.33637446 
-0.8302037 0.21727195 -0.51337594 
-0.94969785 0.06529176 -0.30628598 
-0.28545615 -0.3264 -0.90109813 
-0.14839424 -0.9183079 -0.3670012 
0.03869499 -0.55489826 -0.83101785 
0.4939044 -0.5175911 -0.698683 
0.6550506 -0.65026706 -0.38478768 
0.870157 0.4475749 0.20616408 
0.77617747 -0.25447628 0.57687986 
0.8621442 -0.057575114 -0.50338125 
0.78718126 -0.39272252 0.4755154 
0.46869335 0.10010243 0.87767094 
-0.3418799 0.45517838 0.8221502 
-0.53729403 0.73797053 0.40830708 
-0.73869884 -0.0038790212 0.6740245 
-0.87996316 -0.2767722 -0.38608536 
-0.9889943 -0.12196028 0.08376131 
-0.7854382 0.60255873 0.14145684 
-0.7578936 0.629367 0.17173986 
-0.5985763 -0.22899224 -0.7676387 
0.40496856 -0.4158411 -0.8142952 
0.1261987 -0.26215687 -0.9567381 
-0.32789004 -0.36285722 -0.8722516 
0.33832154 -0.49817687 -0.79834735 
0.721078 -0.52557236 -0.4514647 
0.7031616 0.68424934 -0.19330466 
0.054024916 -0.40629 0.9121457 
0.8952184 -0.08442225 0.43755803 
0.7067248 -0.5825154 0.40151706 
0.7334789 -0.66629803 0.1343713 
0.6244402 -0.23454714 0.745025 
0.99262285 -0.068363585 -0.100131765 
0.9227727 -0.38523856 -0.00905581 
0.667773 0.016522458 0.74418163 
0.20275348 0.026446108 0.9788727 
-0.099430196 0.003570116 0.99503815 
-0.45958424 0.34917438 0.81661475 
-0.47925866 0.69475454 0.53630894 
-0.6922953 0.5686546 0.44425142 
0.8113202 -0.2678458 -0.5196328 
0.53213996 -0.84414035 0.06522441 
0.046532016 -0.9615648 -0.2706067 
0.20535776 -0.7839545 0.58586997 
-0.104829796 -0.70187134 0.7045477 
-0.20003222 -0.9795133 -0.023259273 
0.38336182 -0.8603677 -0.33585894 
0.5375062 -0.7283997 0.42487752 
-0.24688171 -0.40764397 -0.8791336 
-0.074199736 -0.1336347 -0.98824906 
0.82086533 -0.16901341 -0.54554063 
0.55430514 0.43267873 0.71100986 
0.5848364 0.09835903 0.8051659 
-0.46471024 0.6767964 0.57095635 
-0.672779 -0.4951603 0.5497134 
-0.49194276 0.8074804 -0.32552698 
-0.020224947 0.42201787 -0.9063619 
-0.4611614 0.88169175 0.09974979 
-0.48134467 0.7278012 -0.48848006 
-0.58737504 0.78687197 -0.18927002 
-0.7232629 0.68995976 0.029092062 
-0.21235776 0.6836512 -0.69823015 
-0.7385933 0.6013807 -0.30466592 
-0.51647115 0.0881252 -0.85175794 
-0.013024478 -0.47816867 -0.87817144 
0.63027376 0.0019816852 -0.7763705 
-0.16809258 -0.05361687 -0.98431206 
0.77028567 -0.6371273 0.026996227 
0.6691021 -0.23347412 -0.70554405 
0.85151446 0.10960319 -0.5127479 
0.53874785 0.5191339 -0.6635139 
0.5654566 0.23965655 -0.78919184 
0.58751607 0.5617087 -0.5825018 
0.68274516 -0.6768698 -0.27514794 
0.5969708 -0.80226296 0.00015992396 
0.9690698 -0.22101241 -0.10980616 
0.84112257 -0.40150622 0.3623612 
0.6147665 -0.70222074 -0.35909358 
0.76544845 -0.5273871 0.36871618 
-0.2518004 -0.73441505 0.63026273 
0.16959642 -0.2707842 0.9475827 
0.7134054 -0.38783148 0.5836433 
0.41548067 -0.3227703 0.8504089 
-0.5332816 -0.37412992 0.75870794 
0.4574401 -0.7072701 0.53899693 
0.45150098 -0.070150465 0.8895087 
-0.4658227 -0.19736667 0.8625866 
-0.5603861 -0.6214436 0.54751736 
-0.38619146 -0.56341004 0.73035973 
0.039404996 -0.6023719 0.79724234 
-0.28202602 -0.50676525 0.81464744 
-0.4996134 0.40418252 0.76617414 
-0.92167133 0.26082617 0.28721377 
-0.9926056 0.009098617 -0.121043 
-0.8356509 0.07431364 -0.54421055 
0.05347939 0.5931294 -0.80332905 
-0.112433165 0.4665566 -0.87731624 
0.31702623 0.42752612 -0.84659064 
0.74430346 0.5613447 0.3618073 
0.6894 0.6996861 0.18752901 
0.19344208 0.8298743 0.52334386 
0.18681155 0.80136955 0.5682503 
0.48902628 0.85220397 0.1860157 
0.09957651 0.9932324 0.059783153 
-0.44319585 0.287781 -0.84897554 
-0.08142524 0.38856927 -0.9178147 
0.58998835 -0.055914883 -0.8054734 
-0.13307625 -0.3280474 -0.9352409 
0.2661866 0.40940684 -0.87265736 
-0.5325436 0.82290757 -0.1980416 
-0.15316269 0.9825449 0.10557821 
-0.23754011 0.96650183 -0.09720671 
-0.7114286 0.65978616 0.24197437 
-0.84667945 0.42249897 -0.32346362 
-0.60486746 -0.0018738734 -0.7963241 
-0.3789258 0.04300728 -0.9244273 
0.070331596 -0.16796663 -0.98328066 
-0.05362368 -0.44237003 -0.89522815 
0.46033612 -0.584938 -0.6677861 
-0.4163642 -0.4541146 -0.7876681 
-0.7899295 -0.45379442 -0.41241014 
-0.74950755 -0.12988268 -0.64912945 
-0.45773628 0.36397493 -0.81117195 
0.012206298 0.03593503 -0.99927956 
0.24202277 0.024041204 -0.96997267 
-0.22094408 -0.36396545 -0.9048276 
-0.1854931 -0.5420578 -0.8196131 
0.15691105 -0.6333697 -0.7577743 
-0.9294285 -0.35004193 -0.116762094 
-0.8222634 -0.18554762 -0.53801036 
-0.9933495 0.081820175 -0.08100868 
-0.6168542 0.34990323 -0.70502394 
0.17626745 -0.0904572 -0.9801772 
0.4734001 -0.30058524 -0.82797396 
0.9271717 0.07801484 -0.36642388 
-0.08850513 -0.065089576 0.9939468 
0.8371752 0.5117662 0.19295901 
0.08557166 0.7608325 0.64328176 
-0.33706272 0.75434506 0.56334037 
-0.0693733 0.9777148 -0.19814448 
0.19244464 0.95782536 0.21339083 
0.2975433 0.4779776 0.8264414 
-0.047573365 0.80181235 0.59567916 
-0.43014884 -0.1003666 0.8971614 
-0.80132544 -0.58497936 0.12520695 
0.055486448 -0.9511598 0.30367145 
-0.4320553 -0.23965497 0.86942154 
-0.27872723 0.47090784 0.8369928 
-0.38269338 -0.16724995 0.9086106 
-0.8572341 -0.51356614 -0.037410207 
-0.4286177 0.9014764 -0.06022653 
-0.5632569 0.3441508 0.7512003 
0.113696516 0.16414514 0.979862 
0.0033692503 -0.14802873 0.9889773 
0.28966647 -0.25240138 0.92324805 
0.11647505 -0.23174201 0.9657791 
-0.3017286 -0.083946936 0.9496909 
-0.6971163 -0.70188135 -0.14625825 
0.1375788 -0.92584085 -0.35198122 
0.07540822 -0.9483487 0.30813688 
-0.23835158 -0.97005427 -0.046727076 
-0.34001926 -0.7634459 0.5491242 
-0.11625899 -0.8892954 -0.44230947 
0.11027025 -0.9868262 0.118383646 
-0.5536743 -0.831827 0.038840797 
-0.24975383 -0.91831607 -0.30711332 
0.29287902 -0.95598835 0.017559305 
0.23739791 -0.6194268 0.7482999 
-0.32425898 -0.54934543 0.7701141 
-0.16498798 -0.44604445 0.8796723 
0.033626936 -0.20572416 0.9780322 
-0.12539679 -0.8400386 0.52783614 
0.033939008 -0.30385187 0.95211464 
-0.38880476 -0.56944203 0.7242698 
-0.5376748 -0.20552905 0.81771857 
-0.594185 -0.63641465 0.49185428 
-0.8827167 -0.46278286 0.08150618 
-0.5603935 -0.827315 -0.038846903 
-0.7717944 -0.54148364 0.33335987 
-0.82387096 -0.54207563 0.1655013 
-0.82239693 -0.5178682 0.23553355 
-0.03303564 -0.6286494 -0.77698696 
-0.52654016 -0.8079103 -0.26464435 
-0.000533113 -0.9432654 -0.3320395 
-0.09221197 -0.8329406 -0.5456253 
-0.21774079 -0.9722166 0.08592973 
-0.0043681674 -0.9711783 0.23831446 
-0.36585462 -0.93067193 -0.00051862194 
-0.32714245 -0.7565122 -0.5662749 
-0.8766546 -0.28732187 -0.38590518 
-0.7174173 -0.32388613 -0.61677414 
-0.25213546 -0.39407313 -0.883818 
-0.1299026 -0.22942139 -0.9646197 
0.8993693 -0.3724541 -0.2289388 
0.24633506 -0.15482982 0.95673764 
0.4995027 0.86058897 0.09941661 
0.16179553 0.19516228 0.9673334 
-0.14280088 0.5760116 0.80487186 
-0.27014744 0.56203806 0.78175044 
-0.5472786 0.42415684 0.7215104 
-0.10751658 0.7014282 0.7045841 
-0.33807844 0.9349811 0.107300036 
-0.62659883 0.6590224 -0.41600886 
-0.36492094 0.11034725 -0.9244762 
0.023504471 0.16200961 -0.9865092 
-0.32156608 0.32196218 -0.8904694 
0.24900351 -0.3341185 -0.9090446 
-0.4810004 -0.21029682 -0.85112506 
-0.42259005 -0.7858422 -0.45151943 
-0.4465581 0.16666923 -0.87909454 
-0.8432034 -0.030490201 -0.5367294 
-0.74717236 -0.111398 -0.65522826 
0.10245382 -0.8598926 -0.50008804 
-0.027538298 -0.50693345 -0.86154526 
0.29445392 0.5803727 -0.7592526 
0.12231531 0.2527279 -0.9597748 
0.35617438 -0.19977027 -0.9128152 
0.37349284 0.47877216 -0.7945315 
0.42190492 0.035795625 -0.9059332 
0.29362464 -0.8548192 -0.42786542 
0.4061296 0.22081515 -0.88673526 
-0.447723 0.26547256 -0.8538551 
0.083119735 -0.27670765 -0.9573526 
-0.20583066 -0.08240403 -0.975112 
0.8635816 0.050691523 -0.5016547 
0.78501695 -0.057682343 -0.6167829 
0.5134834 0.39385885 -0.76237136 
0.7186582 0.120258674 -0.6848856 
0.84998626 0.19230472 -0.49045113 
0.8054076 0.30346262 -0.5091456 
0.42539757 0.5624241 -0.7090247 
-0.90829945 0.06765604 -0.4128132 
-0.58145964 -0.443338 -0.68217015 
-0.10189575 -0.4750653 -0.87403107 
0.21055493 0.11017789 -0.9713535 
0.32499483 -0.17976576 -0.9284733 
0.26160613 0.28752038 -0.92135465 
0.6969566 0.24868087 -0.67261386 
-0.040406425 -0.99147713 -0.12385636 
-0.100389384 -0.9949373 0.004659111 
-0.0928719 -0.9234997 0.37218693 
-0.18144451 -0.646385 0.7411237 
-0.2844525 0.9090585 0.30446586 
-0.03692257 0.82776725 0.55985546 
-0.08847356 -0.18817942 0.97814155 
-0.45932057 0.28954434 0.8397552 
-0.95886236 0.20887727 0.19223218 
-0.6963524 0.57986486 0.42290682 
-0.69791096 0.7127325 -0.07023345 
-0.67472965 0.54210913 -0.5008569 
-0.8434259 0.22589706 -0.48744556 
-0.2980958 0.7379561 -0.60544175 
0.5021937 0.67916507 -0.53529096 
-0.061557002 0.9980954 -0.0040386827 
-0.8472048 0.102248274 -0.5213343 
-0.6781664 0.17605233 -0.7135096 
-0.4880633 -0.3146813 -0.81410676 
-0.7667274 -0.36066458 -0.53108406 
-0.4185036 -0.64608806 -0.63829845 
-0.3667587 -0.5654371 -0.73876184 
-0.6034507 -0.0968549 -0.79149634 
-0.22467673 -0.2873704 -0.9310955 
0.5221516 0.4628424 -0.71633416 
0.4877612 -0.7823512 -0.3873185 
0.83933806 -0.14039637 0.5251671 
0.7555853 -0.5096756 0.41148695 
0.7020878 0.65336365 0.28317615 
0.7782257 0.033931408 0.6270674 
0.34168616 -0.51529455 0.785953 
-0.51557505 0.30421802 0.8010205 
-0.9035044 -0.09434306 0.41806614 
-0.8734965 -0.07173152 0.48151696 
-0.3925027 0.65207136 -0.6486484 
-0.48397875 0.73151934 0.48025423 
-0.936769 0.18156067 -0.29916507 
-0.98602355 0.0517639 0.15836085 
-0.90548366 0.393913 -0.1578987 
-0.5302412 -0.4332716 -0.7287798 
-0.5972804 -0.58334106 -0.55042654 
0.22826181 -0.4626194 -0.85666794 
0.4911393 -0.25804254 -0.8319833 
0.81606495 -0.5379831 -0.21121617 
0.7553525 -0.17422472 -0.6317345 
0.215702 -0.81840557 0.532621 
0.7794837 -0.5364717 0.32342428 
0.9126513 -0.024257192 0.40801874 
0.8999722 -0.0033754255 0.43593433 
0.867336 -0.45149386 0.20947959 
0.74567634 0.6505751 0.1439406 
0.8506189 -0.13237955 0.508845 
0.5698967 0.07033356 0.81870085 
0.49288818 0.622089 0.608331 
-0.18665344 0.21090505 0.95952046 
-0.39483854 -0.50274 0.76899624 
-0.33874923 -0.060115285 0.93895423 
-0.97904456 0.04620463 0.19833523 
0.34246558 -0.73831934 -0.5810352 
0.88118124 -0.4391691 -0.17507178 
-0.08703447 -0.6702959 -0.7369726 
0.11286872 -0.8618733 -0.4944038 
0.017922748 -0.9707388 -0.23946798 
0.12316926 -0.7709004 -0.62493354 
0.591742 -0.4584488 -0.66307336 
0.7872199 -0.33363995 -0.5186225 
0.662817 -0.24842046 -0.7063717 
0.8036435 -0.5677029 -0.17852315 
0.82664645 -0.53229684 -0.18252616 
0.58638 0.7757937 -0.23302971 
0.2266902 0.5518361 0.80255127 
0.13953018 0.07104372 0.987666 
0.014171459 -0.06732597 0.99763036 
-0.18091871 0.114494696 0.9768109 
-0.013558649 0.9783821 -0.20636053 
-0.040159635 0.99401146 0.1016287 
-0.3177741 0.80495673 0.5010632 
0.40971947 0.91161466 0.032998033 
-0.59223115 0.79941 0.10102496 
-0.466324 0.7864519 -0.40501302 
-0.3793642 0.8290665 -0.41076955 
-0.35536888 -0.052654613 -0.9332419 
-0.14569011 0.1678957 -0.9749797 
0.48965225 -0.1344157 -0.8614948 
0.14000776 -0.3585149 -0.92296535 
0.29732794 -0.29901326 -0.9067454 
0.8419806 -0.18389957 -0.507198 
0.035565816 0.27625483 -0.9604261 
0.68495715 0.34118178 -0.6437615 
0.0778519 0.8957697 -0.437648 
0.7180644 0.030983888 -0.6952867 
-0.056570467 -0.39005497 -0.91905224 
0.5995738 0.5750363 0.5566368 
-0.12296329 0.9424068 0.31104606 
0.7646489 -0.0819129 0.63922024 
0.9797017 -0.03512064 0.19736049 
0.8220437 -0.4380561 0.36380064 
0.27151498 -0.54298806 0.7946342 
0.2771001 -0.28341678 0.9180907 
0.39938137 -0.458233 0.7940512 
0.272183 -0.473886 0.83746564 
-0.16123621 -0.9654325 0.20479995 
-0.14358518 -0.9553236 0.25834122 
-0.1094655 -0.78415644 0.61083233 
-0.55325556 -0.52459204 0.6470793 
-0.46153527 -0.80110574 0.38107046 
-0.2816619 -0.583422 0.7617647 
-0.42413723 -0.13296598 0.89578325 
-0.17518742 -0.53803504 0.8245167 
-0.24408819 -0.7594449 0.6030461 
-0.30188605 -0.55646205 0.7740897 
-0.61456776 -0.78365254 -0.090528116 
-0.90841144 -0.032727152 -0.41679442 
0.19006494 0.7117556 -0.6762244 
-0.41174397 0.86812365 -0.2771793 
-0.3237348 0.86060977 -0.3931242 
0.19098827 0.9169297 -0.35037607 
0.77077526 0.626197 -0.11740084 
0.5042357 0.4889998 0.71177644 
0.26750025 0.37495735 0.8876095 
-0.285342 0.4524046 0.84493196 
-0.19792017 0.85452855 0.4802173 
-0.85774213 -0.018973673 -0.51372993 
-0.43757448 0.7440324 -0.5049203 
-0.23501255 0.81776744 -0.52538157 
0.024774473 0.8144103 -0.5797605 
0.36669415 0.6008836 -0.7102636 
-0.4243164 0.5800575 -0.69533366 
-0.41491053 0.5582282 -0.7184919 
-0.77362126 0.33009356 -0.54087746 
-0.7093011 0.5152514 -0.48104894 
-0.5620821 -0.34514636 -0.75162333 
-0.41106507 -0.66506517 -0.62346923 
-0.8508907 0.27927113 -0.44496372 
-0.17165406 0.40871194 -0.8963757 
0.032708418 0.42154893 -0.9062156 
-0.14028458 0.36230823 -0.9214408 
-0.4294067 -0.03280918 -0.9025151 
0.019816982 0.34615394 -0.93796843 
-0.23710026 0.3362936 -0.911422 
-0.5239863 0.5719991 -0.63107485 
-0.38449004 0.072272494 -0.92029566 
-0.014457657 0.1502814 -0.9885376 
-0.38292387 0.4822354 -0.7879203 
-0.20787115 -0.46236244 -0.8619807 
-0.029797368 -0.35097143 -0.935912 
-0.65820175 -0.127968 -0.7418859 
-0.7412447 -0.56472516 -0.36282483 
-0.9237469 -0.13920267 -0.35681146 
-0.7108972 0.1918795 -0.6766147 
0.16804135 0.13365018 -0.97667795 
0.6801885 -0.22090714 -0.69895905 
0.941386 0.3358515 0.031563994 
0.98773897 -0.07159857 -0.13872816 
0.68072164 0.65419525 0.32961595 
-0.10728518 0.9828863 0.1497474 
0.15498686 0.74358946 0.6504259 
0.05945867 0.5319348 0.84469527 
-0.19228792 0.61089665 0.76800436 
0.018275017 0.37084574 0.92851466 
-0.7144286 0.3734513 0.59171444 
-0.9803142 0.07705757 0.18178593 
-0.7235383 -0.5709498 -0.3879547 
-0.5578136 -0.7834067 0.27407682 
-0.6169988 -0.64984244 0.44386634 
0.48169628 -0.56664133 0.6684956 
-0.2269406 -0.57242817 0.7879239 
-0.3100252 -0.5005456 0.80829364 
-0.54310673 0.16030629 0.824219 
-0.44076964 -0.7295294 0.522981 
-0.29852837 -0.19559371 0.9341434 
-0.4579921 -0.6833441 0.5685808 
-0.31864262 -0.6096739 0.7257855 
0.0035604956 -0.77166975 0.6360136 
-0.31694627 -0.7391238 0.5943409 
-0.18536311 -0.9822951 -0.027145518 
0.29857695 -0.9451262 -0.13262117 
-0.68738896 -0.69565517 -0.20871148 
-0.47737694 -0.592343 -0.6490309 
-0.69898486 -0.668586 -0.25379714 
-0.37638298 -0.90739787 -0.18698938 
-0.37971038 -0.83948225 -0.3887026 
-0.29668388 -0.90729886 -0.29797235 
0.06392837 -0.9976603 -0.02423141 
0.36108196 -0.8905194 0.2767582 
-0.016640712 -0.88153785 0.47182012 
-0.60048795 -0.7982605 0.046845052 
0.12028727 -0.92673475 0.35594055 
-0.4171665 -0.82459813 0.38211274 
0.014301773 -0.98737496 0.15775406 
-0.288604 -0.2794485 0.91576 
-0.8325138 -0.28044468 0.4777776 
-0.80101687 -0.5962044 -0.053968057 
-0.73594606 -0.56712043 0.3698078 
-0.83327436 -0.55163527 -0.036776487 
-0.7677521 -0.6297898 0.11798936 
-0.72296923 -0.64308196 -0.25250995 
-0.8105109 -0.5551847 -0.18666026 
-0.7792531 -0.61227274 -0.13374147 
-0.35114682 -0.31728077 -0.88092506 
0.06257711 -0.57731247 -0.8141219 
-0.10448427 -0.4035673 -0.90896446 
0.41796577 -0.75535995 -0.5047138 
-0.19275442 -0.767905 -0.6108745 
-0.09978659 -0.9342954 -0.34224942 
-0.90135735 0.057151254 -0.42928857 
-0.89736915 0.14620443 -0.4163567 
-0.24157357 0.013177251 -0.97029305 
-0.3866098 -0.6796441 -0.62339133 
-0.32973704 -0.68512124 -0.6495248 
0.6839428 -0.59474146 -0.4224985 
0.51732504 -0.85287154 -0.07060529 
0.67708236 -0.4062567 0.61360824 
0.94646186 0.2536977 -0.19961824 
0.56910473 0.7579023 0.31891063 
0.52442044 -0.050263464 0.84997463 
0.31000164 0.4166267 0.8545884 
0.1667189 0.719238 0.674464 
-0.18295833 0.58745134 0.7883066 
-0.61338335 0.19673459 0.7648898 
-0.9744385 0.18561126 -0.12656265 
-0.6875411 0.13052186 -0.71431875 
-0.39761156 0.635601 -0.6617526 
-0.10539062 0.72928643 -0.676043 
-0.22067232 0.07183846 -0.9726988 
-0.21877967 -0.31407666 -0.923846 
-0.9560498 -0.28782925 0.05588589 
-0.7452139 -0.3495437 -0.5678693 
-0.41238022 0.066161424 -0.90860623 
-0.31082115 -0.27548316 -0.9096699 
-0.3621354 0.31825727 -0.87611085 
0.2860661 -0.14482924 -0.94720155 
-0.028636735 0.64815193 -0.76097256 
0.57025975 0.39500493 -0.7202603 
0.38215765 -0.022440389 -0.9238247 
0.6602281 0.39292282 -0.64008635 
0.5660612 0.50382555 -0.65248346 
-0.16856454 0.33468193 -0.9271321 
-0.15702003 0.5005269 -0.8513622 
-0.054771006 0.90461755 -0.4226904 
0.022346266 0.2643368 -0.9641715 
-0.082205206 0.22652659 -0.9705298 
0.34653345 0.25699496 -0.9021464 
0.75971127 0.2761804 -0.58869636 
0.34474206 0.6757845 -0.65151227 
0.8324685 0.48004073 -0.2766895 
0.21577193 0.96649987 -0.13899863 
-0.062973596 0.9768201 -0.20458958 
0.46963626 0.8826443 0.019513525 
-0.47029993 0.1261722 -0.8734407 
-0.19164717 0.0012931571 -0.9814631 
0.19472401 -0.15938538 -0.9678218 
-0.08521367 -0.19539991 -0.97701466 
0.37584427 -0.14185093 -0.91576165 
0.29668733 -0.16098616 -0.9413077 
0.19400832 -0.42695802 -0.8832145 
0.72926855 -0.47137848 -0.49595335 
0.29952395 -0.7286924 0.6158676 
0.31701887 -0.91780216 -0.23903598 
0.5482239 -0.8292088 -0.10891915 
-0.15627532 -0.2939763 0.9429507 
0.15224898 0.034074936 0.98775464 
0.0585501 0.12560476 0.99035114 
-0.85299236 -0.06232883 0.5181884 
-0.5897541 -0.07517475 0.8040764 
-0.6938297 0.56455505 0.4470772 
-0.65049905 0.5458201 -0.52813965 
-0.6575544 0.7498069 -0.07356652 
0.4977255 0.8600571 0.11212126 
0.12964016 0.8720348 -0.4719628 
0.1472182 0.9814032 -0.12318561 
-0.51263887 0.7844676 -0.34901598 
-0.82493395 0.31701955 -0.46795592 
-0.95488656 -0.24247801 -0.17145263 
-0.87109554 -0.4422647 -0.2135289 
-0.58913076 -0.23634855 -0.7726994 
0.09618919 -0.6983463 -0.7092673 
-0.41704378 -0.10321572 -0.9030067 
-0.24146469 -0.3621208 -0.900313 
0.43842563 0.15385862 -0.88550025 
0.823623 0.19170474 -0.533755 
0.82237405 0.55600506 -0.12066288 
0.47481897 0.12019835 0.8718367 
0.5897586 -0.07985785 0.8036215 
0.891273 0.18596724 0.41358027 
0.47088453 -0.116989054 0.8744034 
-0.13161932 -0.115817495 0.9845114 
-0.21449855 0.37012962 0.90387744 
-0.7657085 -0.05060109 0.6411942 
-0.95959765 -0.044482946 0.27783737 
-0.6028472 0.4342182 0.6693503 
-0.4965272 0.36555573 0.7872928 
-0.7506881 0.21886672 0.6233497 
-0.6490877 0.7150649 0.2595524 
-0.8891706 0.08050121 -0.45043916 
-0.8651707 0.41139627 -0.28676295 
-0.78824556 0.028853098 -0.61468416 
-0.07325113 0.30185294 -0.95053625 
0.037545625 -0.25954437 -0.96500105 
0.05819114 -0.6620513 -0.7471961 
0.2591583 -0.7261241 -0.63685226 
0.3181525 -0.90547866 -0.28086904 
0.34665927 -0.92083514 0.17857781 
0.6362624 -0.6317841 -0.44274035 
0.8775548 -0.4791127 -0.018673891 
0.9255443 -0.15558125 -0.34519896 
0.95271796 0.15067779 -0.26386523 
0.77530354 -0.5724577 -0.26682696 
0.56880563 0.24862571 0.78399336 
-0.020689318 0.39391539 0.9189139 
-0.15551744 -0.3052725 0.9394802 
-0.24796666 -0.8418855 0.4793134 
-0.75976056 -0.008419772 0.6501486 
-0.45177928 0.8763176 0.16722101 
0.18016502 -0.41838267 -0.8902227 
-0.0068019177 -0.035479657 -0.99934727 
-0.22515312 -0.1348443 -0.96494716 
0.22151874 -0.82733715 -0.516181 
0.36346853 -0.46743903 -0.8058482 
0.22436541 -0.6360305 -0.73832613 
0.7541355 -0.36146858 -0.5482884 
0.64198136 -0.24761145 -0.72563666 
0.48170105 0.21953264 -0.8483923 
0.8516414 -0.059046637 -0.52078843 
0.92175925 -0.37195924 -0.10957297 
0.8316731 0.43335715 0.347162 
0.26267412 -0.024051158 0.9645849 
-0.29648837 0.18768163 0.9364136 
0.6112133 0.41591612 0.67337364 
-0.13410501 0.4625368 0.8763993 
-0.6127233 0.5552378 0.5623888 
-0.23802622 0.28025648 0.92994624 
-0.5200689 0.519229 0.6781811 
0.08853032 0.9534837 0.28815156 
-0.37420833 -0.030275766 -0.9268504 
-0.4819172 0.6214351 -0.617717 
-0.5954768 -0.11944035 -0.79444414 
-0.23432177 0.020487212 -0.9719432 
0.41461036 -0.31161943 -0.85498047 
0.22402366 0.3493132 -0.9098317 
0.5862482 -0.03747656 -0.80926424 
0.29090956 -0.36370468 -0.8849241 
0.62256473 0.09574645 -0.77668905 
0.34310347 0.7846371 -0.51635706 
0.25265574 0.7656849 -0.5915166 
-0.3784312 0.6709526 -0.63766176 
0.48022193 0.09350729 -0.8721487 
0.6577297 0.74934775 -0.076614134 
-0.032280196 0.22354354 0.97415924 
0.15195736 0.62196696 0.7681576 
0.6430421 -0.30141178 0.7040226 
0.70043457 0.050516076 0.71192664 
-0.40355924 0.03686974 0.91421044 
-0.13354655 -0.27705827 0.9515272 
0.2658399 -0.88789034 0.3754732 
0.501641 -0.8579649 0.11069122 
0.054942317 -0.6935783 0.7182831 
-0.28504154 -0.93099827 -0.22802137 
-0.46292904 -0.83537966 0.29637417 
0.065556 -0.94630635 0.3165546 
0.14422947 -0.9160725 0.3741778 
0.027737545 -0.9996146 -0.0011887995 
-0.035236824 0.24894756 0.9678758 
-0.8650355 -0.23885888 0.44120294 
-0.4336431 -0.5320073 0.7272702 
-0.49551767 -0.46682295 0.7324879 
-0.7509585 -0.53193724 0.39128527 
-0.9793208 -0.18818668 0.07427397 
-0.6929132 -0.14832838 -0.70559907 
-0.30692008 0.19438484 -0.93167305 
-0.07320216 0.3707042 -0.9258618 
-0.17439549 0.875707 -0.45024842 
0.045190465 0.7761301 -0.6289516 
0.80347824 0.579064 -0.1382307 
0.5249446 0.6942229 -0.4924304 
0.53992546 0.82029885 0.18865412 
0.15190445 0.83641446 0.52662694 
-0.3372978 0.94026697 0.04613388 
-0.7203876 0.60636747 -0.33669022 
-0.6300475 0.7515452 -0.19549966 
-0.38557145 0.91825145 0.090271644 
-0.022330817 0.9210371 -0.38883448 
-0.17738974 0.9316583 -0.31708938 
-0.63896585 0.7683907 -0.03603472 
-0.48847097 0.77722144 -0.39663953 
-0.32271567 0.60015875 -0.73189086 
-0.6636756 0.51954234 -0.5381548 
-0.14570609 0.0799218 -0.9860944 
-0.044217862 -0.07159844 -0.996453 
-0.06298761 0.39408284 -0.91691405 
-0.7615164 0.6369644 -0.11987147 
-0.6520099 0.72921306 -0.20768106 
-0.43748197 0.6860266 -0.5813581 
0.39695743 0.5651961 -0.7231724 
0.4864565 0.041994665 -0.872695 
-0.2437658 0.22855331 -0.9425188 
-0.5874858 -0.4412635 -0.6783414 
-0.764299 0.15550978 -0.6258305 