# OOMMF: rectangular mesh v1.0
# Segment count: 1
# Begin: Segment
# Begin: Header
# Desc: Time (s) :  4.4500000000000045e-07
# Title: m
# meshtype: rectangular
# meshunit: m
# xbase: 2e-09
# ybase: 2e-09
# zbase: 5e-10
# xstepsize: 4e-09
# ystepsize: 4e-09
# zstepsize: 1e-09
# xmin: 0
# ymin: 0
# zmin: 0
# xmax: 1.024e-06
# ymax: 1.024e-06
# zmax: 1e-09
# xnodes: 256
# ynodes: 256
# znodes: 1
# ValueRangeMinMag: 1e-08
# ValueRangeMaxMag: 1
# valueunit: 
# valuemultiplier: 1
# End: Header
# Begin: Data Text
-0.899533 -0.0005572172 -0.43685263 
-0.93924195 0.1346965 -0.3157238 
-0.97359157 -0.22190611 0.053639337 
-0.87684834 -0.47744384 -0.056431424 
-0.3080669 -0.93864834 -0.15502895 
-0.5645521 -0.7740986 0.2864478 
-0.6681028 -0.7126131 0.21405904 
-0.14905858 -0.7029845 0.69540954 
-0.8066504 -0.3424247 0.48172674 
-0.75968903 0.061415195 0.64737993 
-0.9850914 0.11070603 0.13167812 
-0.7172039 -0.19931251 -0.6677523 
-0.14063197 0.17883192 -0.97377706 
-0.09645547 0.10458343 -0.98982763 
-0.12722412 0.019326178 -0.9916857 
-0.37357754 0.20859642 -0.9038404 
-0.5923663 -0.12634422 -0.79570067 
0.548939 -0.83448696 -0.047932576 
0.2802763 -0.73270833 -0.6201482 
0.12636317 -0.60834306 -0.7835504 
0.5350541 -0.26342884 -0.80269706 
-0.27201357 0.60579425 -0.7476778 
0.66987836 0.18968813 -0.7178311 
0.6224598 0.32394907 -0.7124611 
0.4487155 -0.19165853 -0.87288105 
0.66890895 0.7258517 0.16031274 
0.048390623 0.67319787 0.7378774 
-0.12583916 0.18963262 0.9737576 
-0.47930536 0.5766758 0.66159767 
-0.83308977 -0.1325899 0.5370115 
-0.5609392 -0.7771848 -0.28518596 
-0.4925374 -0.8477057 0.19698201 
-0.4653181 -0.43225873 0.7724193 
-0.5826995 -0.32208267 0.74613947 
-0.3380822 -0.90343595 -0.26363596 
-0.9721811 -0.17811006 -0.15212062 
-0.72322625 -0.6566047 -0.21404244 
0.43175367 -0.87906164 -0.20208743 
0.6544621 -0.67951816 0.33156362 
0.19592057 -0.7036113 -0.68304193 
-0.22833684 -0.73055017 -0.6435517 
0.192678 -0.87644684 -0.44126654 
0.618277 -0.64786726 -0.44497365 
0.9709048 0.23372671 0.05211355 
0.57212126 0.57369006 0.58613735 
0.26961395 0.06844211 0.96053326 
-0.18456453 -0.11535559 0.9760272 
-0.5095425 -0.66235495 0.54922885 
0.07495439 0.46777633 0.8806629 
0.03752495 0.1975694 0.97957045 
-0.021516241 0.20134203 0.9792847 
0.73733675 0.12253011 0.6643199 
0.5177147 0.3092156 0.79772013 
0.54620045 0.38030204 0.74634814 
0.26442155 -0.24691272 0.93226355 
-0.76995754 -0.11201374 0.62818646 
-0.72623664 -0.53976554 0.4257154 
-0.66135275 -0.72430927 0.1949067 
-0.7514672 -0.3337739 0.56911516 
-0.55775094 -0.77649784 0.29319805 
-0.0688453 -0.7057643 0.7050937 
-0.42386407 -0.8457889 -0.32400677 
-0.08355298 -0.99597657 -0.03239807 
-0.37390906 -0.91836905 0.12957756 
-0.16514967 -0.94420844 -0.28494915 
-0.014327101 -0.8281249 -0.56036055 
0.33741596 -0.6532665 -0.67778563 
-0.20822215 -0.14215118 -0.9676966 
-0.4521799 -0.13178043 -0.88213795 
-0.1815766 -0.78950125 -0.58627445 
0.7760416 -0.07210791 -0.6265461 
0.98550916 -0.13174406 0.106842555 
0.78759277 -0.61362934 -0.05618463 
-0.0030387072 -0.81753385 0.5758726 
-0.6619965 -0.3055466 0.68439907 
-0.74963707 0.05052521 0.65991783 
-0.8505716 -0.44578108 -0.2789398 
-0.31133354 -0.49950346 -0.8084354 
-0.66252226 -0.51235116 -0.546407 
-0.112914704 -0.3791405 -0.918424 
-0.33661222 -0.7935283 -0.50695676 
-0.60333496 -0.4405402 -0.66476417 
-0.5142108 0.26726016 -0.81495965 
1.8545483e-06 -0.05694729 -0.9983772 
-0.34905356 -0.5238797 -0.77698886 
-0.113591276 -0.6281343 -0.769769 
-0.32643524 -0.7538612 -0.57020485 
0.10775938 -0.60097075 -0.7919736 
0.20302354 -0.7306814 -0.651833 
0.6549511 -0.27784908 0.7027368 
0.37357548 -0.33029777 0.8668015 
-0.40165892 -0.0022013162 0.9157867 
-0.20698562 -0.03233773 0.9778094 
-0.8167103 -0.50178105 0.28495666 
-0.8437895 -0.28570455 0.45430413 
-0.8237911 0.3931821 -0.4083824 
-0.5919231 -0.37213996 -0.71493983 
-0.6743828 -0.60351497 -0.42541456 
-0.52336216 -0.73684555 -0.42796102 
-0.69768095 -0.6396148 -0.3226985 
-0.8821463 -0.2960229 0.36631748 
-0.6146749 -0.20834376 -0.76076776 
-0.47679478 -0.87083936 -0.11960625 
-0.3724796 -0.3883745 -0.8428667 
-0.4613353 0.116761476 -0.8795093 
-0.17395595 -0.20266426 -0.96367353 
0.8987681 -0.07771013 -0.4314824 
0.5941808 -0.3616687 -0.71843237 
-0.20610732 -0.8317315 -0.51550215 
-0.99973863 -0.022404829 -0.0045487396 
-0.8111718 0.1273818 -0.57076645 
-0.5955304 0.4257993 -0.6812037 
-0.95598435 0.1872879 -0.22586982 
0.34822306 -0.32587847 -0.8789448 
-0.17071009 -0.3304077 -0.928272 
0.89119774 0.35509154 -0.28227067 
0.13473518 0.2213107 -0.9658509 
-0.87197626 -0.23713633 -0.42828014 
-0.57752055 -0.110932104 -0.8088042 
-0.23597133 -0.8679336 -0.43704566 
-0.29770046 -0.87495375 -0.38187766 
-0.24371979 -0.30280632 -0.9213626 
0.3724907 -0.14474578 -0.9166785 
0.28104347 0.042218667 -0.958766 
0.62316996 0.11025851 -0.7742753 
-0.6028475 0.21963695 -0.7670297 
0.760969 0.58347577 -0.28369406 
0.918602 -0.29904553 -0.2583451 
-0.6176617 0.2348713 0.7505529 
-0.8643718 0.035097506 0.50162697 
-0.27554142 0.6257258 0.7297563 
-0.54529035 0.16959542 0.8209116 
-0.95512706 -0.18444915 -0.23175626 
-0.90633774 0.27872807 -0.31758866 
-0.9890345 0.075453736 0.12695494 
-0.8330676 0.42832094 -0.3500567 
-0.40172303 0.56358194 -0.72179925 
-0.6963641 0.5984475 -0.39615357 
-0.43938774 -0.7132264 -0.5461196 
0.38614056 -0.9027781 -0.1894393 
0.13686217 -0.98953396 0.045730606 
0.32182446 -0.90645355 0.27344313 
0.38823718 -0.4282764 0.8159972 
0.02013662 -0.32483396 0.94555676 
0.39619622 0.21097462 0.8935985 
-0.14328542 0.10959584 0.98359454 
0.21911807 -0.49567953 0.84041005 
-0.4025624 -0.39999664 0.82337487 
-0.858619 -0.32090864 0.39973873 
-0.9814226 -0.17611988 -0.07610239 
-0.82379466 -0.50936127 0.24882437 
-0.68558997 -0.72759694 0.02385578 
-0.15571478 -0.9288059 0.33626273 
0.25744814 -0.27761176 0.92555505 
-0.33062562 -0.17890653 0.9266494 
-0.7026275 -0.678581 0.21410891 
0.5832131 -0.77572215 0.24107605 
-0.47868305 -0.8762667 -0.05494848 
-0.7670393 -0.624659 0.14646488 
0.13332346 -0.91712457 0.37564284 
0.6916077 -0.61066586 0.385702 
0.5563914 -0.63993365 0.5300129 
-0.4794338 -0.23431823 0.8457176 
0.41145262 -0.1507948 0.8988702 
-0.03352532 0.5538777 0.8319228 
0.4177558 -0.028764429 0.9081039 
-0.047622494 0.36321178 0.9304888 
-0.9633328 -0.12162984 -0.23915721 
-0.9109587 0.38448697 -0.14941283 
-0.8930022 0.41358984 0.17745596 
-0.8935978 0.21216655 0.395561 
-0.883333 0.24757197 0.39803374 
-0.5998453 0.54304516 0.5876119 
-0.97514164 0.21155268 -0.065910734 
-0.940579 0.27764642 -0.19550891 
-0.44263202 -0.73238087 -0.51739275 
-0.7497193 -0.62244993 -0.22467126 
-0.1497431 0.094321 -0.98421574 
-0.36275885 -0.08333198 -0.9281497 
0.023759302 0.262373 -0.964674 
-0.12835094 -0.72765267 -0.6738306 
0.04788876 -0.6966815 -0.7157805 
-0.060478196 -0.99816936 0.0005271034 
-0.4520879 -0.29126227 -0.8430793 
0.5914347 0.49622628 -0.63558203 
0.53296447 0.5688136 -0.62641835 
0.55393124 0.3036747 -0.7752044 
-0.121986575 0.8129362 -0.56943303 
-0.3108444 0.849864 -0.42556646 
-0.47958383 -0.26300058 -0.837156 
0.2812989 0.23937692 -0.9292845 
0.64492023 -0.68975323 -0.32911766 
-0.4125257 -0.31809756 -0.8536021 
-0.1003922 -0.22733578 -0.96862787 
0.20892024 -0.59033453 -0.7796522 
-0.5147811 -0.508873 -0.6899628 
0.27739188 -0.8507554 -0.44639564 
0.10431226 -0.9485196 -0.29904765 
0.9113747 -0.29196104 -0.29009467 
0.93707633 -0.32822645 0.11897656 
-0.039188128 -0.0556376 0.9976817 
0.36675662 -0.6163172 0.69688076 
0.14316988 -0.7983553 0.58492005 
0.17045271 -0.7711374 0.6134273 
0.8324514 -0.36416876 0.4176191 
0.40624604 -0.61062205 0.6797829 
-0.078370616 0.24068661 0.96743375 
0.5977331 -0.23331517 0.7669937 
0.17973535 -0.23352417 0.955595 
0.47196138 -0.13499254 0.87122303 
0.7205654 0.38926673 0.57380927 
0.06165148 -0.59438056 0.8018173 
-0.6959426 -0.45329803 0.5569424 
-0.13363737 0.45497847 0.88041794 
-0.16961071 -0.11271574 0.97904414 
-0.6131105 -0.2803468 0.73858064 
-0.4589754 -0.5027653 0.7325085 
-0.8583871 -0.5115392 -0.038721077 
-0.8206966 -0.20317212 -0.5340209 
-0.064782724 0.20816834 -0.9759453 
0.050568454 0.50422204 -0.8620922 
0.37713692 0.76402223 -0.52348626 
-0.03688058 0.5162459 -0.855646 
-0.95075846 0.08560165 -0.29787728 
0.17284726 -0.63600975 -0.75207406 
0.35564607 -0.91459894 -0.19241777 
0.9042635 -0.22913307 -0.36028546 
0.22358036 -0.7699241 -0.5976862 
0.27072728 -0.9017817 -0.33689272 
0.3478042 -0.49754462 -0.7946581 
0.9075323 -0.37213126 -0.19468874 
0.709662 -0.36865312 0.6003955 
0.8300889 0.4311723 0.35361397 
-0.6249769 0.656228 0.42281052 
-0.8570536 0.4645423 0.22284459 
-0.9530488 0.23683421 0.18869951 
-0.96817404 0.06467822 0.24177638 
-0.8982561 -0.27675834 -0.34138083 
-0.5942728 0.06764189 0.801414 
-0.7476485 0.25582743 -0.612841 
-0.27064386 0.83697134 -0.47563744 
-0.34749642 0.3607481 0.86550975 
-0.18013123 -0.44379342 0.8778384 
-0.55658543 -0.76005876 0.33544534 
-0.32868275 -0.8987837 0.29009593 
-0.80963486 -0.21532951 -0.5460079 
-0.54907095 -0.71736735 -0.42884174 
0.5723428 -0.35644776 -0.73849094 
-0.500027 0.054044727 -0.8643219 
-0.75726295 -0.45356366 -0.4699286 
-0.46022725 -0.36043873 -0.8113414 
-0.39790863 0.108119085 -0.91103184 
0.014214168 -0.97358006 0.2279035 
0.20635942 -0.68249446 -0.7011542 
-0.4155475 -0.88056 0.22789161 
-0.27207893 -0.89990735 0.34079313 
-0.46447286 -0.8060724 -0.36675927 
-0.87214345 -0.0130337775 -0.48907673 
-0.43801874 -0.4910217 -0.7530188 
-0.7136328 0.026724016 -0.7000101 
0.20860322 0.50468576 -0.8377213 
0.3743909 -0.79873514 -0.47101355 
0.09661648 -0.9038214 0.41685978 
-0.8458315 -0.34357992 0.40807092 
-0.5039645 -0.32993063 0.7982266 
-0.5245222 -0.600314 0.603738 
-0.34600988 -0.8799632 0.3254872 
-0.34911212 -0.5305336 -0.77243435 
-0.25967067 -0.36023438 -0.89599246 
0.006078778 -0.12139305 -0.9925859 
-0.17145707 -0.2563125 -0.95126575 
-0.58211905 -0.08074937 -0.80908406 
-0.30810988 -0.02813133 -0.9509348 
-0.28792846 -0.7780396 -0.5583473 
-0.1335428 -0.71913993 -0.6819121 
0.64946693 0.27694044 -0.7081644 
0.51378417 0.4392503 -0.73694307 
0.81254214 0.58053416 -0.05249171 
0.51753855 0.7543114 -0.4039409 
0.789159 0.6022543 -0.120491095 
0.6072572 0.5349491 0.587425 
-0.014484764 0.74506676 0.66683257 
-0.14252275 -0.10788544 0.9838944 
-0.5039991 -0.24156003 0.82923687 
-0.02439889 -0.22550242 0.9739371 
-0.5568233 0.26320338 0.78782725 
-0.7424068 -0.6563269 0.13441473 
-0.42315066 -0.4726201 0.773029 
0.2654551 -0.95105696 -0.15819068 
-0.046341658 -0.9789444 0.19879746 
-0.53077924 -0.8033811 0.26991153 
-0.384503 -0.65449226 0.6509972 
-0.04201624 -0.93453985 0.35336933 
0.07159442 -0.9132975 -0.4009513 
0.35950994 -0.66413355 -0.6554992 
0.010801164 -0.6830442 -0.73029727 
0.031209081 -0.564066 -0.82513976 
0.35772452 -0.6416193 -0.6784967 
0.8097866 -0.41823563 -0.4114907 
0.87857705 0.06257068 -0.4734843 
0.7929197 0.5361013 0.28961006 
0.5008777 -0.3964558 0.7693792 
-0.012755623 -0.20955077 0.9777146 
-0.6543917 -0.2430934 0.71601474 
-0.7683172 -0.095952354 0.63283634 
-0.060956277 0.10893953 0.9921777 
-0.12284524 -0.08797905 0.9885185 
-0.40850702 0.59667677 0.6907235 
0.36243984 0.66850454 0.6494144 
-0.59457314 0.11082859 0.79636663 
-0.5659412 -0.7598425 0.31992212 
-0.8214669 -0.49368915 0.28541762 
-0.6958642 -0.48655036 0.528244 
-0.10888679 -0.92196465 -0.37165177 
-0.27368388 -0.53599876 0.7986254 
-0.19745603 -0.9802976 0.0052607898 
-0.22003418 -0.92053705 -0.32279482 
-0.17523496 -0.5087426 -0.84289604 
0.09768635 -0.92673576 -0.3627924 
-0.13872378 -0.9861349 -0.09106986 
-0.7024553 -0.23019525 -0.6734737 
0.34382153 -0.64355844 -0.68382704 
0.3611328 -0.22449143 -0.90508944 
0.29218498 -0.3611476 -0.885551 
-0.1318342 0.6416928 -0.7555462 
0.51667327 -0.81209725 -0.27119526 
0.71991754 0.3547734 -0.5965355 
0.89877 0.38888773 -0.20243277 
0.79097986 -0.32436675 0.5187843 
0.49610895 -0.25722507 0.8292835 
-0.44575348 -0.28929967 0.84711844 
-0.5766755 -0.43743184 0.6899992 
-0.4054554 -0.7968151 0.4479862 
-0.73744357 -0.6374483 0.22324131 
-0.9043308 -0.4234759 -0.05342403 
-0.41343957 -0.7857464 -0.4600765 
-0.12232917 -0.62132317 -0.7739464 
-0.7761872 -0.49636623 -0.38878533 
-0.35376808 0.540163 -0.76359165 
-0.20124754 0.38739362 -0.8996809 
-0.11681751 0.22367395 -0.9676382 
-0.029366627 -0.44945052 -0.8928224 
-0.02963394 -0.33015114 -0.9434628 
0.38784364 -0.7394085 -0.5503203 
0.7894568 -0.47427535 -0.3896421 
0.8937648 -0.4460124 -0.04751281 
0.13329841 -0.1563908 0.9786591 
-0.18278047 0.19776441 0.96305794 
-0.2607878 -0.2922945 0.9200836 
-0.008424508 -0.99995285 -0.0048330375 
-0.8874085 -0.43500832 -0.15255791 
-0.6703689 0.06513846 -0.7391634 
-0.6179483 -0.34400705 -0.70696473 
-0.6142521 -0.7656037 -0.19116858 
-0.6724924 -0.55375 -0.49103466 
-0.45830077 -0.7682189 -0.44699004 
-0.35637867 -0.26069468 -0.8972361 
-0.4699357 -0.8086243 -0.3539593 
-0.614981 -0.6482152 -0.44901615 
-0.68656003 -0.33176675 -0.646967 
-0.37246588 -0.4804062 -0.7940272 
0.118714646 -0.27052754 -0.95536476 
-0.28818974 0.079984434 -0.954227 
0.4095548 0.43540928 -0.80167556 
0.15992306 0.8666467 -0.47259718 
-0.40718025 0.81604564 -0.41021198 
-0.4815633 0.66577274 -0.56995046 
-0.40312305 0.83661103 -0.37090942 
-0.74396 0.50156355 -0.44153994 
0.11146094 -0.37052128 -0.9221119 
0.5197621 -0.20221981 -0.8300329 
-0.3424617 0.40746015 -0.84657925 
-0.05307353 0.7574029 -0.65078735 
-0.3086965 0.46936896 -0.82728434 
-0.14040042 0.17065261 -0.9752772 
-0.38162768 -0.4678372 -0.7971755 
-0.19339575 -0.4075201 -0.8924828 
0.17427541 0.19863671 -0.96445405 
0.23351587 0.0443658 -0.97134036 
0.2355314 0.008805294 -0.97182685 
0.5566984 0.27691582 -0.7832015 
0.5903667 0.053101853 -0.8053865 
0.75399494 0.20750944 -0.62324274 
0.90313673 -0.32606128 0.2793352 
0.58501166 -0.38106942 0.7159243 
-0.13923235 -0.5052385 0.85167396 
-0.088803075 0.13553643 0.9867847 
-0.9159209 0.25415647 0.31063408 
-0.8911681 0.13450816 0.4332747 
-0.668601 0.69641256 0.26073426 
-0.56911504 0.584453 -0.5783795 
-0.806584 0.019231986 -0.5908065 
-0.65856296 0.7517337 0.03451759 
-0.9405792 0.053786222 0.3352878 
-0.7595109 -0.4645182 0.45537463 
-0.5464909 -0.6770467 0.49290526 
-0.4983163 -0.84413785 -0.19776833 
0.84425 -0.53516304 -0.029023957 
0.43233487 -0.8535875 -0.2906457 
0.40628013 -0.88953674 0.20895194 
0.17276697 0.23941475 0.9554225 
-0.47338483 -0.10383767 0.87471396 
-0.44689944 -0.23597886 0.8628992 
-0.17982377 -0.77585286 0.6047445 
-0.69248974 -0.6426945 0.32772213 
-0.95483965 -0.27215973 -0.11920696 
-0.8588895 -0.0268684 -0.51145583 
-0.732738 -0.53585297 -0.4194719 
-0.3876351 -0.9126832 0.12941644 
-0.6977926 -0.5254079 0.4868595 
-0.7757313 -0.52896625 0.3441448 
-0.8024966 -0.5216242 -0.2896676 
-0.6492085 -0.286683 -0.7045149 
0.43101627 -0.75889045 -0.48817053 
-0.12849756 -0.9512121 0.2805067 
0.015920276 -0.8505145 -0.52571076 
0.84923875 -0.49453288 0.18501574 
0.651082 -0.58164424 0.48762923 
0.35097897 -0.5207976 0.7781926 
0.756644 -0.24306585 0.606967 
0.890255 0.17132488 0.4220117 
0.23795234 -0.22145145 0.94569445 
0.11358397 0.3206615 0.94035894 
-0.24811338 0.9187536 0.30713436 
-0.3628009 0.92966235 -0.0640581 
-0.2517365 0.91625226 0.31162563 
-0.655192 0.6258988 0.42305344 
-0.8720935 0.39257523 -0.29212615 
-0.78932166 -0.15752767 0.59342766 
-0.8651552 -0.10844765 0.4896384 
-0.78410506 -0.15364243 0.60130954 
-0.7645489 -0.30893943 -0.56570446 
-0.54737985 -0.3593311 -0.7558152 
-0.037247676 -0.9059567 -0.4217288 
-0.11009632 -0.2601271 -0.9592772 
-0.3943889 0.11590236 -0.9116052 
-0.01266665 0.0048953188 -0.99990785 
-0.07739939 -0.66419697 -0.74354005 
0.13103572 -0.87324446 -0.46933347 
-0.5452544 0.37459755 -0.74991626 
-0.081082396 0.6328632 -0.7700063 
-0.16438346 0.40435 -0.8997106 
0.3488898 0.1897192 -0.91775954 
-0.54303885 0.6817415 -0.4902422 
-0.042900182 -0.051763047 -0.9977376 
-0.19871086 -0.4687306 -0.8607007 
-0.031660195 -0.41115332 -0.91101635 
0.07908495 -0.8321287 -0.54891473 
0.07115179 -0.66871727 -0.7401045 
0.056489725 -0.46347755 -0.88430625 
0.31136745 -0.5912419 -0.7439646 
0.54748994 -0.678511 -0.489773 
0.34958342 -0.5600827 -0.75106514 
0.18393305 -0.81612295 -0.547825 
0.7740915 -0.6327221 0.021100199 
0.7860668 -0.61234957 0.084421776 
0.009640696 -0.6477319 0.76180744 
0.3923547 -0.55782866 0.73135835 
0.74657327 -0.57601947 -0.33291125 
0.66731787 -0.70945215 0.22663756 
0.6991768 -0.6262882 0.34484065 
0.2203411 -0.9617231 0.1629068 
0.002601212 -0.17323174 0.98487765 
0.17041771 -0.7921499 0.5860516 
0.88299626 -0.020289738 0.4689414 
0.73638517 0.01879852 0.67630136 
0.7772543 0.12323496 0.61699986 
0.7042163 -0.3568149 0.6138099 
0.07196753 -0.8808763 0.4678437 
0.13982138 -0.3682691 0.9191452 
-0.11388316 0.24736355 0.96220684 
-0.5598713 -0.15960188 0.81306297 
-0.5989601 -0.54077893 0.5905972 
-0.7382815 -0.28111097 0.6131208 
-0.9794539 0.082271025 0.18412396 
-0.82189286 -0.39132977 -0.4139485 
-0.5306909 0.74014544 -0.41297936 
-0.37663132 0.732302 -0.56734717 
-0.34367424 0.5570213 -0.7560524 
-0.2729221 0.9097959 -0.31270584 
0.58031195 -0.4400449 -0.6852727 
0.7776484 -0.56288266 0.28004685 
0.9724283 0.21212287 -0.096887514 
-0.20130527 -0.1843481 -0.962025 
0.4520717 0.2557577 -0.8545287 
0.9135205 -0.18636097 -0.3615935 
0.8471332 -0.50746506 -0.15762143 
0.83783096 0.48606664 -0.24855302 
0.51062995 0.7275551 0.45817104 
0.14208782 0.66135776 0.73648965 
-0.32774222 0.834161 0.44357702 
-0.72678035 0.59953743 0.3351794 
-0.5707001 0.8211551 -0.0024080055 
-0.9930931 0.09309578 -0.07140958 
-0.9097953 -0.09141043 0.40486628 
-0.9555678 0.17140177 0.23981613 
0.14700562 0.98799556 0.047477208 
-0.5735285 0.79998684 0.17631292 
-0.37679362 -0.107822046 0.92000055 
-0.77689546 -0.5896556 0.22077075 
-0.7065074 -0.4022448 0.582277 
-0.92311484 -0.10636568 0.36952055 
-0.7171903 0.23705295 -0.6553198 
0.0057173427 -0.46097562 -0.8873944 
-0.1793747 0.013687315 -0.9836856 
-0.16284373 -0.6971609 -0.69817525 
-0.22877194 -0.7245693 -0.6501252 
-0.5436613 -0.42268598 -0.72509927 
-0.31751877 -0.84325266 -0.433713 
0.18731251 -0.977684 -0.09512137 
0.026543602 -0.9834016 0.17949042 
-0.11644412 -0.96431726 -0.2377665 
-0.5138975 -0.5693522 -0.6416756 
-0.5823009 -0.50407916 -0.63783216 
-0.5327952 -0.0070556705 -0.8462149 
-0.14543134 0.4941653 -0.85711753 
0.05848899 0.5771835 -0.8145172 
0.1038853 -0.79182184 -0.6018521 
0.051552888 -0.71334374 0.69891566 
-0.59018475 0.06485005 0.8046593 
-0.615514 -0.45166877 0.6458621 
-0.6483092 -0.68336666 0.33571625 
-0.27255917 -0.7867065 -0.55389935 
-0.6374557 -0.29519063 -0.71169704 
0.3409681 0.054426458 -0.938498 
-0.17929818 0.4040161 -0.8970079 
-0.18918653 0.6913988 -0.69726336 
-0.23145539 0.46445975 -0.85481316 
0.07082594 -0.33969843 -0.9378639 
0.21794301 -0.10188119 -0.9706292 
0.5358707 0.5400729 -0.6489714 
0.7281528 0.58693665 -0.35397592 
0.5782038 0.78775275 -0.21242881 
0.39761308 0.89371574 0.20778829 
0.72237563 0.6872203 0.0768239 
0.84482825 0.21163899 -0.49140042 
0.4011639 0.63487613 0.66030294 
-0.41254255 0.4851873 0.7709747 
-0.57078534 0.15112413 0.8070723 
-0.022366758 -0.32834017 0.94429475 
-0.12476835 -0.49460232 0.8601171 
0.34694797 -0.3942041 0.85101724 
0.002353923 -0.97945416 0.20165321 
-0.7561623 -0.19320647 0.62521195 
0.24408562 -0.969753 -0.0012066095 
-0.222549 -0.9092309 0.3518113 
-0.38681147 -0.91859174 0.08103171 
-0.5454982 -0.4422606 0.7119251 
-0.52038425 -0.8116811 0.2652815 
-0.3658039 -0.6827854 -0.632449 
-0.29459605 -0.19887894 -0.934698 
0.02197661 0.6225813 -0.7822465 
0.031172471 -0.18796451 -0.98168105 
-0.016864074 -0.68613654 -0.72727734 
0.62888855 -0.3481854 -0.69517344 
0.5721919 0.3886279 -0.72219443 
0.9631894 -0.036151923 0.26638183 
0.61122555 -0.7753991 0.15861805 
-0.30861273 -0.1428416 0.94040126 
-0.16298108 -0.18709254 0.9687279 
-0.022087913 -0.6361913 0.77121526 
-0.16470022 -0.14481801 0.9756545 
-0.131953 -0.10359067 0.9858283 
-0.13852268 0.15323241 0.9784331 
-0.4754217 0.05645232 0.877945 
-0.5155591 0.042317312 0.85580844 
-0.8073128 -0.4059917 0.428272 
-0.82047415 -0.5175231 0.24288262 
-0.8782477 -0.17173544 0.44630492 
-0.7191412 -0.18081723 -0.67092556 
-0.11615824 -0.97928345 -0.16586496 
0.41071525 -0.6969676 -0.5878344 
-0.01582408 -0.7743284 -0.632586 
0.014779614 -0.8827625 -0.46958694 
0.49959263 -0.08386277 -0.86219156 
0.44404036 0.104071304 -0.88994235 
-0.06182115 0.13512687 -0.9888978 
0.54802084 0.7842596 -0.29087833 
0.5845654 0.20131281 -0.7859749 
0.4243562 -0.31098598 -0.8504173 
0.0442489 -0.36893317 -0.9284021 
0.82413346 -0.15980305 -0.5433849 
0.85572934 -0.5112577 -0.079642355 
0.99816495 0.020381879 0.05702022 
0.9805821 -0.08288102 0.17773442 
0.4447827 -0.52965033 0.7222458 
-0.22773291 -0.5407102 0.8097964 
-0.28032765 -0.363513 0.88841146 
-0.5395533 -0.66010475 0.5226319 
-0.45770422 -0.35641614 0.8145394 
-0.8238462 -0.43292382 0.36586124 
-0.6886995 -0.42340863 -0.5885731 
-0.7435596 -0.2351906 -0.62594295 
-0.6570377 -0.11823888 -0.74452746 
-0.6968002 0.14866748 -0.70168906 
-0.4792923 -0.24161947 -0.84374106 
0.0073396247 -0.016921509 -0.9998299 
0.4640198 0.015610268 -0.88568723 
-0.21624555 -0.056785863 -0.9746862 
0.2757285 -0.6081246 -0.7444181 
0.29370388 -0.93483 0.19957712 
0.5552786 -0.82954216 -0.0593761 
0.74003315 -0.6030902 0.2977131 
0.3712594 -0.25391707 0.89313644 
-0.350722 -0.013707111 0.9363794 
-0.2730091 -0.7465168 0.60677737 
-0.8601394 -0.5037141 -0.08020286 
-0.69964814 -0.3266975 -0.6354221 
-0.5292087 -0.58644056 -0.6132093 
-0.23620346 -0.6395377 -0.73157334 
-0.33883977 -0.3566432 -0.8706282 
-0.454316 -0.79783833 -0.3962967 
0.04339854 -0.4255789 -0.90388006 
0.18706915 -0.51753736 -0.83496124 
-0.3144365 -0.4906332 -0.8126555 
0.16949107 -0.6745562 -0.7185031 
0.272228 -0.71197087 -0.6472939 
0.1296863 0.40701243 -0.90416944 
-0.082203865 0.4297787 -0.8991845 
0.5915373 0.7700367 -0.23901297 
0.2977256 0.92485034 -0.23666711 
-0.47704688 0.8788424 -0.00790312 
-0.23130749 0.81574345 -0.53015035 
-0.6511498 0.668625 -0.35908842 
-0.8122113 0.4156964 -0.40927917 
-0.5535892 0.14928807 -0.8192997 
-0.53976667 0.41899237 -0.7301352 
-0.7003342 0.18524839 -0.6893585 
-0.54524004 0.23061836 -0.80593324 
-0.6014209 0.6834753 -0.4137082 
-0.046105072 0.53555256 -0.8432425 
-0.07891521 -0.5527055 -0.8296319 
-0.6320503 -0.20353892 -0.7477195 
-0.38071197 -0.23890947 -0.8932977 
-0.2861599 0.44781575 -0.8470972 
-0.10434127 0.37399647 -0.9215419 
0.94939244 -0.022309292 -0.31329927 
0.41620675 -0.70031345 -0.5799422 
0.704779 0.7071998 0.056170262 
0.98916954 -0.14094695 0.040959314 
0.684187 0.036969706 0.728369 
0.20831323 -0.16692708 0.96371216 
0.52757746 0.06685117 0.84687245 
-0.5813603 0.75300467 0.30822757 
-0.7342679 0.5996543 0.31822222 
-0.8921266 0.3480635 0.28803113 
-0.94875205 0.25783902 0.18272567 
-0.8288365 -0.26024997 -0.49527767 
-0.822988 -0.07360834 -0.5632696 
-0.4720588 -0.62205875 -0.62466276 
-0.05038794 -0.7029472 -0.709455 
-0.37944946 -0.79618263 -0.471287 
0.61777914 -0.70034677 -0.35757986 
-0.015665492 -0.68413675 -0.7291855 
0.98047715 -0.19547619 0.021298325 
0.3453442 -0.815299 0.4647849 
0.22391737 -0.40550375 0.8862437 
0.010972479 -0.2624442 0.9648848 
-0.37656057 -0.38324744 0.8434001 
-0.3262102 -0.7241746 0.6075839 
-0.89277226 -0.22997506 0.38738775 
-0.8710394 -0.47425416 -0.12795871 
-0.83910245 -0.3058622 0.4498393 
-0.845024 -0.53004694 -0.07060377 
-0.42605966 -0.8445574 -0.32433954 
-0.4493097 -0.8596862 0.24302392 
-0.1417916 -0.9559652 0.25695464 
-0.82458717 -0.3446961 0.44859847 
-0.734509 -0.4604763 -0.4984558 
-0.23351757 -0.9683614 -0.08801076 
0.34075147 -0.93975 0.027538763 
0.30940038 -0.5531766 -0.7734773 
0.5563516 -0.67821145 -0.48010635 
0.62983197 -0.7636139 -0.14214651 
0.5938504 -0.44008195 0.67355007 
0.49834865 -0.25900558 0.82738423 
0.438834 0.070144385 0.8958262 
0.56716585 -0.14053822 0.8115245 
0.87879413 -0.42153597 0.22367017 
0.053276908 0.7362461 0.6746135 
0.5609223 0.45798248 0.68965083 
-0.14967786 0.6438815 0.750342 
-0.41274026 0.8601272 0.29971123 
-0.87123317 -0.13768342 0.4711648 
-0.5608068 -0.43345234 0.7054183 
-0.9674012 0.016127914 0.25273478 
-0.9965092 0.08256087 0.012375996 
-0.7690001 -0.28534314 -0.5720298 
-0.47299773 -0.86980087 0.14042695 
-0.59369665 -0.4569007 -0.6623943 
0.59170073 -0.19350718 -0.78258884 
-0.049368534 0.52324015 -0.85075414 
0.31734312 -0.12095795 -0.940565 
0.16908818 -0.6338858 -0.7547171 
-0.13126798 -0.09332002 -0.98694485 
-0.6175183 0.30841637 -0.7235679 
-0.064996116 0.90850675 -0.4127845 
0.31443006 0.8910684 -0.32730886 
-0.089748725 0.982497 -0.16323267 
-0.4920712 0.8236608 -0.2818668 
-0.18639173 -0.28681278 -0.939679 
-0.6924397 -0.08164002 -0.7168419 
-0.47329178 -0.626137 -0.61963487 
-0.24771532 -0.5474966 -0.79930264 
-0.11409276 -0.39963403 -0.9095469 
-0.08833048 -0.59910315 -0.7957846 
0.27617118 -0.56257737 -0.77925366 
0.32457 -0.9190141 -0.22375755 
0.7380931 -0.30502233 -0.6018139 
0.8607012 -0.50602466 -0.0559696 
0.09564329 -0.95559835 0.27871898 
0.027264087 -0.84273314 0.53764075 
0.09791846 -0.892967 0.43934292 
0.21822649 -0.95040035 -0.22162254 
0.6791329 -0.72910976 0.08472051 
0.7292554 -0.5540353 0.4015365 
-0.062775984 -0.38596654 0.9203744 
0.0616563 -0.83470714 0.54723155 
0.51030225 -0.33582845 0.79171395 
0.70690274 -0.2863105 0.6467727 
0.85457 -0.14841203 0.4976788 
0.506984 0.21401207 0.8349648 
0.7537954 -0.13478968 0.6431363 
0.5457761 0.13097736 0.82763124 
0.14447783 -0.39435378 0.9075304 
-0.10558986 -0.2203525 0.9696885 
0.3892509 0.34078705 0.8557733 
-0.2885257 0.10686183 0.9514902 
0.02095977 0.41812283 0.90814865 
-0.7908926 0.61011 0.047483407 
-0.9179908 0.297856 -0.261868 
-0.17892621 0.3279324 -0.92760223 
-0.19157884 0.98141634 -0.010932239 
-0.19097832 0.763164 -0.61733955 
0.4653171 0.30074123 -0.83248717 
-0.22454579 0.9606579 -0.16344962 
0.20205513 0.0076117674 -0.97934455 
0.8868281 -0.12984209 -0.44348288 
0.9127642 -0.37442264 -0.16330743 
0.9964454 0.08126659 -0.022188446 
0.86416197 0.25378075 0.43453366 
0.92767745 0.2863687 0.23959865 
0.9891089 0.12343066 -0.08017715 
0.9324515 0.14460866 0.33109313 
0.46692708 0.6557812 0.593237 
0.488231 0.564622 0.6654567 
0.17558992 0.8398677 0.51360536 
-0.52073103 0.7414046 0.42327118 
-0.8403673 0.5396345 0.050768565 
-0.82704854 0.26615244 0.49513 
-0.31551072 0.67945355 0.66241676 
-0.60258204 0.6838108 0.41145813 
-0.75006723 0.29017037 0.5943067 
-0.38927242 0.51532644 0.7634827 
-0.6549664 -0.06354255 0.75298166 
-0.47942206 -0.6376594 0.602947 
-0.65995175 -0.15657434 0.7348117 
-0.85627097 -0.3802895 0.3495424 
-0.42121407 -0.9035981 -0.07803332 
-0.5540262 -0.58719665 -0.59013146 
-0.6544894 -0.040694516 -0.75497526 
-0.26912966 -0.5257066 -0.8069709 
-0.25866303 -0.5834092 -0.7698878 
-0.021441698 -0.27926672 -0.95997417 
-0.25436538 -0.96665597 -0.029573897 
-0.20647468 -0.5214806 -0.8279047 
0.17679608 -0.98124295 -0.07684666 
0.35076427 -0.74770856 -0.563823 
-0.6794112 -0.7226567 0.12715249 
-0.6118862 -0.73272073 -0.29785174 
-0.9485222 0.11661974 -0.29445788 
-0.78725076 0.6092397 -0.0952005 
-0.6781395 -0.38806456 -0.6241256 
-0.41138896 -0.46158287 -0.78593934 
0.17171222 -0.9384049 0.29985172 
-0.030843582 -0.92839146 0.3703217 
-0.10679541 -0.95128316 0.28923184 
-0.58769155 -0.8083351 0.034829896 
0.17599903 -0.5232562 -0.83380306 
-0.10516998 -0.46573147 -0.8786543 
0.45302892 -0.13832219 -0.8806997 
0.33363518 0.08959626 -0.938435 
0.022417624 0.4292055 -0.9029287 
0.6024768 0.20892556 -0.7703064 
0.79230964 0.122553885 -0.59768397 
0.9707375 0.17992026 0.1590517 
0.8805255 0.3743692 -0.29072767 
0.85410905 0.4749234 0.21200377 
0.6771678 0.71884173 0.15719546 
0.42234182 0.7066552 0.56768465 
0.636125 0.7614886 -0.12441952 
0.778184 0.34435496 0.5252137 
0.8999388 -0.02625815 0.43522495 
0.34102362 0.3705509 0.8639416 
-0.23585288 -0.78320235 0.5752977 
0.5775989 -0.7800956 0.24047959 
0.3554226 -0.9314164 0.07834859 
0.09505606 -0.97866535 0.18215017 
-0.25067338 -0.8511946 0.46111876 
-0.35270903 -0.52297944 0.77594393 
0.21169493 -0.7752566 0.5951158 
-0.975752 -0.19719753 -0.09498055 
-0.9265343 0.26706892 0.2649687 
-0.7719269 0.2781373 0.5716367 
-0.8844318 -0.09420053 0.4570632 
-0.45881727 -0.80824864 -0.36908126 
-0.80750453 0.04531018 -0.5881186 
0.055024154 0.033026043 -0.99793875 
0.30841067 0.07371555 -0.94839287 
0.24680622 0.46712926 -0.84904474 
0.6463559 0.1614957 -0.7457501 
0.7532425 -0.6576689 0.009872442 
0.78802013 0.15510689 0.5957904 
0.60621727 -0.71650857 0.34513193 
0.7272327 -0.13720877 0.6725373 
-0.34118134 0.085634045 0.9360888 
-0.33976468 0.27724725 0.89871794 
0.15562993 -0.46793061 0.86995417 
-0.4373261 -0.04802681 0.8980197 
-0.5372432 -0.6094163 0.58307946 
-0.6177197 0.22128087 0.75462395 
-0.59335864 -0.5119247 0.6211753 
-0.5532507 -0.6485199 0.5228152 
-0.7504812 -0.6291495 -0.20235887 
-0.8717197 -0.43122384 0.23270327 
-0.7781863 -0.34924397 -0.5219719 
0.6440971 -0.66753584 -0.37354362 
0.17715864 -0.41962683 -0.89024055 
0.5932761 -0.35490534 -0.7225412 
0.21666239 -0.449269 -0.86672646 
0.39522114 -0.04770209 -0.91734666 
0.35128924 0.69461834 -0.6277749 
0.5200093 -0.5741191 -0.63243794 
0.7645147 0.49299657 -0.41529742 
0.70456624 -0.43575767 -0.56009084 
-0.31319064 -0.27884412 -0.9078313 
0.065423384 -0.29165983 -0.9542821 
0.5684017 -0.37132144 -0.7341934 
0.5948628 0.27925074 -0.75376207 
0.9074544 0.41953093 0.022810189 
0.92449707 0.330975 -0.18910511 
0.93692535 -0.3289947 -0.11804001 
0.19824843 -0.8993426 0.38971853 
0.580911 -0.50987774 0.6344819 
0.2991377 -0.009620459 0.95416147 
0.10691801 -0.24910271 0.9625572 
-0.75368446 0.42770758 0.49902505 
-0.73127204 0.12481439 -0.6705689 
-0.38994095 -0.6401082 -0.66197246 
-0.45917636 -0.336302 -0.82222754 
-0.26866782 0.32232907 -0.90770125 
-0.48289567 0.047427103 -0.87439275 