# OOMMF: rectangular mesh v1.0
# Segment count: 1
# Begin: Segment
# Begin: Header
# Desc: Time (s) :  4.6900000000000056e-07
# Title: m
# meshtype: rectangular
# meshunit: m
# xbase: 2e-09
# ybase: 2e-09
# zbase: 5e-10
# xstepsize: 4e-09
# ystepsize: 4e-09
# zstepsize: 1e-09
# xmin: 0
# ymin: 0
# zmin: 0
# xmax: 1.024e-06
# ymax: 1.024e-06
# zmax: 1e-09
# xnodes: 256
# ynodes: 256
# znodes: 1
# ValueRangeMinMag: 1e-08
# ValueRangeMaxMag: 1
# valueunit: 
# valuemultiplier: 1
# End: Header
# Begin: Data Text
-0.00956726 -0.968138 0.2502344 
-0.73784125 -0.63917243 0.21690756 
-0.9648698 -0.13591614 -0.22484046 
-0.4578631 0.14176798 -0.8776465 
-0.12219978 -0.29870278 -0.94649035 
0.59076536 -0.2068947 -0.77986604 
0.022489391 -0.38379294 -0.92314535 
0.39467198 -0.40717825 -0.8236747 
0.16697755 0.4894385 -0.85590214 
-0.42013577 -0.19978641 -0.8851957 
-0.60079926 0.19261965 -0.7758466 
-0.1871406 -0.7970404 -0.57419956 
-0.2353815 -0.9659446 0.107454844 
-0.00089760043 -0.8392948 0.54367596 
0.4373974 0.0010109231 0.89926773 
0.46648818 -0.24714369 0.84929895 
0.69375086 0.4317324 0.5764695 
0.529464 -0.6418858 0.55466247 
0.24506737 -0.854462 0.45807946 
-0.14533821 -0.518551 0.84260416 
-0.18627702 -0.30933106 0.9325316 
-0.4025397 -0.78027594 0.47867665 
0.11985556 -0.6041164 0.78783125 
-0.2621344 -0.8865303 -0.3812475 
-0.13626954 -0.79549575 -0.59043807 
0.8210896 -0.23613693 -0.51966447 
0.5930288 -0.79625255 0.11957778 
0.53639466 -0.6107225 -0.5824936 
0.3931268 -0.9122039 0.115479246 
-0.5232804 -0.84981316 -0.06320716 
-0.20130551 -0.85857517 0.4715132 
0.1951792 -0.94481826 0.26310408 
-0.553584 -0.31212527 0.7720897 
-0.7949395 -0.24607205 0.55454475 
-0.38638848 -0.9174447 -0.09486399 
-0.28096244 -0.9588434 -0.040982865 
0.50042695 -0.86290014 0.07054366 
0.17047295 -0.9504224 0.26007 
-0.18061028 -0.94266886 0.2806339 
-0.33242568 -0.1630634 0.92892605 
-0.55446726 -0.16217895 0.81624997 
-0.5085755 -0.056777164 0.85914344 
-0.6615651 -0.6943208 0.28328466 
-0.48100996 -0.70132643 0.52609 
-0.14435405 -0.7448 -0.65148675 
0.054766532 -0.9296441 -0.364366 
-0.11598862 -0.7992344 -0.58972114 
-0.43057913 -0.74111456 -0.5151222 
-0.32156754 -0.7518072 -0.5756564 
0.35384032 -0.6963343 -0.62443227 
-0.32742316 -0.68870145 -0.64690375 
0.1689761 -0.41554973 -0.8937368 
-0.12740883 0.47065508 -0.8730698 
0.6507087 -0.7490966 -0.12422785 
0.98200864 -0.17103508 0.080037564 
0.1734456 0.066699125 0.9825823 
0.51946837 -0.10470657 0.8480502 
0.3884414 -0.7869408 0.47941372 
0.6699502 -0.15989096 0.72498393 
0.23360328 -0.4451833 0.86443126 
0.20240243 -0.37897485 0.9030013 
-0.7164643 -0.37796217 0.5863647 
-0.68406814 -0.7292605 -0.015162836 
-0.7101011 -0.42027155 -0.5649144 
-0.15386301 -0.7614221 -0.62973213 
0.31706762 -0.3539831 -0.879866 
0.13157953 -0.672203 -0.7285808 
0.14807455 -0.075963154 -0.98605454 
-0.010623507 0.7666468 -0.6419811 
0.5158956 0.85665137 0.00024909957 
0.7853815 0.33843422 -0.5183033 
0.55150247 0.41035607 -0.7262596 
0.9370143 0.20354147 -0.28385755 
-0.2619927 0.17990887 -0.9481523 
0.38411888 -0.22494291 -0.8954627 
0.57444626 0.1316793 -0.8078813 
0.21344672 0.34657404 -0.913415 
0.35033512 -0.27194032 -0.8962778 
0.3450862 0.89922154 -0.26891676 
-0.13170594 -0.35021517 -0.92736346 
0.5171558 -0.5599218 -0.647331 
0.85852164 -0.09208003 -0.5044421 
0.6933572 0.34847718 -0.63072926 
0.8183148 0.12040472 0.56201756 
0.34439537 -0.084230326 0.93503857 
-0.33639306 0.1278731 0.93299955 
-0.047479108 -0.292319 0.95514154 
-0.6438778 -0.6398769 0.4194985 
-0.6980645 -0.71564734 -0.02355747 
-0.9731257 -0.22288455 0.05786932 
-0.7676834 -0.47039098 0.4351948 
-0.62499046 -0.64982325 -0.43256995 
0.23991936 -0.768997 -0.592522 
-0.6617623 -0.7137184 0.22951394 
0.18974619 -0.1528556 0.9698616 
0.29404736 -0.73883283 0.6063517 
-0.50896126 -0.788128 0.3461396 
0.29978338 -0.71786463 -0.6283314 
-0.2637311 -0.10795793 -0.9585359 
-0.17424887 -0.8788841 -0.44407222 
-0.45726228 -0.8882713 0.043420848 
0.23542008 -0.9526425 0.19248313 
0.15770909 -0.92737293 0.3392747 
0.05703906 -0.8047765 0.59083116 
-0.6229238 -0.7403472 0.25268978 
-0.8869556 -0.41511315 0.20246185 
-0.8207023 0.32496166 -0.46994433 
-0.7939048 0.397639 -0.45999822 
-0.7661474 -0.43601927 -0.47212872 
-0.8536751 -0.5202806 -0.023387175 
-0.54604626 -0.79250693 -0.2715994 
-0.34503198 -0.7093711 -0.61461014 
0.33678165 -0.7100309 -0.6184128 
-0.42409348 0.063665204 0.9033779 
-0.03993387 -0.7167702 0.6961651 
-0.9240265 -0.34566474 -0.16337423 
-0.4012139 0.5376678 -0.74157995 
0.26902458 -0.21993794 -0.93768495 
-0.119497746 -0.60617983 -0.7862991 
-0.38202676 -0.5639523 -0.73212934 
-0.43225974 -0.20180121 -0.8788788 
-0.9440841 -0.17551538 -0.27910516 
0.44643056 -0.77881414 -0.44062287 
0.5009641 -0.81960726 -0.27799097 
-0.08252184 -0.59970444 -0.79595536 
-0.21699363 -0.60890543 -0.7629862 
0.4126098 -0.5188388 -0.7487052 
0.3645259 -0.4708688 -0.8033702 
0.52608263 -0.73129505 -0.4341022 
-0.6509871 -0.63071513 -0.42239106 
-0.56190246 -0.012976685 -0.8271018 
-0.04451707 0.22859459 -0.97250336 
0.31839427 -0.25459784 -0.91312927 
0.18635923 -0.80288213 -0.5662602 
0.42055944 -0.2510873 -0.8718286 
0.92008555 0.38901603 -0.045926902 
0.7970354 0.45011738 -0.40265235 
0.21264815 0.59235644 0.7771065 
0.03966983 0.80644286 0.58997995 
0.08704841 -0.027784402 0.9958166 
-0.51468086 0.37021163 0.7733349 
-0.420663 0.85112154 0.31406158 
-0.19282907 -0.3906345 0.9001231 
-0.879271 -0.405041 0.25064778 
-0.91448474 0.2840646 0.28814054 
-0.9122761 0.4082127 -0.033388074 
-0.935121 0.25626296 0.24469994 
-0.80897874 -0.37240094 -0.45483068 
-0.87319803 0.22708227 -0.4312294 
-0.22199549 0.08102919 -0.97167504 
-0.4355529 0.5286048 -0.72860867 
-0.6879789 -0.28492898 -0.6674583 
-0.17325813 -0.2856795 -0.94253325 
-0.051767968 0.07625254 -0.9957438 
-0.43931067 -0.8724413 -0.21413146 
-0.76630163 -0.62581444 -0.14538997 
-0.6699973 -0.69608545 0.25800923 
-0.20058583 -0.96689874 -0.15770966 
0.30035397 -0.94263756 0.14567734 
0.52715784 -0.34599593 -0.7761389 
0.6501047 -0.7449485 -0.1497186 
0.67723227 -0.7349992 0.033657238 
0.42937598 -0.90308076 0.009036908 
0.6095307 -0.5804829 0.53991854 
0.27800035 -0.8768344 -0.39227194 
0.18729433 -0.8146444 -0.5488855 
0.48807773 -0.3974423 -0.7770584 
0.63003904 -0.5242708 -0.5728797 
0.8939774 -0.012927636 -0.44792578 
0.7048236 0.11782958 -0.6995284 
0.66660464 0.120519035 -0.7356042 
-0.70713454 -0.65591586 -0.2640743 
-0.76322776 -0.14978316 -0.62852883 
-0.87611043 0.031644266 -0.48107085 
0.13267082 -0.58105576 -0.8029775 
0.5362041 0.50005656 -0.68002117 
0.45170066 -0.5123127 -0.7304124 
0.43609464 -0.7219093 -0.5372788 
0.043343946 -0.9440852 0.32684037 
-0.286519 -0.660436 -0.6940686 
-0.5164097 0.033911638 -0.85567003 
-0.14215226 0.18000886 -0.9733394 
0.17425606 -0.20205735 -0.96374667 
0.68695146 -0.5924473 -0.4208372 
0.6324651 0.21616746 -0.74381423 
0.8402183 0.3290652 -0.43098658 
0.43949753 -0.40902892 -0.7997108 
-0.15033676 -0.32593638 -0.9333619 
0.4781503 -0.26777115 -0.8364634 
0.9989641 0.019223733 -0.041246753 
0.33127618 -0.4822687 0.8109705 
0.71955174 -0.23219717 0.6544691 
0.05412925 -0.41774037 0.9069526 
-0.117055364 -0.9070637 0.40439266 
-0.16149835 -0.6937104 -0.70191467 
0.8600585 -0.2950546 -0.41622365 
0.5599613 -0.82754457 -0.040167063 
0.71163756 -0.69506544 -0.102255546 
0.88011694 -0.27101463 0.38980147 
0.7901549 0.048773088 0.61096364 
0.8412027 0.5391563 -0.041093126 
0.3542945 0.36633113 0.8603935 
0.12199553 0.6482341 0.75160474 
-0.6606242 0.7424077 0.111384585 
-0.97300345 0.0022928193 0.23077933 
-0.34133333 -0.43310317 0.83421415 
-0.26055384 -0.60719645 0.75061584 
0.03945571 -0.72051424 0.6923168 
-0.14062922 -0.88317734 0.44746092 
-0.42102167 -0.89130497 -0.16827467 
-0.38269663 -0.42102963 -0.82236093 
-0.38144663 -0.20246929 -0.90194505 
-0.5125883 -0.74817836 -0.4212867 
-0.47174594 -0.5882605 -0.65681463 
-0.32924664 -0.52498704 -0.7848474 
0.74264365 -0.46916413 -0.47787604 
0.5270115 -0.5747071 -0.6260756 
0.038848292 -0.59180975 -0.8051411 
0.98364055 0.179874 -0.009835894 
0.59733117 -0.75110984 0.28112173 
-0.01756762 -0.95764524 -0.28741455 
0.14414638 -0.9877164 -0.060318444 
0.118142195 -0.9915448 0.05367925 
0.29180208 -0.35114598 -0.88968986 
0.59783673 -0.01909299 -0.80139047 
0.98837674 -0.100555524 0.114017524 
0.90878 -0.09608418 -0.40606263 
0.5605122 -0.71188277 -0.42314193 
0.54289705 -0.7548187 -0.36811897 
0.73914456 -0.029036488 0.6729207 
0.8168616 -0.32618067 -0.47575545 
0.88503236 0.17270164 0.43231013 
0.3206546 -0.083396 0.9435178 
-0.34115055 -0.58355945 0.73693603 
-0.7030224 -0.70947194 -0.049083617 
-0.026643418 -0.66206783 0.7489702 
-0.84425193 -0.18836361 0.5017548 
-0.25246537 -0.6702684 0.69785494 
0.009541975 -0.86720973 0.49785173 
-0.6224872 -0.035013087 0.78184646 
-0.7238392 -0.08718458 0.68443817 
-0.8360574 0.30350247 0.45704955 
-0.2372625 -0.36582896 0.899931 
-0.18808033 -0.7348773 0.65159905 
0.06686644 -0.14630008 0.9869778 
-0.469706 -0.05660389 0.8810064 
-0.5796199 0.009848758 0.8148275 
-0.51960605 0.16456951 0.83840704 
-0.29367104 -0.23484169 0.9266103 
-0.46633556 -0.36569342 0.80548096 
-0.5070141 -0.8590348 0.070681654 
0.24672428 -0.9658461 0.079173975 
0.30824468 -0.87362546 -0.37651557 
0.05972165 -0.11514187 -0.99155223 
-0.45097095 -0.548124 -0.7044043 
-0.34241185 -0.55300677 -0.75956416 
0.13828018 -0.7403978 -0.6577916 
-0.72974247 -0.5044807 -0.46149227 
-0.81459016 0.4244512 -0.3953278 
-0.057841405 -0.0466029 -0.9972375 
0.030718531 0.582251 -0.81242853 
0.27191904 0.33093765 -0.9036262 
-0.0047437577 0.25377694 -0.9672512 
0.098616466 -0.021142287 -0.9949009 
0.20994733 0.09325282 -0.97325546 
-0.3167512 0.2825505 -0.90544677 
-0.55034727 -0.08947351 -0.83012795 
-0.34361804 -0.45736387 -0.8202103 
-0.24307248 -0.3556879 -0.9024422 
-0.31712174 -0.9407431 -0.12015131 
-0.23169121 -0.81156456 0.5363602 
0.35661495 -0.9304692 -0.08398217 
0.96566755 -0.019203102 0.25907063 
0.70156735 -0.68255776 0.20473948 
0.3732569 -0.8555585 -0.35874632 
0.40857202 -0.46946937 0.78273076 
0.06385035 -0.88785464 0.4556724 
-0.09097792 -0.9958381 0.005438778 
0.0018983119 -0.99898887 0.044920467 
0.4305003 -0.44053018 -0.7877834 
0.747907 -0.10450142 -0.6555263 
0.935243 -0.35385907 -0.010208345 
0.7368054 -0.6647889 0.12318134 
0.8258219 -0.4691447 -0.31292412 
0.5322708 -0.8177709 0.21894872 
0.6762404 -0.6435938 -0.35844952 
0.4306736 -0.6638747 0.61138433 
0.1891978 -0.77390695 0.6043777 
-0.1718613 -0.66349363 0.72817576 
-0.32813227 -0.57741696 0.7476088 
-0.6142854 -0.38185436 0.6905366 
-0.387507 -0.912423 -0.1316158 
-0.20496956 -0.82651067 -0.52427834 
-0.10498486 -0.59155494 -0.7994003 
0.54279155 -0.8318632 0.11567648 
-0.1816277 -0.3399571 0.92273533 
0.066147365 -0.9910844 0.11565559 
0.2581853 -0.7748259 0.5770487 
-0.29342195 -0.9240444 0.24504212 
-0.5874027 -0.767049 -0.25805813 
-0.6516592 -0.60065854 -0.46319515 
-0.19842969 -0.63063836 -0.75028056 
-0.19333816 -0.35784552 -0.91354644 
-0.25852567 0.11660962 -0.9589404 
-0.44644308 -0.50116765 -0.74129593 
0.3634009 -0.49743617 -0.78771645 
-0.079853505 -0.33150092 -0.94006956 
0.1727689 0.2173679 -0.960678 
0.44980657 0.46300352 -0.763742 
0.44272852 -0.8757312 -0.1925783 
0.5828413 -0.81137776 -0.044298872 
0.26757088 -0.8318185 0.4862961 
0.7401382 -0.5210982 0.42503193 
0.9204766 -0.24026185 0.30821607 
0.29540497 -0.3010789 0.90669036 
0.4432596 0.34180576 0.8286675 
0.116223045 -0.5836676 0.803632 
-0.36890817 -0.8329341 0.41246536 
-0.7773433 -0.6152172 -0.13132177 
-0.80777115 -0.21164453 -0.55019313 
-0.43701 -0.74553597 -0.5031883 
-0.2014455 -0.51138186 -0.8354091 
-0.49738616 -0.7787248 -0.38235423 
-0.5426916 0.02153162 -0.83965605 
0.071875684 0.41151363 -0.90856516 
0.5278446 0.41835827 -0.7391593 
-0.116870545 0.71195716 -0.6924293 
0.42586988 0.58543456 -0.689856 
0.09075929 0.25823572 -0.9618093 
0.0011698466 0.053334583 -0.9985761 
0.58150464 -0.16366391 -0.7969106 
0.42424423 0.2030699 -0.8824849 
0.6674582 0.57957417 -0.46753967 
0.5895933 0.22517867 -0.7756767 
0.6104328 0.54216987 -0.57742846 
0.45247695 0.7407343 -0.4965656 
0.4717225 0.20518064 -0.85754234 
0.11519555 0.070512705 -0.99083704 
0.27073658 0.87379026 -0.4039706 
0.025575364 0.9085892 0.4169073 
0.7791162 -0.41637954 0.46862137 
-0.28218707 -0.6517298 0.704002 
0.5399624 -0.4998439 0.67719764 
0.36122504 -0.92323506 0.1309716 
-0.26679423 -0.95872307 -0.09834184 
-0.32194614 -0.93801874 -0.12834138 
-0.64718664 -0.62270474 -0.4397594 
0.08403681 -0.9953903 0.046217415 
0.107746504 -0.9707303 -0.21464732 
0.05446969 -0.94908845 0.31026483 
0.36834455 -0.89533263 0.25040355 
0.22731304 -0.79345363 0.56458855 
-0.29211697 -0.9551584 -0.048375152 
-0.44337717 0.03267333 -0.89573944 
-0.3764092 -0.16708653 -0.91126186 
-0.02074712 -0.65770906 -0.7529863 
0.47081244 -0.6744231 -0.5687611 
0.6684583 -0.6298484 -0.39554343 
0.24748135 -0.96181566 0.11689115 
0.21021491 -0.97006875 -0.1215581 
-0.4812724 -0.79634595 -0.36634716 
-0.8279695 -0.5605887 0.014387186 
-0.7455517 -0.6303378 0.21639541 
-0.68601143 0.23163114 -0.6897357 
-0.63452286 -0.48408076 -0.6025335 
-0.45580372 -0.47700956 -0.7514686 
0.18383662 -0.5891863 -0.7868059 
0.39217043 -0.67117864 -0.6290642 
0.017303685 -0.78092945 -0.6243796 
-0.21571186 -0.84621924 0.48721823 
-0.70862573 -0.67691314 0.19909361 
-0.6848185 -0.7260017 0.06281113 
-0.48241442 -0.8638161 -0.14525245 
-0.3377379 -0.7418772 -0.579268 
-0.42701015 -0.44879907 -0.78501064 
-0.74388397 0.012257903 -0.66819644 
-0.62242573 -0.360504 -0.6947108 
-0.91793454 -0.37697217 -0.123645045 
-0.6408745 -0.45466647 -0.618513 
-0.18550472 -0.18507062 -0.965058 
-0.029624728 -0.7251852 -0.6879163 
0.27111474 -0.80502087 -0.5276725 
0.45414618 -0.2688899 -0.8493819 
0.77044445 -0.5643839 -0.29645595 
0.11326104 -0.9703574 -0.21349138 
-0.3217124 -0.7608857 -0.5635195 
-0.45388538 -0.1514124 -0.8781015 
0.43362406 -0.44441423 -0.78387904 
0.18606077 -0.5817941 -0.7917683 
0.4631046 -0.4723548 -0.7499434 
0.41088918 0.0787142 -0.9082809 
0.6944842 0.63304126 0.34198052 
0.73464453 0.6775824 -0.034344878 
0.76956475 -0.11382173 0.628343 
0.32690877 0.12887408 0.9362277 
-0.16555692 0.07875101 0.98305094 
-0.4755502 0.30741256 0.82422674 
-0.6064209 0.6732994 0.4229914 
-0.5887717 0.077898934 0.80453694 
-0.89456874 0.24190487 -0.37580422 
-0.9709466 0.08703501 -0.22290723 
-0.80139107 0.09490047 0.59056437 
-0.89926726 0.21833177 0.3790113 
-0.79800534 0.22130711 -0.560545 
-0.4048598 0.5421955 -0.736283 
-0.025516788 0.73313415 -0.6796053 
0.031946722 0.51545376 -0.8563217 
-0.533895 0.66684216 -0.51988244 
0.033187177 0.33790115 -0.94059634 
0.0819044 0.338725 -0.93731374 
-0.14185989 -0.46183127 -0.87555 
-0.14962134 -0.39361823 -0.90701616 
-0.47523925 0.0016085787 -0.8798552 
0.37139645 -0.5187956 -0.7700103 
0.14749643 -0.7941132 -0.5896008 
0.27065745 -0.6208562 -0.7357188 
0.4286875 -0.61530405 -0.6615346 
-0.12653139 -0.8209016 -0.5568756 
0.5122116 -0.5576674 -0.65318173 
0.5003357 -0.38523865 -0.7754066 
0.42563307 -0.29589713 -0.8551499 
0.38050973 -0.67286766 -0.6343985 
0.50749326 -0.8317719 -0.22495796 
0.9698862 -0.057410866 -0.23669568 
0.58530354 -0.43238825 -0.685901 
0.060162503 0.25175864 -0.96591824 
-0.11194029 0.15127051 -0.98213375 
-0.72189075 -0.3559809 -0.5934235 
-0.87309873 0.29138133 -0.39089063 
-0.47031716 -0.24361151 -0.8482071 
-0.20288832 -0.29965496 -0.93222487 
-0.06470888 -0.41013023 -0.9097285 
-0.20738152 -0.44621873 -0.8705641 
-0.2210384 -0.06569806 -0.97304976 
0.16381164 -0.29650915 -0.94087625 
-0.040918242 -0.31968823 -0.94663894 
0.07678191 -0.4920717 -0.86716205 
0.06790699 0.074716 -0.9948901 
0.26716092 -0.0084406 -0.96361506 
0.5875573 -0.4055875 -0.7001966 
0.9988318 -0.012689751 0.04662743 
0.529694 -0.3190752 -0.78588516 
0.6403211 0.46484157 -0.611483 
0.5376136 0.12613027 -0.83370435 
0.95091265 0.020255733 -0.3087958 
0.9866117 0.15251374 0.05776636 
0.6815339 -0.12663855 0.7207457 
0.7894242 0.058752235 0.61103016 
-0.31834307 -0.90236706 0.29050192 
-0.6373373 -0.66065747 0.39665204 
0.24104449 -0.90108615 -0.360474 
0.66352767 -0.72390443 -0.18892711 
0.5674638 -0.6981395 -0.4365617 
0.65179443 -0.2491795 -0.7162916 
0.82562023 -0.51873416 -0.22195962 
0.99675405 -0.045640994 -0.06632092 
0.90084326 0.39989477 0.1690134 
0.9655609 -0.25851917 0.029328141 
0.51939183 0.51835114 0.6793705 
0.065664254 0.29446465 0.95340383 
-0.5589124 0.82882273 0.025882939 
-0.5636456 -0.75202173 -0.3417121 
0.049522173 -0.98527116 -0.16367133 
-0.011780551 -0.4772015 0.878715 
-0.7576781 -0.5853129 0.28867432 
-0.948751 0.31437054 0.03229169 
-0.7950769 0.09394573 -0.5991885 
-0.22160609 -0.088838644 -0.9710811 
-0.65671813 -0.033555727 -0.75338924 
-0.41601482 -0.49360538 -0.7637312 
-0.73405486 -0.65668863 -0.17298424 
-0.11120384 -0.12828963 -0.98548234 
-0.20321871 -0.26845253 -0.9416132 
0.027974276 -0.11166886 -0.9933517 
0.8106186 -0.2599495 -0.52471316 
0.604831 -0.78419507 0.138628 
0.3626138 -0.8892894 -0.2787036 
-0.0919244 -0.8854437 -0.45556498 
0.3246033 -0.81148654 -0.48592415 
0.22820142 -0.109008856 -0.9674923 
-0.088529564 -0.11328715 -0.9896104 
0.5293081 -0.15433809 -0.8342738 
0.53595245 0.32401508 -0.77959555 
0.65206563 -0.007597975 -0.75812453 
0.9440676 -0.30125502 -0.13409673 
0.6234952 -0.68776536 0.3717964 
0.77554226 -0.48385054 -0.40549088 
0.9988872 -0.031668194 0.034952465 
0.63739055 0.06885227 0.76745856 
0.3957392 -0.1607948 0.9041767 
0.47436148 -0.16897626 0.86396074 
0.29591057 -0.2290742 0.92734134 
0.10443038 -0.546429 0.83096915 
-0.39029986 -0.55737066 0.7328056 
-0.47577542 -0.61049336 0.6331949 
-0.5760858 -0.43514836 0.69193286 
-0.5068079 -0.23386988 0.82972926 
-0.94600934 -0.11629505 0.30255896 
-0.6777758 -0.35346034 0.64473706 
-0.50627995 -0.70987755 -0.4896474 
0.42867118 -0.48126692 0.76460665 
-0.5116049 -0.061733373 0.8570003 
-0.7330929 0.14763913 0.6639108 
-0.04602971 -0.85843855 0.510847 
-0.3397759 -0.91988593 0.1958627 
-0.536176 -0.81924546 -0.20335254 
-0.11271418 -0.94280326 -0.313716 
-0.41553432 -0.19451372 -0.8885358 
-0.025730096 0.11255032 -0.9933129 
0.093880035 -0.54263335 -0.83470684 
0.4569345 0.25709078 -0.851537 
-0.39862078 -0.042905953 -0.9161117 
-0.9916928 -0.09812453 -0.083169006 
-0.99860036 -0.03550673 -0.03920049 
-0.093731895 0.1774665 -0.979653 
-0.16387802 -0.25935727 -0.9517762 
-0.39907575 0.7613291 -0.5109957 
0.42304492 0.6420518 -0.63937664 
0.62257856 0.43496257 -0.65054095 
0.38915706 -0.03895949 -0.9203473 
0.71584886 0.22787401 -0.66002566 
0.74680495 -0.21962328 -0.6277325 
0.1928466 -0.34289926 -0.9193641 
-0.7732032 -0.20963652 -0.59850603 
-0.036943525 -0.11404326 -0.9927887 
0.45006645 -0.8295503 -0.33058515 
0.16834152 -0.75728977 0.6310098 
0.67595345 -0.7161968 0.17363496 
0.6656725 -0.6923518 0.27844062 
-0.28001523 -0.78514415 0.55239505 
0.53833634 -0.8358601 0.10738687 
0.81280994 -0.5654803 -0.13990037 
0.06815644 -0.96880746 0.23825791 
0.25323814 -0.90599847 -0.33917126 
0.18745318 -0.464566 -0.8654709 
0.46729714 -0.7688727 -0.43642682 
0.34012115 -0.73669535 -0.5844636 
0.81576127 -0.5711146 -0.091442466 
0.7455937 -0.6476568 -0.15694164 
0.72926176 -0.3697301 -0.5757404 
0.76025826 -0.6126641 0.21598607 
0.43619642 -0.64203584 0.63049406 
-0.06657181 -0.7234405 0.6871697 
0.4448116 -0.66368073 0.6013906 
-0.054747973 -0.8138976 0.5784232 
-0.54428333 -0.36876914 0.7535018 
-0.6462818 -0.4682864 0.60251796 
-0.53413934 -0.7265254 -0.43226838 
-0.31861222 -0.019694515 -0.9476806 
0.2434501 -0.433177 -0.8678075 
0.23716429 -0.9596163 0.15129341 
-0.29416206 -0.89749473 0.32859084 
-0.2984175 -0.9435081 -0.14401247 
0.07390219 -0.72214556 -0.6877822 
-0.029798383 -0.47810897 -0.8777949 
-0.39023086 -0.76228696 -0.5163704 
-0.15611713 -0.66495115 -0.73038864 
-0.12500614 -0.2866723 -0.9498381 
0.038186196 -0.014159143 -0.9991703 
-0.79073673 -0.17812543 -0.58566797 
-0.6753231 -0.3483635 -0.65006286 
0.08463753 -0.48830697 -0.8685579 
0.3645914 -0.42117634 -0.83047193 
-0.14521568 -0.12155756 -0.9819043 
0.5364711 -0.23474917 -0.8106118 
0.330005 -0.21141471 -0.9200004 
0.57727504 -0.6542904 -0.488526 
0.74910945 -0.5892536 -0.3026803 
0.71320665 0.29151472 0.6374602 
0.62033606 -0.7162883 0.3195533 
0.7594218 -0.5404268 0.36223966 
0.53251874 -0.34601864 0.77246034 
-0.2965203 -0.6924663 0.65769756 
-0.540326 -0.49525627 0.6802714 
-0.49779493 -0.84400284 -0.19964857 
-0.90593535 -0.4200254 -0.05347861 
-0.5759779 -0.48237348 -0.6599738 
-0.3164476 -0.52531695 -0.7898753 
0.22173464 -0.46750122 -0.8557314 
0.42338815 -0.091636516 -0.90130204 
0.45034018 0.22215164 -0.8647789 
0.3826933 0.1545971 -0.91084886 
0.87158597 0.28144342 -0.40140682 
0.19972372 0.9763757 0.08246818 
0.5842689 0.7740494 -0.24388017 
0.14382403 0.3199706 -0.93644726 
-0.089536995 0.3509091 -0.9321191 
0.31429452 0.3332664 -0.88890517 
0.36239982 0.8988195 -0.24655592 
0.62136936 0.33432412 -0.7086096 
0.855006 0.40677163 -0.3217167 
0.40262005 0.7846193 0.471455 
0.8473953 0.5284214 0.051884465 
-0.53681487 0.79677385 -0.27745527 
-0.3270866 0.80248547 0.49903038 
0.6116473 0.5107432 0.60417634 
-0.6963674 -0.71487147 -0.06349262 
-0.5776831 -0.81524706 0.04067448 
0.17327982 -0.9840719 -0.039707847 
0.2383266 -0.8518015 -0.46651345 
-0.6790113 -0.6948711 -0.2368497 
-0.41670078 -0.68737036 -0.5948802 
-0.1519478 -0.94181716 -0.29982027 
-0.06947656 -0.9469049 -0.31391767 
-0.07506576 -0.9870573 0.1417148 
-0.17179316 -0.9817107 -0.08204532 
0.5390384 -0.7120303 -0.4499451 
0.4329444 -0.81283593 0.38968834 
-0.22649023 -0.9445518 0.23774792 
-0.9130072 -0.27658224 -0.29986683 
0.06447717 0.41600513 -0.90707356 
0.25762752 -0.22198026 -0.94040036 
0.47898573 -0.28396633 -0.8306237 
0.4652102 -0.44886357 -0.76295555 
-0.25858152 -0.88587314 -0.38518095 
0.2949662 -0.84906626 -0.4382709 
0.17481612 -0.896468 -0.40716642 
-0.53494143 -0.8445874 -0.02258162 
0.22113921 -0.78200865 -0.5827177 
-0.38405317 -0.70493156 -0.59630084 
-0.4031252 -0.34061447 -0.8493951 
-0.34653163 -0.33914787 -0.8745826 
0.34905782 0.16696164 -0.92210764 
0.18457067 -0.07301547 -0.98010325 
0.41052833 -0.4368777 -0.80037767 
-0.36611715 -0.8645346 -0.3442938 
-0.58563375 -0.6274278 -0.51319337 
-0.23210953 -0.7459997 -0.62418723 
0.1299131 -0.42151386 -0.89746803 
0.2207226 -0.90146697 -0.37234247 
0.082331106 -0.14414312 -0.986126 
-0.64107263 0.031292945 -0.766842 
-0.5070457 -0.07564946 -0.85859305 
0.76017904 -0.64223856 -0.09827334 
0.04605676 -0.9870672 -0.15354884 
0.11485545 -0.29855072 -0.9474575 
-0.16946816 -0.42048022 -0.8913345 
0.31180367 -0.51554424 -0.7981182 
0.4362376 -0.89456433 0.09721824 
-0.05629433 -0.8870199 -0.4582867 
0.028717548 -0.9020654 -0.43064296 
-0.19583845 -0.6287622 -0.75253266 
0.27599296 -0.6312881 -0.72477806 
0.3919422 -0.020595282 -0.91975933 
0.59181833 0.05814714 -0.80397147 
0.7696329 0.048183266 -0.63666606 
0.44535205 -0.5132592 -0.73363936 
0.93106467 -0.32199603 -0.17157245 
0.97151107 0.076650925 -0.22425646 
0.8813481 -0.4007772 -0.25020644 
0.943309 -0.31649768 0.099986844 
0.6720016 -0.7151183 0.19240522 
0.3698645 -0.2628676 0.8911235 
-0.5233426 -0.14211552 0.8401879 
-0.44414195 0.03347705 0.8953309 
-0.69105726 0.11063366 0.71428293 
-0.8671396 0.16119012 -0.47126082 
-0.6985334 -0.370875 0.61196643 
-0.98435384 0.12565008 -0.12352981 
-0.78206354 0.0744259 -0.6187387 
-0.6224597 0.23536034 -0.7464245 
-0.19132419 0.79740894 -0.57230586 
-0.66361564 0.50587016 -0.55109876 
-0.57009315 0.71124 -0.41125596 
-0.24985737 0.34660667 -0.9041213 
0.71949905 0.46316433 -0.517494 
0.0986489 -0.76225156 -0.63971955 
0.010093076 -0.2185093 -0.9757827 
-0.028653285 0.72159135 -0.69172615 
0.3697895 -0.019157596 -0.9289181 
0.14818552 0.10355125 -0.9835234 
0.5526705 -0.038047444 -0.8325309 
0.46414536 -0.41534346 -0.7823419 
-0.1899603 -0.36737478 -0.91046745 
0.33394685 -0.083333954 -0.938901 
0.4414707 -0.10870866 -0.8906661 
0.49013856 -0.6311048 -0.6012245 
0.8454728 -0.5279783 0.08009228 
0.59217983 -0.58819383 0.5507732 
0.7719157 0.62807304 -0.098339304 
-0.24719925 0.94898564 -0.19575237 
-0.16537301 0.968783 -0.18469273 
-0.1486559 0.06808171 -0.98654264 
-0.58815044 -0.06083043 -0.80646074 
-0.1677405 0.33389655 -0.92756474 
-0.57512295 -0.16374305 -0.8015123 
-0.75731254 0.15098765 -0.63535863 
-0.5084908 -0.021767516 -0.8607922 
-0.12221191 -0.82196426 -0.5562725 
-0.29956493 -0.71041346 -0.63684666 
0.25099576 -0.447591 -0.8582911 
-0.29109803 -0.14428805 -0.94574994 
0.20220104 -0.91812366 -0.3408281 
0.15709735 -0.2728687 -0.94913805 
0.4692739 0.0695955 -0.88030595 
0.39199507 -0.093614735 -0.91519195 
0.7323016 -0.30942285 -0.60662335 
0.44257653 -0.3131246 -0.8402851 
0.8924058 0.12748411 -0.43285057 
0.64746666 0.37124512 -0.6655554 
0.99259454 0.06623706 0.10182731 
0.75058085 -0.21510966 0.624785 
0.6720028 -0.07508107 0.7367328 
0.6838064 -0.21522951 0.69719803 
0.50243556 -0.42966104 0.7502999 
0.12742583 -0.8927314 -0.4321958 
0.28147516 -0.5133388 -0.8107127 
0.9417328 -0.325126 0.08621185 
0.68059105 -0.026105823 -0.7321983 
0.4708637 0.19706741 -0.8599139 
0.8760754 0.10416482 -0.4707884 
0.8067007 -0.19589645 -0.55754703 
0.7203974 0.057773978 -0.691151 
0.9985003 -0.0156148365 -0.05247427 
-0.15551305 0.47443736 0.86644393 
-0.15809219 0.6960352 0.70038694 
-0.8565348 0.35310835 0.37638113 
-0.8146165 -0.45562792 -0.35889176 
-0.5879871 -0.6713525 -0.45117295 
-0.7971573 -0.35108325 0.4912034 
-0.9839077 0.17449975 -0.038411327 
-0.8370259 0.5358371 -0.110753424 
-0.9577506 0.28146133 0.059103783 
-0.5843738 -0.119753875 -0.80259967 
-0.005593811 -0.2296587 -0.9732552 
-0.17368758 0.37353304 -0.9112112 
-0.25793225 -0.8445791 -0.46920922 
-0.5630613 -0.29109707 -0.7734497 
-0.07078299 0.12444011 -0.9896992 
0.60415816 0.09823456 -0.7907863 
0.8874929 -0.15519696 -0.43390113 
0.008654916 -0.7761549 -0.630483 
0.52277106 -0.601607 -0.60396975 
0.39914048 -0.5558895 -0.72915965 
-0.25711077 0.2752743 -0.92634666 
0.60654324 0.4763293 -0.6365656 
0.33822468 -0.1434871 -0.9300622 
0.32559505 0.1016344 -0.9400311 
0.71908134 0.43560743 -0.5414502 
0.13748422 0.108787596 -0.9845118 
0.5560328 -0.16585283 -0.81444484 
0.41782156 -0.50231254 -0.75703865 
0.7115985 -0.7018666 0.031794123 
0.9370793 -0.25341415 0.24013269 
0.43789154 -0.60553956 0.6645096 
0.78550655 -0.5433468 0.2962326 
0.6349912 0.34110668 0.6931324 
0.5194278 -0.7628332 0.38507175 
0.3518152 -0.14489211 0.9247877 
0.12256836 -0.3719602 0.92012095 
0.20564303 -0.6523631 0.7294748 
-0.22297674 -0.8700085 0.4397348 
-0.3047827 -0.7938975 0.52615047 
-0.11231122 -0.7898698 0.6029028 
-0.7998556 -0.1950446 0.56761664 
0.20034203 -0.6312861 -0.749227 
0.18962558 -0.7817034 0.5941229 
-0.717785 -0.19615985 0.6680614 
-0.58948714 -0.7999632 -0.11208851 
0.054009486 -0.9923702 0.110834874 
-0.21169476 -0.9597421 0.18460907 
-0.10346814 -0.79943836 -0.59177077 
-0.5599775 -0.30313998 -0.7710587 
-0.29827493 -0.43787846 -0.8481124 
-0.11735823 -0.84649116 -0.5193071 
0.23949851 0.21243276 -0.9473716 
0.13943197 0.015943896 -0.99010336 
0.38123444 0.2965154 -0.8756363 
-0.4018224 -0.065427 -0.91337734 
-0.23347348 0.075230755 -0.96944857 
-0.3173129 -0.050860062 -0.94695604 
-0.59919286 0.14839531 -0.7867318 
-0.6443791 0.082846545 -0.7602053 
-0.29051912 0.46173155 -0.8380946 
0.3667754 0.2758644 -0.8884676 
0.3804218 -0.085801125 -0.9208244 
0.42773858 0.5969823 -0.67871344 
0.8157379 0.23162882 -0.5300188 
0.38588575 0.540699 -0.74748707 
0.27445194 0.60144335 -0.7502946 
0.2768425 0.25782436 -0.92568076 
0.40068024 -0.66587937 -0.629333 
0.6317772 -0.77010626 0.08828304 
0.44975412 -0.8461548 0.28590795 
0.9496787 -0.2531582 0.1844485 
0.54353136 -0.6452043 -0.53692186 
0.22606693 -0.9316673 -0.28441134 
0.22510087 -0.6870459 -0.69086725 
0.09557801 -0.7456617 -0.6594344 
0.36614284 -0.8175189 -0.44452465 
0.20522068 -0.44270563 -0.87286663 
0.87698823 -0.4389377 -0.19551298 
0.8273038 -0.5606514 0.035190675 
0.9562017 -0.29253715 0.010017086 
0.8008839 -0.5986026 0.016124079 
0.025767405 -0.9757424 0.21740066 
-0.25083476 -0.8205706 0.513562 
0.20319556 -0.9751296 0.08850948 
-0.047021553 -0.82388985 0.5647961 
-0.15132709 -0.58056283 0.80002934 
0.19910115 -0.86289454 0.46451235 
-0.44834155 -0.7693664 0.45504433 
-0.4420944 -0.86889434 -0.222655 
-0.16837198 -0.6269029 -0.76068646 
-0.3987503 -0.57577574 -0.7137791 
0.22213745 -0.7940059 -0.5658709 
-0.3050067 -0.87943465 -0.3654663 
0.011964809 -0.99992365 0.0030873779 
-0.8527491 -0.47617358 -0.21465698 
-0.99391276 -0.06313734 -0.09028395 
-0.29371843 0.20564663 -0.933509 
-0.7513232 -0.0060839737 -0.6599063 
-0.35678622 -0.32400253 -0.8761998 
0.2535619 0.19062054 -0.94835126 
0.62414634 0.41709772 -0.66065943 
-0.26048124 -0.49153492 -0.8309891 
-0.79325765 -0.59474814 0.13044919 
-0.3992248 -0.86801225 -0.295253 
-0.27941132 0.2889486 -0.9156627 
-0.4733701 0.62589806 -0.6198165 
-0.4732835 -0.17742702 -0.86285716 
0.3915281 0.20529704 -0.8969721 
0.8888439 -0.34325185 -0.303537 
0.90483207 -0.42443544 0.033668794 
0.93825513 -0.31361106 -0.1460327 
0.9177443 -0.29742283 0.26322097 
0.5228705 -0.4669726 0.7131221 
0.8113377 -0.5835179 -0.03518501 
0.23339354 -0.43295822 0.87067485 
-0.48030978 -0.36209908 0.7988659 
-0.7886413 -0.60315704 -0.119359516 
-0.7334698 -0.6299038 0.25542796 
-0.47359636 0.02802035 -0.88029623 
-0.2562401 -0.2958247 -0.9202331 
0.22049627 -0.15916476 -0.96231395 
0.46086234 0.349122 -0.81591654 
0.17662255 0.5910954 -0.7870266 
0.66006756 0.40366584 -0.6335335 
0.83695793 0.3521449 -0.41892195 
0.9509509 0.30883184 0.017760064 
0.04419715 0.7132258 0.69953966 
0.55154955 0.71392316 -0.43140098 
0.9793553 0.09170942 -0.1801467 
0.93055075 0.032377265 0.36472875 
0.9130552 0.11008927 0.39269656 
0.9495552 0.2978701 0.09807378 
0.93608516 -0.18910311 0.2966219 