# OOMMF: rectangular mesh v1.0
# Segment count: 1
# Begin: Segment
# Begin: Header
# Desc: Time (s) :  4.870000000000006e-07
# Title: m
# meshtype: rectangular
# meshunit: m
# xbase: 2e-09
# ybase: 2e-09
# zbase: 5e-10
# xstepsize: 4e-09
# ystepsize: 4e-09
# zstepsize: 1e-09
# xmin: 0
# ymin: 0
# zmin: 0
# xmax: 1.024e-06
# ymax: 1.024e-06
# zmax: 1e-09
# xnodes: 256
# ynodes: 256
# znodes: 1
# ValueRangeMinMag: 1e-08
# ValueRangeMaxMag: 1
# valueunit: 
# valuemultiplier: 1
# End: Header
# Begin: Data Text
-0.06432421 -0.10277947 -0.9926222 
0.29584187 0.6613442 -0.68927616 
0.27373838 0.49299362 -0.8258478 
0.79330856 0.36640233 -0.48622122 
0.6483639 0.15166506 -0.74607104 
0.52707535 0.79915893 -0.28902727 
0.47206306 0.3071684 -0.82631963 
0.85459965 -0.08495707 -0.5122907 
0.8517396 -0.49975708 -0.15742451 
0.6749093 0.18472892 -0.71440375 
0.6135788 0.78005457 -0.12262193 
0.9652149 0.05963056 0.25456744 
0.9379353 0.26551807 0.22310926 
0.9256972 0.35024342 0.14287893 
0.092151925 0.8516751 0.5159047 
0.75972426 0.60255414 0.244433 
0.4253356 -0.34448332 0.83691156 
-0.22836007 -0.37575272 0.89814353 
-0.38394585 0.039593898 0.9225063 
-0.64035547 -0.4294547 0.6367995 
-0.8417323 -0.2141589 0.49560335 
-0.7447049 -0.13052855 0.65450513 
-0.8633956 -0.34734738 -0.36592084 
-0.51486343 0.31350058 -0.79789287 
-0.020910114 -0.1474121 -0.9888541 
-0.2765288 -0.6545758 -0.7036067 
-0.24764219 -0.24920346 -0.93625367 
0.53866005 -0.2140182 -0.81488746 
0.29841664 -0.61339134 -0.7312309 
-0.3522155 -0.92301995 -0.15485026 
-0.54233736 -0.3744418 -0.75210613 
-0.735228 0.04594651 -0.6762608 
-0.7682807 -0.4178001 -0.48496178 
-0.002047421 -0.22495563 -0.97436684 
0.35633424 -0.09012515 -0.9300018 
0.011605618 -0.20426583 -0.97884667 
0.7447091 0.19121929 -0.63940877 
0.85473794 -0.17199941 -0.489734 
0.40638393 -0.7245944 -0.55661047 
0.72865915 -0.24107762 -0.6410441 
0.04085398 0.09287374 -0.9948394 
0.041690692 0.6199166 -0.7835594 
-0.6419631 -0.047377877 -0.7652703 
-0.8359887 -0.08503175 -0.54211867 
-0.12904593 -0.9771719 0.16876741 
-0.25475445 -0.8899542 -0.37826166 
0.23401377 -0.6951451 -0.6797139 
0.7328368 -0.45057744 -0.5098335 
0.5090255 0.70024985 -0.50054306 
0.68418676 0.3441238 -0.6430143 
-0.7759957 0.21229698 -0.5939366 
-0.0016453792 0.35451004 -0.9350507 
-0.67367685 0.34965044 -0.6510793 
-0.57391006 0.5368856 -0.61836976 
-0.0400354 0.5151734 -0.85615057 
0.07298399 0.6885773 -0.7214809 
0.5556918 -0.31951606 -0.7675391 
0.89252234 -0.1370769 -0.4296672 
0.50010836 -0.23220402 -0.83425 
0.2674981 -0.46965316 -0.8413505 
0.78114825 0.5355753 -0.3208842 
0.8377203 0.45983052 -0.29458556 
0.79658914 0.009106741 0.60445267 
0.7341226 0.38966286 0.5560817 
-0.017865859 0.43314585 0.90114677 
-0.6840312 0.38625893 0.6187935 
-0.7969534 0.4788276 -0.36822477 
-0.9126231 -0.13437203 -0.38608736 
0.10591258 -0.7084696 -0.6977488 
-0.33333054 -0.5526346 -0.7638625 
-0.16287358 -0.6530306 -0.7396103 
-0.04185893 -0.50116277 -0.86434007 
0.24053943 -0.9371825 -0.25264555 
-0.053822137 -0.6723203 0.7383012 
0.47609293 -0.11308213 0.8720941 
0.4880881 -0.22619425 0.8429746 
-0.64577425 -0.7631362 -0.024471937 
-0.4448184 -0.87761724 0.17867476 
0.05397481 -0.9387064 0.34046602 
-0.35378033 -0.91403586 0.19843875 
0.4078196 -0.8846896 0.2258483 
0.6961307 -0.4694073 0.5431932 
0.14905459 -0.90296584 -0.40303275 
0.8856918 -0.10101197 -0.453152 
0.93744123 0.26894662 0.22106951 
0.71895814 -0.29379854 0.6299061 
0.4025576 0.1870926 0.8960714 
0.37900728 -0.061720144 0.92333317 
-0.069383666 -0.40015253 0.91381836 
-0.1467704 -0.89574784 0.41963595 
0.7994495 -0.60073 0.0020115383 
0.89982945 0.15289564 0.40857044 
0.605957 -0.21721706 0.76526654 
0.30704844 -0.5522901 0.77504647 
0.53163993 -0.42868114 0.7304736 
0.15437987 0.013523787 0.9879191 
0.12163037 0.37252736 0.92001605 
0.3453901 0.8244012 0.44840655 
0.2753115 0.6571952 0.70163965 
-0.9144623 -0.21568727 -0.34239998 
-0.8667998 0.43651617 -0.241064 
-0.7110487 -0.37425736 -0.5952657 
-0.825896 0.53074986 -0.1902645 
-0.5178678 -0.6966863 -0.4964285 
-0.88236314 -0.3224501 -0.34272632 
-0.54883385 0.1846927 -0.8152729 
-0.12604134 -0.22995566 -0.9650047 
0.5325523 -0.33873743 -0.7756578 
0.92962563 -0.34549493 -0.12817751 
0.7752023 -0.5788715 0.25292146 
0.9455053 -0.31771618 -0.07124666 
0.8331384 -0.52985173 -0.15854844 
0.68239516 -0.5809262 -0.44369105 
0.7364514 -0.22585833 0.6376735 
-0.0810084 0.0632487 0.99470466 
-0.012355712 0.8860924 0.46334395 
0.2983537 0.5656457 0.7687849 
0.12832992 -0.22571093 0.965705 
0.32457098 0.63823813 0.69807297 
-0.2372009 -0.35320637 0.9049757 
0.19348863 -0.24330159 0.95045596 
0.0016537154 -0.6117534 0.7910468 
-0.08209933 -0.7750283 0.62657076 
-0.44342852 -0.84320736 0.3039285 
0.18328173 -0.89004993 0.41739565 
0.7628861 -0.5331302 0.3657556 
0.16957214 -0.43524298 0.88419956 
-0.49928358 -0.72095007 0.48056936 
-0.37372586 -0.7895215 0.4868109 
-0.20590656 -0.18655956 0.96062374 
0.031395763 -0.6137937 0.788842 
-0.55902535 -0.066594966 0.82647187 
-0.73358077 -0.67958707 0.004557479 
0.38184735 -0.82741696 0.41179362 
-0.51675457 -0.83299017 0.19771695 
-0.54589623 -0.6723942 -0.4998834 
-0.35346216 -0.7219769 -0.5948226 
-0.12678812 -0.691337 -0.71132135 
-0.22469482 -0.9697804 -0.09507061 
-0.038001757 -0.96922 -0.24324583 
0.33117077 -0.92830265 -0.16905707 
0.58952564 -0.5553202 0.5865826 
0.81002367 -0.5802109 -0.084952906 
0.7225007 0.10853155 0.6827984 
0.57036215 -0.40403458 0.7151525 
-0.7579469 0.054256774 0.650056 
-0.81122917 -0.4500576 0.37330353 
-0.9917338 -0.12387987 -0.033435635 
-0.704687 -0.7030488 -0.095596366 
-0.7233768 -0.6873598 -0.06528787 
-0.79109854 -0.1767631 -0.5855921 
-0.84316146 -0.32524002 -0.42813295 
-0.41952795 -0.46999285 -0.776597 
-0.24557461 -0.8090958 -0.5339074 
-0.687331 -0.47876263 -0.5462257 
-0.043329068 -0.7739306 -0.63178635 
0.35631517 -0.9335832 -0.03823503 
0.8080427 -0.5206887 0.27559087 
0.53484267 -0.43550467 0.7240712 
0.07841669 -0.10216406 0.99167204 
-0.8662042 -0.117105596 0.48577422 
0.11669132 -0.9225734 -0.36775216 
-0.025180299 -0.9934273 -0.1116611 
0.45907286 -0.29190552 -0.83907294 
-0.038244557 -0.86262184 -0.5044017 
-0.19641393 -0.82667506 -0.5272854 
-0.5014638 -0.7936315 0.34450442 
-0.18305743 -0.98251486 0.03397776 
-0.92453563 -0.12732477 -0.35919678 
-0.7164962 -0.16542302 -0.6776935 
-0.089085735 0.62965804 -0.7717477 
0.21053031 0.16784036 -0.9630714 
-0.23415864 -0.38150612 -0.8942163 
0.2716689 -0.7979252 -0.5380627 
0.48400962 -0.4566185 -0.7464813 
0.86160797 -0.31852037 -0.39519188 
0.42496467 0.017906498 -0.9050328 
0.865512 -0.10024737 -0.49075407 
-0.2495699 0.56364477 -0.78741324 
-0.044499837 0.9675762 -0.24862866 
-0.17376304 0.97981036 0.09888426 
0.042110242 0.2657562 -0.9631202 
-0.042929307 -0.43547457 -0.89917684 
-0.3027188 -0.9067671 -0.2934872 
-0.060811166 -0.9909937 -0.11930491 
-0.121488705 -0.31344545 -0.9418028 
-0.63432586 -0.52709043 -0.5655143 
-0.7500711 -0.38593563 -0.53707266 
-0.24123083 -0.5486561 -0.80049 
0.17969693 -0.94254565 -0.28163236 
0.14638449 -0.98816025 0.045945775 
0.18576925 -0.9779735 -0.09517165 
0.6667149 -0.7382964 -0.10202823 
0.566557 -0.56522775 -0.59960896 
0.8333424 -0.38101402 -0.40046084 
0.87398016 0.45144925 -0.17986707 
0.9120517 0.37204236 -0.17247137 
0.9952215 -0.033355977 -0.09176962 
0.66518426 0.7217491 0.19133237 
0.91143626 0.41115803 -0.0152654955 
0.5782971 0.63925594 0.5068772 
0.5101929 0.850622 -0.12706476 
0.7421349 -0.4405551 0.50512093 
0.43971875 0.18646695 0.8785656 
0.32311735 -0.7403078 0.5895249 
-0.6922342 0.1540481 0.7050398 
-0.8286477 0.5573932 0.051535163 
-0.62776643 0.6962609 -0.34803757 
0.42641166 0.54736924 -0.72011113 
-0.048672426 -0.52597004 -0.84910923 
-0.3466716 -0.24784522 -0.90465 
0.5181015 -0.7335159 -0.43991515 
-0.18026797 -0.6733909 -0.7169715 
0.22926378 0.2806358 -0.9320309 
0.8596349 0.3074294 -0.40806285 
0.9042057 -0.12832354 0.4073639 
0.7372506 0.08356319 0.6704318 
0.56368434 0.08164889 0.82194495 
-0.7420505 -0.59034103 -0.31758234 
-0.36281678 -0.0693545 -0.9292761 
-0.69756585 -0.56019807 -0.44674394 
-0.57687193 -0.5789707 -0.5762047 
-0.6835438 -0.70378727 -0.19352403 
-0.35519123 -0.9042016 -0.23718901 
-0.6115818 -0.60088706 -0.51468676 
-0.48303434 -0.8706788 -0.09271717 
-0.8165932 -0.5552578 0.15768425 
-0.28946534 -0.9269225 -0.23879816 
-0.39145395 -0.62119114 -0.6788855 
-0.5887407 -0.21648346 -0.7787936 
-0.19405009 -0.35856324 -0.9131139 
-0.7670025 -0.11949291 -0.6304195 
0.23072556 -0.31074822 -0.92206365 
0.5148824 -0.19977589 -0.83365804 
0.8877282 0.28057948 -0.3649845 
0.63709944 0.110183895 -0.76286554 
-0.103650294 0.13659057 -0.98519015 
0.09337634 0.20660001 -0.97395957 
0.4958714 0.047722414 -0.8670837 
0.99628717 0.08544982 0.010501343 
0.94356817 0.32702115 0.052310202 
0.24227436 -0.6515861 0.7188455 
0.7872977 0.34611604 0.5102607 
-0.09485584 0.015450794 0.99537116 
-0.45593873 0.16855799 0.873904 
0.3271803 -0.41502663 0.84894407 
0.24463865 -0.41940457 0.87421495 
0.08033427 -0.61539936 0.784111 
0.36803845 -0.6387392 0.6756922 
0.5423917 -0.43928775 0.7161268 
0.39981562 -0.85430133 0.33213988 
-0.067372985 -0.9381738 0.3395451 
-0.13628896 -0.8578496 0.49549922 
0.0863677 -0.9712377 0.22189625 
0.26712355 -0.6432705 0.71752924 
-0.1583809 -0.75411785 0.63735545 
0.65613514 0.055962175 -0.7525657 
0.62375987 -0.10859915 -0.77403474 
0.3963703 0.052646995 -0.91658 
0.34291553 0.091268584 -0.9349219 
0.45326862 0.62180567 -0.63867474 
0.582779 0.52313983 -0.62184674 
0.97346073 0.04665254 0.22404832 
0.97775805 0.17777577 0.11128765 
0.9129741 -0.40718293 -0.026083952 
0.61059916 -0.6059926 -0.50984466 
0.96886635 0.20073469 0.14492618 
0.63072467 0.58984786 0.5042479 
0.46189648 0.88416415 0.07003977 
0.41534388 0.5000853 0.7598713 
0.7102805 0.5160407 0.4787523 
0.4117634 -0.2983788 0.86105806 
0.15597944 -0.3183655 0.93504757 
0.23325649 -0.29910487 0.92527175 
-0.18095319 0.7395028 0.6483762 
-0.7352646 0.33683524 0.58815646 
-0.7267519 0.25487813 0.6378627 
-0.45530877 0.053621497 0.8887175 
-0.85355335 0.32384923 -0.40812802 
-0.69610035 -0.21167348 -0.6860311 
-0.109872244 -0.291245 -0.9503181 
-0.064322494 -0.5141483 -0.85528606 
-0.10758757 -0.48519647 -0.8677611 
-0.12591887 -0.36404526 -0.92283016 
-0.1902901 -0.9817178 -0.0044366955 
-0.7112787 -0.69557333 0.10129408 
-0.44273052 -0.076936156 -0.8933479 
-0.28945 0.5408651 -0.7897365 
-0.5746001 0.44015673 -0.6899977 
-0.24620833 0.29419935 -0.923487 
0.4372711 -0.19109862 -0.878792 
-0.18489239 -0.49623463 -0.84827244 
-0.07198975 -0.029231455 -0.99697703 
-0.2997672 0.43238953 -0.8503993 
0.6508527 0.13757859 -0.7466344 
0.4490603 0.063726544 -0.8912261 
0.41519845 0.34120438 -0.8433208 
0.017778387 0.6919415 -0.72173464 
-0.82580525 -0.37295577 -0.42302468 
-0.61699426 -0.71228045 -0.33462623 
-0.18449844 -0.5574271 -0.8094662 
-0.024253711 -0.6677351 -0.74400383 
0.37489524 0.09810103 -0.9218621 
0.7374428 -0.0007983907 0.6754092 
0.7569053 0.41422516 -0.505482 
0.68890435 -0.4815933 -0.5417368 
-0.16777904 0.58092195 -0.7964798 
0.004613405 0.98139834 0.19192748 
0.21139553 0.7467458 -0.63062084 
-0.541135 -0.31991792 -0.7777052 
-0.37305257 0.23378222 -0.89787394 
0.29394624 0.19304033 -0.9361256 
0.5286128 0.16568011 -0.8325375 
0.77873653 -0.11830943 -0.6160944 
-0.045728166 0.18641743 -0.98140585 
0.6483025 0.37739062 -0.66127175 
0.9457556 0.21019562 -0.24771826 
0.9060895 0.41150877 -0.09829822 
0.76101756 0.3395829 0.552753 
0.6219251 0.49662098 0.60545594 
-0.2124112 -0.56400716 0.79798335 
-0.16685122 -0.009690413 0.98593444 
-0.6589543 -0.060826734 0.7497195 
-0.7875405 -0.5680467 0.23896255 
-0.14712138 -0.70368856 -0.69510984 
0.42639747 -0.42075554 -0.8007184 
0.19713613 -0.42369258 -0.8840939 
-0.2308984 -0.33999583 -0.91164076 
0.74769175 -0.49636033 -0.44111615 
0.32010663 -0.92504305 0.20451693 
0.12610234 -0.66187674 0.7389299 
-0.18291137 -0.9808288 -0.06721929 
-0.32219654 -0.71944624 -0.6152938 
0.3589814 -0.9057782 -0.2251627 
-0.38208967 -0.92294484 -0.04669504 
-0.6601478 -0.56907976 -0.49025828 
0.22182614 -0.2595835 -0.9398987 
0.88315254 -0.39153028 -0.2583522 
0.44853294 -0.8511537 -0.2726826 
0.9072345 -0.3929162 0.15014143 
0.9303645 -0.30063608 -0.20985691 
0.79265976 -0.6053332 -0.072541796 
0.90939635 0.1568843 -0.3852084 
0.804384 -0.22393662 0.5502898 
0.18447813 -0.28201118 0.9415082 
0.5386574 -0.8425247 -0.0004510125 
0.8016131 -0.59161186 0.086092554 
0.18927923 -0.9761095 -0.10669484 
0.77551645 -0.25844893 0.57600224 
0.7078159 -0.42138743 0.5669474 
0.32581 -0.37724784 0.8669095 
0.57097423 -0.4776955 0.6676792 
0.01196015 -0.5051216 0.8629653 
0.30418518 -0.047487546 0.95142853 
-0.0436032 0.13481669 0.9899107 
-0.5512723 0.7633031 -0.33684886 
-0.7479469 -0.45617384 0.48216265 
-0.8708305 -0.47763947 -0.116254166 
-0.41788343 0.63910013 -0.6456969 
-0.78824437 0.34157968 -0.5118537 
-0.8715684 -0.43633345 -0.22356606 
-0.18503746 -0.07349697 -0.9799793 
-0.191517 -0.499981 -0.8445947 
0.6804076 -0.26710296 -0.6824233 
0.7862987 0.09271256 -0.6108508 
0.92352796 -0.37211293 -0.092888154 
0.88591146 -0.15670559 -0.4365826 
0.97460276 0.031003498 -0.22178464 
0.67977244 -0.25336957 -0.68826836 
0.71274674 -0.70127785 -0.014192882 
0.8921731 -0.067013755 0.4466951 
0.8165037 0.36174256 0.44996014 
0.7472604 -0.20347239 0.63261443 
0.8399585 -0.1698662 0.5153788 
0.6837655 0.054863937 0.72763646 
0.12979129 0.2894282 0.94835943 
-0.17530142 -0.29892564 0.93803674 
0.37064323 -0.5132816 0.77405787 
-0.14840604 -0.6579858 0.7382617 
-0.57607275 -0.8167716 0.032007463 
0.52675074 -0.81333125 -0.2470346 
0.49734494 -0.70041764 0.5119211 
0.5338395 -0.5773653 0.61779016 
-0.48131317 -0.87461185 0.058238693 
-0.22879915 -0.93312776 0.2773508 
-0.35345313 -0.7247124 0.5914921 
0.033100713 -0.9962547 -0.07988116 
0.23326458 -0.94976443 0.20865087 
-0.6919655 -0.59716 0.40568918 
-0.026760919 -0.89458257 -0.44610077 
-0.4900854 -0.86874306 -0.07142715 
-0.17818113 -0.9800808 0.08771068 
0.07490604 -0.9970201 -0.018440297 
0.07083501 -0.79756224 -0.59906334 
-0.2469637 -0.9559348 0.15873705 
-0.09248452 -0.8976617 0.4308713 
0.7853711 -0.60631156 -0.12481392 
0.3937365 -0.882861 0.25598425 
0.5666004 -0.8235738 -0.026274078 
-0.5103323 -0.336432 0.7914383 
-0.051370792 -0.39270034 0.9182306 
-0.5249074 -0.1478256 0.8382243 
-0.8461238 -0.48607472 0.21864533 
-0.8962863 -0.20323922 -0.39416343 
-0.71312296 -0.6997135 0.043088526 
-0.33679074 -0.94147116 -0.014290091 
-0.78500456 -0.37542015 0.49277538 
-0.7637678 0.1581625 -0.6258143 
-0.23914716 -0.22499737 -0.94455546 
-0.8049326 -0.1435472 -0.575741 
-0.20564689 -0.51452816 -0.83244836 
0.5432744 -0.008203515 -0.83951515 
0.4823402 -0.52325207 -0.70253485 
0.68247044 -0.4782551 -0.5527262 
0.5325753 -0.7987546 -0.27991897 
0.9331114 -0.35906917 0.019301537 
-0.33561218 -0.8824684 0.3295663 
-0.22828464 -0.8806935 0.4150483 
-0.14350685 -0.94630975 -0.2896613 
0.08155373 -0.47361633 -0.8769473 
-0.025296707 -0.9979525 0.0587452 
-0.39779913 -0.79261374 -0.4620816 
-0.67342454 -0.6622851 -0.32844776 
-0.62522155 -0.6400314 -0.44660708 
-0.74219126 0.14842114 -0.6535468 
-0.6425873 0.22206469 -0.73332727 
-0.8919188 0.1287919 -0.43346694 
-0.48482177 0.38335267 -0.7861225 
0.39300013 0.09600961 -0.9145125 
0.27519023 0.07532972 -0.9584341 
0.6924715 0.20686638 -0.69115096 
0.50476724 0.00071211293 -0.8632552 
0.6754431 0.6339226 -0.37672105 
0.3642695 0.867666 -0.3383247 
0.35416028 0.8148686 -0.4588677 
-0.1024514 0.32997724 -0.9384129 
-0.22601756 0.7629715 -0.6056324 
-0.2116579 0.016302 -0.9772079 
-0.1344588 -0.015332115 -0.9908006 
-0.8010137 -0.32537556 -0.5025015 
-0.7909068 0.07848538 -0.60688275 
-0.5973345 -0.5611677 -0.5729593 
-0.9673369 0.25309822 0.014165936 
-0.7906771 0.082783766 -0.6066107 
0.12766324 -0.32495427 -0.93707365 
-0.5432739 -0.8382035 -0.047628142 
-0.013481916 -0.8609903 -0.5084427 
-0.015534455 -0.88540596 -0.46455902 
0.535389 -0.6851048 -0.49395353 
0.43678227 -0.7914222 -0.42763564 
0.95850354 -0.26837888 -0.096144624 
0.9981808 -0.012253668 -0.059033636 
0.9228665 0.37898234 0.06848293 
0.67803466 0.7211032 0.14240547 
0.27495748 0.83435416 0.47775677 
0.91413397 0.26240727 -0.3090334 
0.7791295 0.549171 0.30227238 
0.5180368 0.5777728 0.63072693 
0.8386872 0.46613827 0.28163606 
0.3955402 0.4084966 0.8226047 
-0.48706722 -0.04146388 0.8723797 
-0.71849984 0.69200975 -0.0698611 
-0.9277291 0.3707739 0.042957876 
-0.8683721 0.31805575 -0.38048732 
-0.16042942 0.5821211 -0.7971183 
-0.36455768 -0.23342049 -0.90145034 
0.034156404 -0.21696635 -0.9755814 
0.3355749 -0.32109177 -0.8856013 
0.7239427 0.45909154 -0.5149194 
0.5671025 0.63499016 -0.5245782 
0.5419014 0.11155613 -0.8330054 
0.62594044 -0.7772285 0.06414525 
0.6138727 -0.6844685 0.39327258 
0.22715396 -0.6048998 0.76321524 
-0.49194127 -0.8502832 0.18711603 
-0.2547528 -0.123866774 -0.95904016 
-0.86592656 -0.46729785 -0.17833652 
-0.9664238 -0.087229535 0.24169418 
-0.85013443 0.028635908 -0.5257866 
-0.43054903 -0.81964976 -0.37789142 
0.14378503 -0.8651106 -0.48053068 
-0.38523126 -0.88247603 -0.26987624 
-0.9203797 0.0019532635 -0.39102107 
-0.752498 0.01054172 -0.6585102 
-0.38583353 -0.36631593 -0.84672624 
-0.68312573 -0.4860359 -0.54507655 
-0.6623136 -0.3076165 -0.6831638 
-0.03254487 -0.55635023 -0.83031034 
-0.0009149814 -0.5689842 -0.822348 
0.6642732 -0.0842988 -0.7427213 
0.5127081 0.052029785 -0.85698503 
0.4371522 0.3999326 -0.8055755 
0.3336689 0.60003734 -0.7270628 
0.36111137 -0.2986009 -0.883423 
0.62718886 -0.2137762 -0.7489552 
0.68855304 -0.21637963 -0.69215226 
0.60313064 -0.5063441 0.61631906 
-0.08026089 -0.6035257 0.7932937 
-0.023379583 0.041111644 0.99888104 
0.1511932 -0.52566665 0.83714706 
-0.5565724 -0.824709 -0.10041124 
-0.33493817 -0.927431 0.16639757 
0.3084225 -0.9292587 0.20335631 
-0.46635154 -0.6418379 0.6087368 
0.15402181 -0.97430336 0.16434799 
0.39062592 -0.17737874 0.9032985 
0.52861285 -0.59248465 0.6078902 
-0.14621201 -0.56243986 0.813808 
-0.7912253 -0.4472722 0.4170253 
-0.38459674 -0.5197739 0.76283705 
-0.26199326 -0.8207287 0.50770473 
0.37763524 -0.91436994 0.14601192 
-0.06029414 0.49607873 -0.8661816 
-0.25907642 -0.0036717232 -0.96584994 
0.20130874 0.5066275 -0.8383337 
0.3559025 0.41422412 -0.83770627 
0.26499653 0.9515025 -0.15626876 
0.13010006 0.46633282 -0.87499005 
0.9880085 0.15139522 -0.03031214 
0.6449282 0.63476855 -0.42560136 
0.54113287 -0.04818268 -0.83955574 
0.81702834 0.11564829 -0.56488067 
0.9866557 0.11309018 -0.117137074 
0.9863014 -0.113974005 0.119245686 
0.9606619 0.08457563 0.2645293 
0.83940065 0.44887987 0.30645296 
0.9617114 -0.22036651 0.16294113 
0.87795144 -0.41844466 0.2326055 
0.80264974 -0.012546211 0.5963188 
-0.1504702 -0.7086522 0.6893264 
-0.10712144 -0.5373332 0.8365394 
-0.545561 0.33405608 0.7686154 
-0.60196364 -0.4134888 0.68313015 
-0.9100051 -0.093942255 0.40381402 
-0.80865324 -0.5142095 -0.2857771 
-0.87987995 -0.46784276 -0.08327368 
-0.8438216 -0.43003327 -0.32099324 
-0.5481265 -0.80559355 -0.22489175 
-0.29538476 -0.5889757 -0.7522337 
-0.36019748 -0.3122593 -0.87906307 
-0.029123632 -0.5700539 -0.82109106 
-0.2134649 -0.6961834 -0.68539155 
-0.6198752 -0.41875795 -0.66362387 
0.21531256 0.26580414 -0.93967485 
-0.3586222 -0.34451455 -0.8675828 
-0.63122696 0.5254424 -0.5704936 
-0.1780552 0.12639865 -0.9758687 
-0.17080978 -0.28751013 -0.9424235 
-0.02557921 -0.31617922 -0.94835466 
0.25877205 0.07530747 -0.96299833 
0.24388067 -0.063238956 -0.9677413 
-0.3751418 0.3323702 -0.86533165 
-0.45794046 0.42393 -0.78139234 
-0.7986698 0.39508232 -0.45391244 
-0.7136819 0.33682576 -0.61417156 
-0.7213781 -0.66599077 -0.18992129 
0.17636292 0.4900725 -0.853654 
0.09455983 0.53905463 -0.83694595 
0.6629375 0.27866915 -0.6948795 
0.9600126 -0.028198369 -0.27853295 
0.66187745 0.73104894 -0.16578873 
0.43913516 0.4737841 -0.7633408 
0.23232627 0.7214723 -0.6523053 
0.068732746 0.9869511 -0.1456138 
-0.86794513 0.02254786 -0.49614805 
-0.10070663 0.31149617 -0.9448959 
-0.30580828 -0.16762826 -0.9372204 
0.6044336 0.025432607 -0.79624957 
0.008625387 0.7412309 -0.6711948 
0.04835452 0.22863662 -0.9723103 
0.65074974 0.06759081 -0.756278 
0.774489 0.62303823 0.1095002 
0.61865413 0.70679843 0.34307882 
0.7732598 0.37120676 0.5140766 
0.22665711 0.77890694 0.5847483 
0.20851117 0.60116345 0.7714439 
-0.12428342 0.71195424 0.6911403 
-0.84629625 0.05191222 0.53017706 
-0.8920419 0.1595584 0.42285022 
-0.9540721 0.22157812 0.20161755 
-0.53393555 0.079472244 -0.8417821 
-0.12813802 0.17409816 -0.9763558 
0.34175524 0.289293 -0.8941549 
-0.37608668 -0.20137395 -0.90443766 
0.44276917 -0.45894834 -0.770274 
0.6456344 -0.7207349 0.25238353 
-0.029428214 -0.94393224 0.32882506 
-0.59472877 -0.79569113 0.114775665 
-0.4557796 -0.5834803 -0.6721725 
0.06541189 -0.6851227 -0.7254847 
-0.053899504 -0.90171385 -0.42896047 
0.011539174 -0.8762394 -0.48173773 
-0.50213224 -0.58456606 -0.63729566 
0.37517902 -0.52050453 -0.7670174 
0.8537109 -0.42699406 -0.2980835 
0.72226024 -0.6865587 0.083530635 
0.71308863 -0.69581467 -0.08571268 
0.8470036 -0.5169496 0.12388699 
0.69828486 -0.6644294 0.2663303 
0.9184625 -0.39236063 -0.049796943 
0.7437327 -0.6134327 0.26563516 
0.17224962 -0.42471808 0.8887883 
0.25497043 -0.63170785 0.7320761 
0.28263006 -0.8726873 0.39816737 
0.17039973 -0.98331195 0.063731335 
0.76128566 -0.53857857 0.36107826 
0.10414199 -0.60525817 0.78918755 
0.21280017 -0.9364664 0.27883115 
-0.3316573 -0.767306 0.54885787 
-0.18062882 -0.29414636 0.93853676 
-0.71733004 -0.21967705 0.6611957 
-0.2942559 -0.048420515 0.95449936 
-0.67579657 0.5527605 0.48760113 
-0.58386606 0.44761074 0.67730725 
-0.47154632 0.84492755 0.25247082 
-0.9440805 0.3297064 -0.0024035051 
-0.552833 -0.1579241 -0.8181905 
-0.41403952 0.4011783 -0.8170847 
0.17816104 -0.22600693 -0.957695 
-0.17788462 -0.6036938 -0.7771171 
0.85032904 -0.18708959 -0.49187198 
-0.23888412 0.26147974 -0.93518054 
0.5818947 -0.10831871 -0.8060184 
0.47796196 0.23004407 -0.8477218 
0.4760338 0.40702248 -0.779567 
0.754402 -0.18440545 -0.6299781 
0.99320894 -0.11440563 0.021154908 
0.36838683 -0.17146222 0.9137242 
0.55235845 0.21080905 0.8065108 
0.5455435 -0.69528264 0.46793646 
-0.4977774 -0.72327816 0.47862965 
-0.35285679 -0.5292371 0.7716219 
-0.2221053 -0.87517595 0.42980975 
-0.5631746 -0.8130688 -0.14749122 
-0.24980994 -0.8751978 -0.41427514 
-0.16913171 -0.9832763 -0.067544006 
0.11882683 -0.9156186 -0.38408715 
-0.28987855 -0.65552396 -0.69732267 
0.5324687 0.08694353 -0.8419726 
-0.7208992 -0.3013034 -0.6241159 
-0.27013475 -0.8027149 -0.5316729 
-0.47977853 -0.87241095 -0.09333779 
-0.0062521757 -0.78555554 0.6187597 
0.16033094 -0.98696214 -0.014138332 
0.3148409 -0.87429446 -0.36943796 
-0.5225897 -0.8162272 -0.24631982 
-0.43146136 -0.7670246 -0.47488356 
-0.03689399 -0.94325286 -0.33001965 
-0.0734707 -0.7172884 -0.6928922 
-0.0036142769 -0.87122566 -0.49086937 
0.52761 -0.84154475 -0.11588939 
0.30527157 -0.9490088 -0.078686364 
0.43390885 -0.6785292 -0.59272355 
0.37198985 -0.37643883 -0.8484795 
0.35924527 -0.889296 -0.2830117 
0.25543207 -0.5941226 0.7627404 
0.6188591 -0.3992599 0.67646503 
-0.1378669 -0.24838296 0.9588006 
-0.55969924 -0.7977943 0.22418976 
-0.9965376 -0.026265519 0.07888643 
-0.85176766 -0.25596675 -0.45713565 
-0.73683137 -0.55546045 0.38541308 
-0.69609314 -0.70794183 0.11946833 
-0.8228716 -0.1724136 -0.54143876 
-0.7349759 -0.11840002 -0.6676765 
0.0021237622 -0.518452 -0.8551041 
0.051804822 -0.6865193 -0.7252638 
-0.19284375 -0.28008854 -0.94040513 
0.39466816 0.06674349 -0.91639644 
0.4530605 -0.280367 -0.84624505 
-0.043270294 -0.891842 -0.4502728 
0.63132405 -0.7607052 0.15085647 
-0.37782204 -0.8873438 0.2643321 
-0.4244718 -0.8943001 0.14160149 
-0.8708291 -0.4912278 -0.01876098 
-0.76642394 -0.6421857 -0.01385695 
0.019846978 -0.80020326 -0.5994004 
-0.7925192 -0.11937095 -0.59805006 
-0.75478107 0.42310175 -0.50128895 
-0.08131344 -0.6536922 -0.7523794 
-0.7218246 -0.6194467 -0.30863428 
-0.8513327 0.0087047 -0.52455395 
-0.78801864 -0.1768408 -0.5897068 
-0.6927106 0.032523736 -0.720482 
-0.41520724 0.39033666 -0.82173 
0.028709784 0.10867002 -0.99366325 
0.42176613 0.18391526 -0.8878561 
0.81405395 0.23640424 -0.53049904 
0.9052304 0.41692635 -0.08203894 
0.26906106 0.84936684 0.454073 
0.28087464 0.86381114 -0.41825807 
-0.8550249 0.47959143 0.19729324 
-0.618545 0.64264965 -0.45211017 
0.2873534 0.8728111 -0.39449835 
-0.0014729629 0.9783852 -0.2067858 
-0.5613576 0.70609814 -0.43162847 
-0.40384758 0.51761246 -0.75431067 
-0.5437708 -0.15312454 -0.8251462 
-0.5965786 -0.1779973 -0.782567 
-0.7257684 -0.21310917 -0.65409845 
-0.42770383 0.2886237 -0.8566014 
-0.12086115 -0.6472071 -0.7526724 
0.097224966 -0.6026818 -0.79203665 
0.27294984 -0.57095736 -0.7742778 
0.8755284 -0.42281795 0.23382692 
0.79877 -0.5787302 -0.1644318 
0.9062744 -0.4225373 0.011363279 
0.9960635 -0.06351461 0.061833855 
0.75142395 0.04740607 -0.6581147 
0.35493562 -0.6746413 -0.64720935 
0.98560023 0.054184485 0.16017579 
0.98819435 -0.15118502 0.024801396 
0.6773613 -0.65710694 0.33074486 
0.32523197 0.24199966 0.91414464 
0.20836791 0.32699355 0.9217691 
-0.12998596 0.22519751 0.96560335 
0.04028804 0.79390925 0.6067 
-0.15916662 0.85911196 0.486408 
-0.83108324 0.4570998 0.31679714 
-0.67259324 0.7394272 -0.029425291 
-0.39539808 0.8964753 -0.19998123 
-0.21811028 0.52443796 -0.8230387 
-0.11278244 -0.49039477 -0.86417204 
-0.0028430251 -0.43132252 -0.9021934 
0.29653567 -0.23967075 -0.92445916 
0.408101 -0.50383747 -0.7613156 
0.8738561 -0.007416357 -0.48612824 
0.8283258 -0.43613973 -0.35165107 
0.7178292 -0.68502486 0.12434719 
0.3502556 -0.63479507 0.6887353 
-0.49324712 -0.5692279 0.65778947 
-0.32786486 -0.37713385 0.8661841 
-0.949542 0.15895438 0.27037698 
-0.99848086 0.041393794 0.036367267 
-0.39606878 -0.8979847 -0.19171104 
-0.2982441 -0.8671683 -0.3988353 
-0.72100455 -0.4003353 -0.56558305 
-0.7141993 -0.2152942 -0.66600895 
-0.53703445 0.23603667 -0.8098647 
-0.67416465 -0.262112 -0.69050664 
-0.3063353 -0.26943493 -0.912997 
-0.26803073 -0.589564 -0.7619539 
-0.42791954 -0.8859113 -0.17901424 
-0.021994065 -0.68175274 -0.731252 
-0.10348498 -0.47166097 -0.8756865 
0.19524744 0.14187571 -0.97043794 
0.45868462 -0.097641416 -0.88321835 
0.11817461 0.49672034 -0.8598277 
-0.08618556 0.0941912 -0.9918166 
0.5620068 -0.30477285 -0.7689356 
0.5403813 -0.54160297 -0.6439366 
0.94319093 -0.25357404 0.2146886 
0.78518754 -0.12564301 0.6063782 
0.3162787 -0.5625926 0.76384383 
0.34250823 -0.87588525 0.3398725 
0.42342514 -0.85171646 0.3086911 
0.27195373 -0.9250524 -0.2651778 
0.41194662 -0.74013454 0.5315082 
-0.043189123 -0.81237614 0.5815321 
-0.62769425 -0.6040407 0.49105486 
-0.1806958 -0.97194546 0.15056925 
0.1588492 -0.9663264 0.20243573 
0.65565884 -0.06553284 0.7522082 
0.06093751 -0.57508785 0.8158191 
-0.07301656 -0.9948893 0.06974241 
-0.3354618 -0.9401399 -0.06001987 
-0.12915348 -0.8968042 -0.42315686 
0.5648756 -0.3487039 -0.7478778 
0.002475227 0.03914038 -0.9992307 
0.7863219 -0.2761032 -0.55268896 
0.83545804 -0.28517216 -0.46977317 
0.783677 -0.01655072 -0.6209482 
0.36970767 0.92765063 -0.052732527 
-0.55722624 0.83036023 -0.0009865655 
0.23904882 -0.18838017 -0.95255905 
0.5921608 0.4282012 -0.6826342 
0.82735837 -0.24995755 -0.5029906 
0.8328808 0.068245344 -0.5492288 
0.9245278 -0.37354246 0.07559393 
0.90088224 0.35384846 -0.25140128 
0.84672296 0.08084392 0.525856 
0.42858845 -0.3308161 0.8407573 
0.47501478 -0.31624073 0.82118994 
0.8091854 -0.011030857 0.58744997 
-0.09960197 -0.60945 0.7865432 
0.12435582 -0.33693704 0.93327874 
0.06977066 -0.08669051 0.99378914 
-0.22702302 0.18554711 0.9560507 
-0.7523695 -0.25288707 0.60826653 
-0.8855625 -0.033668686 -0.46329877 
-0.5394788 -0.6384529 -0.54894507 
-0.422513 -0.43227977 -0.7966286 
-0.8824516 0.07792857 -0.4639035 
-0.5143578 -0.6940378 -0.50373363 
-0.10885808 0.03147336 -0.99355894 
0.059992697 -0.019168759 -0.9980148 
-0.028239982 -0.22434285 -0.974101 
0.18976195 0.13581823 -0.9723908 
0.49888957 0.6442292 -0.57972246 
0.14478031 0.33597913 -0.93067545 
-0.26988363 0.15698442 -0.9500098 
-0.69338655 0.56085604 -0.4523889 
-0.46241897 0.09933685 -0.8810794 
0.32994583 0.507395 -0.79604405 
0.34829262 0.02549347 -0.93703914 
0.47986814 -0.12178709 -0.86884665 
0.5210756 0.09533773 -0.84816915 
0.47957405 0.59469163 -0.64525235 
0.03374066 0.9495252 -0.3118711 
-0.5660827 0.117216244 -0.8159722 
-0.020177638 -0.01369983 -0.9997026 
0.007837449 0.18259811 -0.9831564 
0.00821754 0.68687177 -0.72673225 
0.042475197 0.5666487 -0.822864 
0.5835963 0.3415115 -0.73673964 
0.4066974 0.6323045 -0.65938485 
0.6571002 0.6343785 -0.40716493 
0.6964539 0.05851324 -0.715212 
0.02167271 0.39801645 -0.91712224 
-0.10475379 0.4930503 -0.86367136 
-0.8736565 0.46060073 -0.15675199 
-0.348557 0.71256447 -0.60890067 
-0.3193298 0.42722365 -0.8458774 
0.095454745 0.025555829 -0.99510574 
0.15465546 -0.41793457 -0.8952164 
-0.4270838 0.13044591 -0.8947532 
0.7159319 -0.17842424 -0.67498624 
0.75273275 -0.45455208 -0.47621003 
0.7800171 -0.5388179 0.3181959 
0.8739408 0.39177075 0.287651 
0.7737438 0.21498613 0.595904 
0.071762644 -0.2622954 0.96231556 
0.16658899 0.006126678 0.9860074 
-0.40369695 0.45774236 0.7921494 
-0.39584875 -0.065472074 0.9159788 
-0.003170665 0.64845395 0.7612474 
-0.5478113 -0.5050213 0.6669755 
-0.73874897 0.434109 -0.5155574 
-0.991405 -0.12295479 -0.04470178 
-0.05253081 -0.61507857 -0.78671396 
0.58646935 -0.57266146 -0.57281107 
0.4089923 -0.91010785 -0.06655067 
0.26588833 -0.8810273 -0.39127272 
0.40898854 -0.91205865 -0.029622575 
0.06074532 -0.95424134 -0.2928028 
0.09983268 -0.34879544 -0.9318665 
-0.3804851 -0.6351251 -0.6721959 
-0.041718896 -0.8598009 -0.5089226 
-0.57416385 -0.09663397 -0.8130178 
0.39079276 -0.21327768 -0.89542943 