# OOMMF: rectangular mesh v1.0
# Segment count: 1
# Begin: Segment
# Begin: Header
# Desc: Time (s) :  4.930000000000006e-07
# Title: m
# meshtype: rectangular
# meshunit: m
# xbase: 2e-09
# ybase: 2e-09
# zbase: 5e-10
# xstepsize: 4e-09
# ystepsize: 4e-09
# zstepsize: 1e-09
# xmin: 0
# ymin: 0
# zmin: 0
# xmax: 1.024e-06
# ymax: 1.024e-06
# zmax: 1e-09
# xnodes: 256
# ynodes: 256
# znodes: 1
# ValueRangeMinMag: 1e-08
# ValueRangeMaxMag: 1
# valueunit: 
# valuemultiplier: 1
# End: Header
# Begin: Data Text
-0.6000949 -0.12306382 -0.79040587 
-0.9781565 0.15037966 -0.1435125 
-0.8682465 -0.114770226 -0.48267582 
-0.12403817 0.5607931 -0.81861216 
0.1367715 -0.81139225 -0.5682748 
-0.1688801 -0.8065238 -0.5665676 
-0.27140126 -0.9068377 -0.32246968 
0.1836279 -0.9624849 0.19975924 
0.2803846 -0.719948 0.6348696 
-0.37301755 0.13757397 0.9175682 
-0.7444332 0.5127406 0.4276872 
-0.29272255 0.10439183 0.9504819 
0.21061715 -0.9717914 0.10612295 
0.044210345 -0.94174033 0.33342278 
-0.7136714 -0.20056958 0.6711521 
-0.6509637 -0.36484388 0.665684 
-0.9669003 -0.18703131 -0.17356053 
-0.8893596 0.34654504 -0.2982385 
-0.82961446 -0.038983747 -0.5569741 
-0.96288407 0.23202989 -0.1379004 
-0.8583586 -0.47789398 -0.18664944 
-0.6000064 -0.5673354 -0.5640238 
-0.0150621105 -0.69565445 -0.71821874 
-0.7319432 -0.28515702 -0.6188253 
-0.9548705 0.009211411 0.2968796 
-0.957757 -0.2305539 -0.1718906 
-0.8316969 -0.51310384 -0.21214308 
-0.08195307 -0.8071311 -0.5846565 
0.44712126 -0.88892055 0.0995132 
-0.346512 -0.91653943 -0.19971207 
-0.66147494 -0.48085096 -0.5755287 
-0.4544672 -0.8632278 0.21976694 
-0.5602707 -0.7779059 -0.28453338 
-0.43518636 -0.7395884 -0.51344126 
-0.34838766 -0.43052903 -0.83262885 
-0.34104958 -0.7414784 -0.5778366 
0.34864655 0.07590052 -0.93417597 
0.6345344 -0.596719 -0.49121547 
0.6656456 -0.062132053 -0.7436771 
0.6879259 -0.3255721 -0.64866084 
0.23451117 -0.37345567 -0.89751625 
0.6456711 -0.5191128 -0.5600275 
0.34613863 -0.7192053 -0.6024382 
0.3873772 -0.8254553 -0.41056377 
-0.33954442 -0.9153551 -0.2164136 
0.019245826 -0.8073624 -0.58974195 
0.63749707 -0.60690594 -0.47461855 
0.8423456 -0.53865176 0.017557323 
0.14669944 0.11158085 0.98286784 
-0.2584358 0.31690753 0.91256815 
0.1520028 -0.5350067 0.8310615 
0.07180836 0.017339373 0.9972677 
0.936567 -0.21479407 -0.27695835 
0.48240095 -0.837584 0.25640282 
-0.055253275 -0.9899437 0.13022561 
-0.7424313 -0.59568495 -0.3065212 
-0.13546224 -0.2764435 -0.9514353 
0.12269146 -0.28559572 -0.950464 
0.39615682 0.06558844 -0.9158374 
-0.75048923 -0.29227403 -0.59274113 
0.19165865 0.0077688806 -0.9814309 
0.23422201 -0.20977254 -0.94928163 
-0.18776877 -0.65623957 -0.73081636 
-0.005635047 -0.62298334 -0.7822149 
0.52903134 -0.15002419 -0.83523566 
0.3855967 0.23593593 -0.89199185 
0.46613938 -0.7685794 -0.43817785 
0.41445008 -0.81429106 -0.40640023 
0.6385198 -0.76584345 0.076002516 
0.13405433 -0.9612305 0.24096759 
-0.18809533 -0.74008095 -0.6456782 
-0.24510756 -0.9458205 0.21294574 
-0.6586829 -0.7468746 -0.09118852 
-0.1682499 -0.6870758 -0.70683724 
0.41735008 -0.73296225 -0.53720146 
-0.2014342 -0.94961166 -0.24012892 
0.10751144 -0.8526993 0.51121956 
-0.3564542 -0.6479387 -0.67313886 
-0.010640304 -0.8597324 -0.5106341 
0.262995 -0.058530938 -0.9630202 
-0.13879775 -0.7667488 -0.62676287 
0.42026487 -0.69352233 0.5851532 
0.46229744 -0.83975387 0.28477105 
0.4861675 -0.20025136 0.850612 
0.19647297 -0.48828968 0.85027736 
0.37622842 -0.25369465 0.891118 
-0.023375398 0.40245146 0.91514283 
-0.08990372 0.13611495 0.9866054 
-0.8317433 0.46273452 0.3067243 
-0.3980145 0.49178943 0.774421 
-0.7883398 0.10653204 0.6059467 
-0.6113967 -0.63952893 -0.466044 
-0.5465754 -0.5840268 -0.60014 
-0.06413163 -0.9678746 -0.24311712 
0.5552705 -0.4549542 -0.69619787 
-0.93604463 -0.10698404 -0.33522373 
0.36445725 -0.6796671 -0.6365717 
-0.07441667 -0.08815752 -0.99332297 
0.18030497 0.02730328 -0.98323184 
0.4202405 -0.17227219 -0.8909098 
0.055496678 -0.019764077 -0.99826324 
0.94164413 -0.33493003 0.033588264 
0.205629 -0.87404597 -0.44018215 
0.52231216 0.23321362 -0.8202448 
0.6478387 -0.72991055 -0.21802668 
-0.0280867 -0.7964641 -0.60403335 
-0.037814487 -0.2527346 -0.96679646 
0.66251075 -0.6611222 -0.35213214 
0.4532166 -0.5017348 0.7367883 
-0.37575397 -0.38330457 0.8437337 
-0.4682285 -0.8221316 0.3238236 
-0.65883 -0.71066254 -0.24678281 
-0.042519428 -0.66340345 -0.7470529 
0.89791304 -0.4366878 0.05528168 
0.12807101 -0.19970107 -0.97145116 
0.8864611 -0.21488187 -0.40989342 
0.9846023 -0.13726982 0.10823786 
0.53634065 -0.626185 0.5658897 
-0.1867554 -0.098062836 0.97749996 
-0.69868624 0.4078943 0.58775824 
-0.87083876 -0.4463415 0.20595945 
-0.43845463 -0.8782951 0.19067091 
-0.65993315 -0.5756382 0.4828343 
0.46280253 -0.80878395 -0.36288077 
-0.30482772 -0.68921405 -0.6573159 
-0.591151 -0.6858852 -0.42438442 
-0.61661434 -0.35964593 -0.70031536 
0.11301147 -0.3858249 -0.91562414 
0.07398457 -0.19374673 -0.97825795 
0.63262796 0.2334581 -0.7384303 
0.6903913 -0.24037865 -0.6823328 
0.8697506 0.3715295 -0.32480723 
0.97623914 -0.14268032 -0.16309361 
0.79576516 0.00046387417 -0.6056051 
-0.21788561 0.82341903 -0.5239341 
0.6943469 -0.4532022 -0.5590082 
0.6545261 0.22836575 -0.7207251 
0.98767895 0.1435269 -0.062372424 
-0.061229438 -0.50700146 -0.8597678 
0.35941043 -0.84158033 -0.40319583 
0.4302532 -0.58809835 -0.6848523 
-0.16267173 -0.6650202 -0.72889376 
0.41461864 -0.81235313 -0.41009018 
0.052281946 -0.70875984 -0.70350987 
0.25546846 -0.5181926 -0.8162183 
0.12009146 -0.35802132 -0.92595834 
-0.23184715 -0.2803745 -0.9314704 
0.1577384 -0.28089207 -0.9466881 
0.09089758 -0.4703079 -0.8778087 
0.19223587 -0.59209573 -0.7826034 
0.97304964 0.16312023 -0.16299184 
0.9243275 0.37015074 -0.09277411 
0.9437482 -0.18434389 0.27451202 
0.6173692 -0.64331204 0.45277467 
0.6607894 -0.054524817 0.7485884 
0.032741927 0.20832434 0.9775117 
-0.12724537 0.70355576 0.6991552 
-0.37463492 0.6118639 0.6966142 
-0.51098686 0.85378397 0.09972662 
-0.9991144 0.03706451 0.019917082 
-0.8877573 0.4595293 0.02682884 
-0.8129322 0.56334174 -0.14760509 
-0.46732783 0.22608984 -0.85468596 
-0.52050006 -0.05362263 -0.8521762 
-0.40201393 -0.79125607 -0.46075886 
-0.5823601 -0.6772419 -0.44966662 
0.06517459 -0.5997132 -0.79755646 
0.072241485 -0.2627361 -0.9621595 
-0.43375447 -0.39891914 -0.8079113 
0.062307384 -0.69323283 -0.7180154 
0.2501719 -0.6514558 -0.71625376 
0.031964228 -0.38654846 -0.92171514 
0.5531419 0.2374448 -0.7985325 
0.9926239 -0.1210335 -0.0069737406 
0.66364074 0.65311044 -0.36472976 
0.7818712 0.30142817 -0.54572767 
0.84697783 0.5313482 -0.017253913 
-0.2068923 0.4893591 0.8471855 
-0.6746533 0.64139223 0.3653205 
-0.29300538 0.8125457 -0.50390214 
-0.11182123 0.9925332 -0.04872242 
-0.71471417 0.6826628 -0.15216827 
-0.43978947 0.70714974 -0.55364656 
-0.3428886 0.6615803 -0.6668875 
0.45126042 0.17045318 -0.87596226 
0.02861509 -0.2819239 -0.95901 
0.23898348 -0.27779818 -0.93043816 
-0.4169835 -0.56893826 -0.7088258 
-0.2888112 -0.51818985 -0.8050264 
-0.055145398 -0.8388247 -0.5416014 
-0.6389543 -0.5229671 -0.56413025 
-0.84935004 -0.32994917 -0.41199285 
-0.21509543 0.41414565 -0.88443047 
0.10258223 0.48067975 -0.87087536 
-0.028346898 -0.28796056 -0.95722264 
-0.05987769 0.7553532 -0.6525767 
-0.25296524 0.94788104 -0.19372702 
0.23289244 0.9567718 -0.17420907 
-0.31693238 0.5567382 -0.7678518 
0.09864106 0.38496462 -0.917645 
-0.83616656 0.25733384 -0.48436043 
-0.99205333 -0.0060892245 -0.12567106 
-0.85897946 0.4744126 0.19258007 
-0.20732859 -0.6295688 -0.748771 
-0.44155365 -0.009109286 -0.89718866 
-0.62503594 -0.72263503 -0.295176 
-0.025368981 0.21436828 -0.97642344 
0.7828906 -0.2704047 -0.5603246 
0.80752385 -0.39771286 -0.43558002 
0.74412686 0.15782565 -0.6491274 
0.7332975 -0.36173525 -0.57569295 
0.36638337 -0.79552794 -0.48259574 
0.7394085 -0.67035615 -0.062432434 
0.26893374 -0.82596046 0.4954432 
-0.3407015 -0.8202046 0.459551 
0.2309753 -0.9527424 -0.19731268 
0.66170305 -0.47780386 -0.5777998 
0.45558605 -0.82184 -0.3420828 
0.4297866 -0.81197923 -0.39493448 
0.05507792 -0.99681723 -0.057636097 
0.12757272 -0.950995 0.28166234 
-0.06550684 -0.8694008 0.48974612 
0.5165784 -0.85623026 0.004091748 
0.62294984 -0.725356 0.29290324 
-0.016233834 -0.99699855 -0.075699285 
0.37142465 -0.80129343 0.4690126 
0.13263308 -0.96770126 -0.21438931 
0.96776265 -0.25172722 0.008297712 
0.87959033 0.11581574 -0.4614192 
0.8337964 -0.2994102 0.4638289 
0.032787733 -0.6200324 0.7838908 
0.29375178 -0.9440644 0.1498411 
0.62694657 -0.76682615 -0.1375349 
0.62211514 -0.72869414 -0.28631747 
0.2078623 -0.6899256 -0.69339454 
-0.4180808 -0.03703755 -0.9076545 
-0.7480412 -0.6332801 -0.19847113 
-0.22137633 -0.797653 -0.56101894 
0.3206306 -0.537641 -0.7798322 
0.26909608 -0.50036895 -0.8229328 
-0.1678636 -0.79707867 -0.58007544 
0.6581866 -0.14750275 -0.7382638 
0.96761894 -0.22093453 -0.12207207 
0.40261182 -0.7196015 0.56575394 
0.74178857 -0.49502847 0.45243412 
0.9844996 0.07645639 -0.1578448 
0.12656598 -0.9138383 0.3858504 
0.22544782 -0.87986165 -0.41835 
0.1741189 -0.87490606 -0.4519093 
0.591747 -0.7141491 -0.373934 
0.6379642 -0.7404577 -0.21148087 
-0.14875327 -0.9848513 0.08910923 
-0.08184929 -0.9609524 0.26433173 
-0.2701217 -0.60820216 0.7464077 
-0.24056658 -0.586785 0.7731825 
0.84044075 -0.30005455 0.45125023 
-0.9896019 -0.08463932 -0.116293795 
-0.93784034 -0.27898675 -0.20645072 
-0.14185831 0.18432115 -0.97257495 
-0.4696478 -0.12866697 -0.8734277 
0.01579011 0.6741834 -0.7383952 
0.08762869 -0.57937133 -0.8103396 
0.6702385 -0.6130471 -0.41827467 
0.4932665 -0.86041975 -0.12793043 
0.44037262 -0.4925219 0.7506625 
-0.110918514 -0.5944459 0.7964491 
-0.6832835 -0.16120918 0.71213436 
-0.081670456 -0.297928 0.95108825 
-0.04785423 -0.78737813 0.6146102 
-0.087559335 -0.43543202 0.8959533 
-0.37075937 0.14957955 0.9166043 
-0.626831 -0.33646074 0.70276386 
-0.9072986 -0.4204431 0.0060841325 
-0.86249644 -0.4292793 -0.26799104 
-0.6563496 -0.5199426 -0.5466854 
-0.9440613 0.31188187 -0.10713623 
-0.9822912 -0.16272436 0.09286913 
-0.67642236 -0.6014 -0.42517173 
-0.4379003 -0.7434435 -0.5055049 
-0.63388073 -0.40513274 -0.6588344 
-0.73657095 -0.56640226 -0.36966437 
-0.7259924 -0.47011337 -0.5019249 
-0.2212681 -0.22948676 -0.9478271 
-0.017289834 -0.6694418 -0.7426633 
0.08254939 -0.7714848 -0.6308699 
0.61548615 -0.7630463 -0.19732484 
0.024742404 -0.68770266 -0.72557074 
-0.36060843 -0.86206424 -0.3560997 
-0.2097267 -0.4428097 -0.8717421 
-0.49791282 -0.23744988 -0.8340866 
-0.17044383 -0.29656896 -0.93967855 
0.14281826 -0.23980834 -0.96025777 
0.039687313 0.03469802 -0.99860954 
0.058835704 -0.10793614 -0.9924153 
0.3951738 -0.21829113 -0.892293 
-0.02101089 -0.4775699 -0.87834245 
0.5124403 -0.21638714 -0.83101237 
0.64900166 -0.62801504 -0.42941123 
-0.27450144 -0.7443419 -0.6087726 
0.42880705 -0.44860548 -0.78414136 
0.36477968 -0.8596575 -0.3576657 
0.15231167 -0.87340343 -0.46256632 
0.20699589 -0.44728193 -0.8701101 
0.45017585 -0.80468524 -0.38707024 
-0.14650485 -0.9867355 0.06992387 
0.50431013 -0.7851919 0.35936776 
0.2655949 -0.8468847 0.46070153 
0.28960097 -0.06656295 0.95483017 
-0.3401827 -0.49033836 0.802399 
-0.1298834 -0.9001173 0.41583544 
-0.25251994 -0.8653625 -0.43287593 
-0.72875464 -0.07240048 -0.68093675 
-0.73408276 -0.3053571 -0.6065308 
0.104786254 -0.0061134645 -0.994476 
0.115467556 0.26561105 -0.9571405 
-0.12718429 -0.19892688 -0.9717264 
0.09703708 -0.6440083 -0.7588394 
0.1468465 -0.41948488 -0.89580613 
0.012455529 -0.5106044 -0.85972553 
0.42233667 -0.3245219 -0.8463553 
0.4804117 -0.050139032 -0.87560874 
-0.26461202 0.12729114 -0.95591706 
-0.2703348 -0.46636185 -0.8422742 
0.69916743 -0.67649585 -0.2313402 
0.4332622 -0.7149962 -0.54869324 
-0.12937205 -0.7396779 -0.66040856 
0.48810175 -0.77756774 -0.39641535 
-0.119466096 -0.9033025 -0.4120346 
-0.2154563 -0.7065242 -0.6740936 
-0.14828068 -0.988461 -0.030947553 
0.48979956 -0.85117877 -0.18865618 
0.11626579 -0.92424536 -0.36366594 
-0.52525 -0.8450774 0.09978326 
-0.4841074 -0.48555705 -0.72792476 
0.20458375 -0.95458466 -0.21659565 
-0.41714048 0.04180727 -0.90788 
0.29554817 -0.371239 -0.880246 
0.61770636 -0.5533011 -0.55883515 
0.7126049 -0.60862964 -0.34894744 
0.43067503 -0.8815567 0.19333129 
0.64251554 -0.7191331 0.2646156 
0.13697258 -0.6188033 0.77351224 
-0.3242428 0.8201141 0.47146544 
-0.44007647 0.22109877 0.870315 
-0.25688946 0.26155785 0.93037385 
-0.10824585 0.9177022 0.3822375 
-0.63677204 0.5941609 0.49142057 
-0.7030996 -0.68012977 0.20754385 
-0.47596768 -0.32650146 -0.8166098 
-0.2702188 0.30432087 -0.9134389 
0.7816572 0.00884548 -0.62364554 
-0.3030575 0.31644195 -0.8988997 
-0.06992127 0.16941395 -0.9830616 
0.500742 -0.03363911 -0.86494267 
0.7231506 -0.3129001 -0.615749 
0.5055137 0.120943405 -0.8543 
0.59983283 0.5091309 -0.6172409 
0.7289611 0.473098 -0.49476662 
0.5669295 0.60626173 -0.55770755 
0.17045906 0.76972115 -0.6152018 
0.83946234 0.02984296 -0.54259795 
0.71011466 -0.100319825 -0.6969025 
0.8540413 -0.29296052 -0.4298694 
0.3472549 -0.79235977 -0.50157756 
0.94711137 -0.0600233 -0.31524172 
0.28401348 -0.69275665 0.6628911 
0.11090632 -0.9929987 -0.040663585 
0.063054204 -0.51783866 -0.8531514 
0.3364814 -0.36444107 -0.86831045 
0.47279102 -0.87024254 -0.13837112 
0.67750806 0.037480194 -0.73455983 
0.99152696 -0.016864795 -0.1288023 
0.96614844 -0.074343316 0.24704316 
-0.27054855 -0.31118396 0.9110259 
-0.82528675 -0.5367746 0.17542781 
-0.33812997 -0.94067526 0.028254893 
-0.5227321 -0.80725855 0.27401584 
-0.6561186 -0.70371723 -0.27256298 
-0.65602434 -0.42121682 -0.6262655 
0.04557426 -0.23932298 -0.9698699 
-0.15731631 -0.73587185 -0.6585926 
0.14403099 -0.52635676 -0.837976 
-0.47164974 0.383839 -0.7938603 
-0.05891912 -0.39482683 -0.9168645 
0.599673 -0.019821895 -0.7999996 
0.35245505 0.13921139 -0.9254165 
0.5886286 0.33528143 -0.7355969 
0.25810212 0.003958066 -0.9661096 
0.31727242 0.7615284 -0.56516623 
0.56856954 0.15388468 -0.808114 
0.5666987 0.6839672 -0.45939255 
0.3405179 0.39697832 -0.8523238 
0.19861296 0.39159206 -0.898448 
0.7555698 0.16761005 -0.6332624 
0.46238485 0.5747316 -0.67519176 
0.79214305 0.106922396 -0.60089684 
0.44505075 0.058877997 -0.8935677 
0.055351324 0.47361958 -0.87898844 
-0.16374318 -0.5952967 -0.78664476 
0.25368252 -0.030851774 -0.9667954 
0.43297932 -0.13388564 -0.89140546 
0.55170655 -0.605002 -0.57410145 
0.49165484 0.039321087 -0.86990196 
-0.036503073 -0.54323786 -0.838785 
-0.41930163 -0.20382522 -0.88467026 
0.16625439 0.61342317 -0.7720567 
0.94228655 -0.035908192 -0.33287653 
0.660597 0.7507407 0.00027854767 
0.699405 -0.4625129 -0.5448987 
0.97044075 -0.05855082 -0.23412947 
0.6415549 -0.25696364 0.72275656 
0.46742445 -0.011679982 0.88395596 
-0.34385312 0.61865705 0.7064196 
-0.20395106 0.8623906 0.46334276 
-0.44594914 0.89486736 0.018490084 
-0.7636103 0.46804556 0.44478393 
-0.7209615 0.6873149 -0.0883898 
-0.6096943 0.66615033 -0.42955408 
-0.69605625 -0.14180976 -0.7038436 
-0.6276677 0.4124407 -0.6602469 
-0.51693887 -0.82867193 -0.21465567 
-0.18799995 -0.7702839 -0.6093593 
-0.35922346 -0.38322455 -0.85093915 
-0.1526744 0.24535002 -0.9573369 
-0.31956547 -0.3674703 -0.87340915 
0.14392473 -0.31643695 -0.9376318 
-0.10972212 -0.3787079 -0.9189894 
0.4119268 -0.47449932 -0.77792466 
0.6236425 0.05834104 -0.77952963 
0.68183523 0.6197792 -0.38855425 
0.51073223 0.8554694 -0.08558533 
0.598147 0.7899848 0.13470052 
0.5490364 0.5643362 0.6165094 
0.19345695 0.92436063 0.32883435 
-0.67520356 0.4893475 0.5519414 
-0.38673365 0.8655696 0.3181611 
-0.1977591 0.72385156 0.661007 
-0.7190003 0.3513146 0.5996805 
-0.76011336 0.64824533 -0.04478578 
-0.60125655 0.73023564 -0.32441714 
-0.472598 0.473653 -0.7431716 
-0.59552246 -0.035516284 -0.80255324 
-0.49546748 -0.18598442 -0.848482 
0.025687143 -0.12126467 -0.9922879 
-0.08514116 -0.30815908 -0.9475173 
-0.24076404 0.0092608 -0.97053957 
-0.11828047 -0.011448004 -0.99291426 
0.06786311 -0.58223945 -0.81018007 
0.04191737 0.098609045 -0.994243 
-0.16932274 0.77591276 -0.60769176 
-0.28656045 0.80697733 -0.5164018 
0.09279919 0.53785986 -0.83791125 
0.7259838 0.6568257 -0.20378338 
-0.35789725 0.91397905 0.19118544 
-0.92476225 0.36056682 -0.121681295 
-0.5854067 0.6681615 -0.45919418 
-0.33206367 0.35961556 -0.87201524 
-0.31608608 -0.5909877 -0.7421747 
-0.91942054 0.05109177 -0.38994282 
-0.48778918 -0.2452383 -0.8378067 
-0.35603738 0.37786117 -0.8546686 
-0.35552028 0.1781366 -0.91753626 
0.37219787 0.04098466 -0.9272481 
0.6666598 -0.5513225 -0.5016058 
0.32965606 -0.77214897 -0.54324293 
0.7470556 -0.5736028 -0.33598778 
0.73057103 -0.14423753 -0.66742915 
0.9043806 -0.24428335 -0.34988755 
0.29445156 -0.9551817 0.0304323 
-0.080903105 -0.9015699 -0.42500162 
-0.36978692 -0.7860787 -0.49531594 
0.40131816 -0.7886338 -0.46583304 
0.7984731 -0.56205505 -0.21571918 
0.5965419 -0.71909165 -0.35643375 
0.36191028 -0.69070256 -0.62605983 
-0.06947899 -0.6676236 -0.74125004 
0.26420078 -0.9476953 -0.17908554 
-0.19659582 -0.7827265 -0.59049916 
-0.14865637 -0.9853221 0.08391481 
0.1287518 -0.9907122 -0.043731503 
0.035050612 -0.9581136 -0.28423527 
-0.31020752 -0.5176898 -0.79735106 
0.25814554 -0.8881816 -0.38012412 
0.7000185 -0.6153384 -0.3623988 
0.4319998 -0.7155455 -0.54897267 
0.84958464 -0.507291 -0.14443585 
0.45247412 -0.82182276 0.3462292 
0.5508934 -0.8241588 0.13144948 
0.5453465 -0.8157703 0.19265558 
-0.07506745 -0.99347305 0.085884586 
-0.3162847 -0.17242289 -0.9328636 
-0.2834035 0.6730487 -0.68314564 
0.13576192 0.094101265 -0.9862625 
-0.32212007 -0.011384162 -0.94663036 
-0.40761006 -0.29864874 -0.8629385 
0.21362473 -0.4145977 -0.88457525 
0.37310466 -0.67312455 -0.63851106 
0.32112786 0.30086166 -0.8979751 
0.56698865 -0.79569536 -0.21305594 
0.4619316 -0.8852921 -0.053638607 
0.527583 -0.8315849 -0.17355964 
0.9155887 -0.06326815 -0.39710784 
0.64747465 -0.75130695 0.12772863 
0.54489213 -0.744183 -0.38637316 
-0.34200263 -0.84192115 -0.4173765 
0.6429175 -0.7554219 -0.12647113 
0.11430955 -0.801663 0.58674514 
0.29508692 -0.9251002 0.23898382 
0.24029444 -0.94299966 -0.23023978 
0.5897588 -0.80017245 0.10912713 
0.32640952 -0.4893064 0.80872494 
-0.54398096 0.23374641 0.80588305 
-0.9624355 -0.07669908 0.26045227 
-0.8861151 -0.19897045 -0.41858193 
-0.34727198 0.58851445 -0.73010474 
-0.039394878 -0.01666998 -0.99908465 
0.26421583 -0.20927888 -0.94148415 
0.64232385 -0.13203996 -0.7549739 
0.47869414 -0.8227158 -0.30657884 
0.8656457 -0.4578983 0.202452 
0.11922726 -0.96902287 0.21628621 
-0.0773397 -0.9681317 0.23820089 
-0.8006889 -0.4815439 0.35638857 
-0.45107824 -0.52656096 0.72059846 
0.15488298 -0.6671458 0.72864795 
-0.03013818 -0.12601474 0.99157053 
-0.35620773 -0.19229273 0.9144068 
-0.8913368 -0.4507494 -0.04841406 
-0.8886351 0.14466889 -0.43519968 
-0.833941 -0.5399215 -0.114137545 
-0.8499589 -0.47539315 0.22709322 
-0.72265834 -0.18804568 0.6651345 
-0.94515604 -0.08446874 0.31550762 
-0.5677475 -0.56008637 -0.6032961 
-0.8428117 -0.5208427 0.13561508 
-0.7287674 -0.0013222017 -0.68476015 
-0.91453534 -0.03991597 -0.40253207 
-0.6898788 0.13540134 -0.71114963 
0.039720763 0.46985722 -0.88184834 
-0.2788595 -0.27552846 -0.9199574 
-0.32128647 -0.5549475 -0.7673385 
-0.10728806 -0.35068622 -0.93032706 
-0.59813696 -0.46805027 -0.65050846 
0.10110872 -0.1989542 -0.9747791 
-0.31127232 -0.3398658 -0.88746876 
-0.37188056 0.19672646 -0.9071955 
0.14406955 0.7083072 -0.69104624 
0.17520824 0.79325193 -0.583141 
0.30940437 0.113525845 -0.94412977 
0.50204355 0.17864677 -0.84619004 
0.366898 -0.39383754 -0.8427799 
-0.2639651 -0.6539297 -0.70901227 
0.0762992 -0.14918084 -0.98586184 
0.13302366 -0.30161348 -0.9441049 
-0.18036799 0.09834639 -0.9786703 
-0.26016185 0.04213053 -0.9646455 
0.25742263 -0.11218594 -0.9597645 
0.5584055 0.29434976 -0.7755912 
0.07048333 0.42591628 -0.902013 
0.32900906 -0.87701607 -0.3501372 
0.4603007 -0.8503257 -0.25508764 
0.90845454 -0.40809894 0.090363555 
0.47649187 -0.8729469 0.10449518 
0.14566073 -0.7088416 0.6901642 
-0.48782703 -0.8711015 -0.056629438 
-0.7558788 -0.52299494 -0.3938572 
-0.6289306 -0.6937495 -0.35093886 
-0.34822556 -0.8002191 -0.48825026 
-0.5442163 0.12848002 -0.8290486 
0.10235289 -0.18291754 -0.9777858 
-0.3325341 0.1946143 -0.92279273 
0.3431327 -0.23688261 -0.90892607 
-0.28063208 -0.4976007 -0.82075536 
-0.08149543 -0.43747088 -0.89553213 
-0.016914323 -0.6247251 -0.7806615 
0.14732687 -0.11469665 -0.98241514 
0.32488582 -0.120957464 -0.9379864 
-0.061225727 -0.05240411 -0.9967473 
-0.5535679 -0.6907754 -0.4651795 
-0.022415375 -0.72278726 -0.69070697 
0.40924266 -0.7328939 -0.5434952 
0.13255645 -0.32993573 -0.9346504 
0.053148814 -0.63524616 -0.77047884 
-0.6559136 -0.15487863 -0.7387761 
-0.5496951 -0.25301683 -0.7961268 
0.2741259 -0.8150574 -0.5104278 
0.6360365 -0.59222645 -0.49469724 
-0.41315094 -0.12096368 -0.902593 
-0.47787154 -0.40308255 -0.7804892 
-0.3921977 -0.4868234 -0.7805025 
0.2606598 -0.43237603 -0.863196 
0.14083588 -0.3993154 -0.90593195 
0.613315 0.23048383 -0.7554615 
0.7801619 -0.14218886 -0.6092043 
0.9977044 -0.06757635 0.0044165766 
0.12768523 -0.60175014 0.788412 
0.22561783 -0.97113734 0.07738931 
0.65504384 -0.6591504 0.36937565 
0.3451523 -0.70750207 0.6166935 
-0.2334905 -0.37674427 0.89640725 
-0.19995826 -0.34208614 0.918147 
-0.09837424 -0.05754189 0.99348456 
-0.39814714 0.5081395 0.7637232 
-0.261912 -0.48575905 -0.8339306 
-0.34976545 -0.41991502 -0.8374579 
0.58586067 0.2104762 -0.7826028 
-0.14321953 0.27043507 -0.95202583 
0.21194017 -0.017286336 -0.97712976 
0.4058701 0.54490554 -0.7337217 
0.71622777 0.24483943 -0.65350705 
0.6777225 -0.28583586 -0.6774881 
0.8248356 0.36200202 -0.4342819 
0.16369158 0.9803778 -0.109838046 
0.39972982 0.14149727 -0.9056459 
0.6897888 0.28285635 -0.6664711 
0.30171108 0.29415807 -0.90688556 
0.8785132 -0.06315745 -0.47352475 
0.76188976 0.06420302 -0.6445169 
0.71036834 -0.36182058 -0.60370743 
0.12647626 -0.88984114 -0.4383908 
0.60422975 -0.6302164 -0.48757944 
0.8003649 -0.52489084 -0.28966504 
0.55906886 -0.8276773 0.04891147 
0.53837675 -0.5538671 -0.63512355 
0.6030814 -0.46345675 -0.64923084 
0.24299353 -0.5822391 -0.7758556 
0.9711275 -0.18765628 -0.14729735 
0.85392964 -0.30073106 -0.42469397 
0.5835609 -0.11470356 0.8039278 
-0.03493226 -0.58523077 0.810114 
-0.1268827 -0.5830002 0.8025034 
-0.09885253 -0.99328285 -0.060145564 
-0.09868206 -0.9872453 -0.124934226 
0.122160226 -0.99250865 0.0018528225 
0.0571513 -0.9879095 -0.14411339 
0.047763493 -0.14334701 -0.9885193 
-0.20620239 -0.6493869 -0.73196816 
-0.0294655 -0.55583483 -0.8307704 
-0.3245896 -0.21909823 -0.92012906 
-0.47009575 -0.057074305 -0.88076824 
0.88773096 0.3202751 -0.33069265 
0.60185724 0.4683615 -0.64684266 
0.31493142 0.4641224 -0.82789403 
-0.1675117 0.50855 -0.8445809 
-0.027279852 0.9182828 -0.39498442 
0.03654287 0.6150539 -0.78763777 
0.2738507 0.5070155 -0.81727666 
0.109597 0.8071679 -0.58005905 
0.24687293 0.8512936 -0.4629827 
0.414413 0.76570094 -0.4918983 
0.5426491 0.78220963 -0.30607206 
0.13371797 0.60564584 -0.78441864 
-0.13131748 0.7202111 -0.68121344 
0.26407027 0.2840564 -0.92172605 
0.0502962 0.3857578 -0.92122805 
-0.08911042 0.22955249 -0.9692085 
0.56908417 -0.22319092 -0.79140955 
0.22369526 0.51250184 -0.82903695 
0.26775864 0.5469501 -0.7931905 
0.75250703 -0.18722874 -0.6314101 
0.4596315 0.3881578 -0.79879445 
0.7344776 -0.17948142 -0.65446866 
0.79464746 0.58684623 -0.15539318 
0.9191589 0.37887514 -0.10770563 
0.80031425 0.37521663 -0.46766397 
0.5024271 -0.33680952 -0.79632056 
0.98198014 0.036966123 0.1853338 
0.97970873 0.021347206 0.19928697 
0.4267816 0.674569 0.6023405 
-0.29168633 0.16885374 0.9414922 
-0.44560435 0.57641727 0.6849671 
-0.72023964 0.51069915 0.46951172 
-0.47246575 0.80123866 -0.3671415 
-0.7895281 0.3663669 -0.4923624 
-0.67969054 -0.4094233 -0.6085996 
-0.9597829 -0.1300264 -0.24881725 
-0.7685885 -0.50253445 -0.39589253 
0.09777201 -0.9382171 -0.33194777 
-0.8094117 -0.27261585 -0.5201281 
-0.3683456 0.076144725 -0.92656547 
0.27663213 0.39560202 -0.8757704 
0.392996 -0.36309698 -0.84481645 
0.12805344 -0.39018622 -0.9117878 
0.56760925 0.07132673 -0.8202025 
0.4298472 -0.064960934 -0.90056175 
0.94526446 -0.21222724 -0.24786055 
-0.08915953 0.92377555 0.3724101 
0.6047817 0.607714 0.5147066 
-0.20077991 0.20357499 0.9582508 
-0.35751197 0.72465485 0.58911854 
-0.6593549 0.7149644 0.23254505 
-0.3641732 0.8706526 0.3306689 
-0.4086156 0.4371054 0.8012318 
-0.4697892 -0.13064839 0.8730573 
-0.74508107 0.2032604 0.63524765 
-0.9714202 -0.17948462 0.15533188 
-0.6317602 0.13587554 -0.7631625 
-0.73357594 -0.24107395 -0.63541305 
0.18717085 -0.25744388 -0.94799256 
-0.478173 -0.13862258 -0.8672568 
-0.42492816 -0.31138623 -0.8499852 
-0.39264292 -0.032609243 -0.91911274 
0.18408531 -0.2568721 -0.9487515 
0.028339347 -0.7539948 -0.65626884 
0.108297676 -0.39318034 -0.91306126 
0.15225807 0.20380743 -0.9670988 
-0.10367069 0.6598532 -0.7442084 
0.4256645 0.6601985 -0.6188277 
-0.07486671 0.8648955 -0.4963373 
-0.033094697 0.6791936 -0.73321265 
-0.53409344 0.7401356 -0.40858734 
-0.5817963 0.76969355 -0.26284024 
-0.77761155 -0.05360076 -0.62645614 
-0.26045066 0.5234379 -0.81128186 
-0.12257682 0.002455975 -0.9924561 
0.20040809 -0.19291286 -0.9605318 
0.09856688 -0.10056583 -0.99003595 
-0.8680605 -0.24703078 -0.43063533 
0.38343087 -0.5410498 -0.7484959 
0.49553406 -0.39303687 -0.77457595 
0.6369574 -0.564379 -0.5251302 
0.32231814 -0.1155986 -0.9395467 
0.4899672 -0.05709653 -0.8698691 
0.44869006 -0.8620012 -0.23586264 
-0.06504975 -0.9574715 0.28109965 
0.13063961 -0.9797363 -0.15182236 
0.6363019 -0.7688357 0.06333803 
0.75587195 -0.6528867 0.04895629 
0.9815848 -0.17550834 0.075420976 
0.6206866 -0.46263647 -0.63302106 
0.5692486 -0.09844269 -0.8162507 
0.52415055 -0.7719423 -0.35968244 
0.56497633 -0.75192493 -0.33972138 
0.023277367 -0.91610163 -0.40026993 
0.08817392 -0.80236566 -0.5902836 
-0.026397744 -0.87831897 -0.47734588 
-0.1995436 -0.85169387 0.48456165 
-0.33789653 -0.8475596 -0.4092294 
-0.17089964 -0.9572175 -0.23351236 
-0.4665966 -0.86963296 -0.16132624 
-0.078448415 -0.7988972 -0.59632975 
0.18517922 -0.21176632 -0.9596164 
0.23082948 -0.47411117 -0.8496684 
0.3389436 -0.929769 0.14369039 
-0.76493424 -0.63764596 -0.09101325 
-0.76211566 -0.2903396 -0.5786905 
0.10019013 0.5497402 -0.8293056 
-0.18892398 0.19801307 -0.9618205 
0.0114329 0.17260662 -0.9849245 
-0.49442878 0.27875262 -0.82330877 
0.25464326 0.09467734 -0.9623893 
0.70968944 -0.46590737 -0.5284612 
0.52688026 -0.072294645 -0.84685934 
0.8033702 0.40336856 -0.43805298 
-0.24928875 -0.25714317 -0.93366617 
0.5386977 -0.22007728 -0.813247 
0.273195 -0.4060103 -0.8720781 
-0.20651615 -0.30002218 -0.9313097 
-0.0024301389 -0.6975939 -0.7164893 
0.1495687 -0.8209884 -0.5510057 
0.3281182 -0.8450069 -0.4222583 
0.41705444 -0.5239334 -0.7426705 
0.38713905 -0.85513616 -0.34476882 
0.5213448 -0.83006626 -0.19796422 
0.38961887 -0.5718728 -0.7219133 
0.7636788 -0.63484156 0.11734931 
-0.0880032 -0.97248966 0.2156833 
0.4846542 -0.87457854 -0.0149230715 
-0.52539694 0.8496509 -0.045292713 
-0.78261995 0.5076571 -0.36026436 
-0.07563488 0.08278928 -0.99369276 
-0.19862594 0.27952474 -0.9393688 
0.30716443 0.07914259 -0.94835997 
0.11916157 -0.74845034 -0.65239763 
-0.17729245 -0.64115936 -0.74664724 
-0.03058299 -0.8841668 -0.4661695 
0.05813178 -0.9895556 0.13191088 
0.14049558 -0.8465103 -0.51349914 
0.36926404 -0.9289035 0.027969038 
-0.19014329 -0.5009186 0.8443495 
-0.29210612 -0.5732979 0.7655087 
-0.14674744 -0.76447934 0.62772346 
-0.08198672 -0.8554585 0.51134044 
-0.30304977 -0.5867132 0.75095177 
-0.0699612 -0.96377385 0.25738218 
0.5013128 -0.81005305 0.30413735 
-0.016236229 -0.74233127 0.6698363 
-0.44744918 -0.36578467 0.81608266 
-0.6888672 -0.2743005 0.67098534 
-0.80707055 -0.57412463 -0.1379061 
-0.7079296 -0.7062213 -0.009338482 
-0.8936778 -0.3868047 -0.22742517 
-0.8439445 0.039569516 -0.5349691 
-0.08828858 0.22888574 -0.9694413 
-0.37132797 0.6365761 -0.67593384 
0.19304499 0.20403276 -0.9597418 
-0.39802533 -0.043894913 -0.9163237 
-0.32010588 0.17473139 -0.931129 
-0.23045665 0.21608667 -0.9487868 
0.23440889 0.51620156 -0.8237649 
0.23713051 0.069845214 -0.9689638 
0.25981253 0.66279894 -0.7022785 
0.62421024 0.7322006 -0.27247727 
0.76631874 0.62720007 -0.13919717 
0.612789 0.13378173 -0.7788402 
0.8029762 0.49947125 -0.32520425 
0.36674348 0.08105843 -0.9267841 
-0.2718384 -0.24320543 -0.93110424 
0.27481195 0.11968266 -0.9540202 
0.47568187 0.2288865 -0.8493161 
0.27589086 0.7339333 -0.62066585 
-0.11340211 0.18151882 -0.97682697 
0.4782501 -0.059347253 -0.8762162 
0.89786875 -0.106524654 -0.42718187 
0.40171605 -0.116890356 -0.9082735 
0.65531087 0.0033718215 -0.7553517 
0.3478623 -0.29059756 -0.8913725 
0.43724138 -0.09795619 -0.89399356 
0.55669415 -0.7450129 -0.3674881 
-0.24110417 -0.9610911 -0.13480632 
-0.042661898 -0.4966373 -0.866909 
-0.5871234 -0.19750251 -0.7850344 
-0.0006661812 -0.6418225 -0.76685303 
-0.104834884 -0.3261245 -0.93949586 
0.22416271 -0.6693972 -0.70827866 
0.343269 -0.21463846 -0.9143833 
0.40401253 -0.30896586 -0.860996 
0.40809885 -0.1786734 -0.89528275 
-0.5880065 -0.4884296 -0.6447364 
-0.36451745 -0.12968263 -0.92212224 
-0.35274407 -0.6131502 -0.70683706 
-0.47265756 -0.2008682 -0.8580483 
0.15696806 0.13927178 -0.9777344 
0.16129442 -0.06077627 -0.9850333 
-0.51746136 -0.08914014 -0.85105103 
0.17702821 -0.5098903 -0.8418272 
-0.81143636 -0.3221511 -0.487637 
-0.66520995 -0.29778603 -0.6847038 
-0.41425008 0.2908496 -0.8624404 
-0.36416158 -0.017830497 -0.9311651 
-0.63222814 -0.18253386 -0.75297344 
-0.5068749 -0.81904364 -0.26878497 
-0.39746007 -0.4279372 -0.81172365 
0.08608143 0.11797455 -0.98927855 
-0.62515354 0.38243368 -0.68038785 
-0.38232207 -0.5852587 -0.715054 