# OOMMF: rectangular mesh v1.0
# Segment count: 1
# Begin: Segment
# Begin: Header
# Desc: Time (s) :  4.990000000000006e-07
# Title: m
# meshtype: rectangular
# meshunit: m
# xbase: 2e-09
# ybase: 2e-09
# zbase: 5e-10
# xstepsize: 4e-09
# ystepsize: 4e-09
# zstepsize: 1e-09
# xmin: 0
# ymin: 0
# zmin: 0
# xmax: 1.024e-06
# ymax: 1.024e-06
# zmax: 1e-09
# xnodes: 256
# ynodes: 256
# znodes: 1
# ValueRangeMinMag: 1e-08
# ValueRangeMaxMag: 1
# valueunit: 
# valuemultiplier: 1
# End: Header
# Begin: Data Text
-0.12331075 0.41428366 -0.9017558 
0.15255998 -0.120722614 -0.9808933 
0.25760505 -0.7920679 -0.553415 
0.51253134 -0.4633339 -0.7229339 
0.42739043 -0.70455486 -0.5665157 
0.67701167 -0.7353257 0.030843977 
-0.4672974 -0.003865788 -0.88409173 
-0.14800975 -0.7184646 -0.6796335 
0.28032628 -0.93118167 -0.23306213 
0.055987876 -0.92265064 -0.3815512 
0.17194527 -0.9740613 -0.14710346 
-0.12962735 -0.9901968 0.05202841 
-0.40174654 -0.8348267 0.37638304 
-0.15866238 -0.54082805 -0.8260335 
0.3695899 -0.7796954 -0.5054488 
0.5108672 -0.7353369 -0.4453027 
0.7020966 -0.49131158 -0.5154352 
0.53819776 -0.8255809 0.16958624 
0.72422767 -0.3840837 0.57269025 
-0.33536834 -0.70280635 0.62736857 
-0.3276435 -0.79421866 0.5117289 
-0.18836367 -0.63188714 0.75182295 
-0.73965466 -0.50753385 0.44195077 
-0.8279698 -0.32910088 -0.4540469 
-0.52204156 -0.5588052 -0.6443675 
-0.14671017 -0.72464836 -0.67332083 
0.5858067 -0.07524282 -0.80695045 
0.9649129 -0.25745818 0.051560227 
0.9672883 0.24726631 0.05668079 
0.97683394 -0.038638186 -0.21048193 
0.87676835 0.4070201 0.25614816 
0.5954497 -0.15430063 0.7884359 
-0.8301136 -0.52880836 -0.17684272 
-0.9400491 -0.056754403 -0.33628356 
-0.86837405 0.2825938 -0.4075135 
-0.5980746 0.37829483 -0.7065407 
-0.27466455 0.11819707 -0.95424783 
-0.069608614 -0.6095644 -0.7896746 
0.16866806 -0.5037569 -0.8472191 
0.2237976 -0.2292763 -0.9472841 
-0.21568291 -0.8376971 0.50174147 
0.16166858 -0.90666854 -0.38963506 
-0.793306 -0.4194725 -0.4412581 
-0.6104484 -0.17153831 -0.77325773 
0.97863835 0.19989984 -0.04803295 
0.95400935 -0.29360038 -0.06053888 
0.47782442 -0.7806835 -0.40276188 
-0.1457076 -0.7894703 0.5962432 
0.21789737 -0.8120873 -0.5413272 
0.17478138 -0.9683921 0.17795593 
0.547892 -0.6676319 -0.5040656 
0.8067552 -0.31903425 0.49735627 
0.39542276 -0.91200554 0.10902609 
0.8360692 -0.54557204 -0.057787344 
0.8004632 -0.4343986 0.41298512 
0.25482348 -0.8592233 0.44362184 
0.60312164 -0.71189463 0.3597922 
0.30296636 -0.46338367 -0.8327586 
0.7876211 -0.5610909 -0.25461745 
0.9766237 -0.20465508 -0.06574612 
0.34741625 -0.4555098 0.81964195 
0.1377028 -0.6860446 0.7144095 
-0.056202162 -0.9641643 0.25928473 
-0.335558 -0.9218075 0.1940921 
-0.5227405 -0.36292312 0.77138144 
-0.5993028 -0.35051575 0.71970475 
-0.7223585 -0.6842139 0.10024741 
-0.68484914 -0.16647977 -0.70941263 
-0.41290858 -0.7924166 -0.44897968 
-0.68955255 0.47147545 -0.54975295 
-0.5355958 -0.7640354 -0.3597042 
-0.7044562 -0.38099828 -0.59881705 
-0.3025176 -0.82255745 -0.48154166 
0.10377627 -0.9299141 -0.352832 
-0.8353862 -0.5459351 -0.063911475 
-0.5907352 -0.7117099 -0.38013285 
-0.023172898 -0.94818175 -0.31688225 
-0.38551682 -0.79791087 0.4633736 
-0.25046778 -0.160533 -0.9547225 
-0.7936525 -0.38897023 -0.46777976 
-0.5039924 -0.50834614 -0.69826645 
0.10605531 -0.27517927 -0.9555254 
0.69577605 -0.7159059 -0.058091152 
0.47842336 -0.8437139 -0.24342993 
-0.1938568 -0.8798723 0.4338711 
-0.7779518 -0.62812394 -0.015858416 
-0.47134495 -0.65778 -0.58750284 
0.34375462 -0.93224025 0.112964496 
-0.2404111 -0.9261171 -0.29070547 
0.3421085 -0.9290452 0.14084345 
-0.17011261 -0.71473604 0.6783908 
-0.33000588 -0.94253784 0.052140933 
-0.38365948 -0.7560201 -0.53031963 
-0.010855303 -0.9586244 -0.28446677 
0.48471296 -0.85953784 -0.16201292 
-0.2045001 -0.6076446 0.76742935 
-0.8454899 -0.48981708 -0.21266441 
-0.27570948 -0.95192707 0.13348845 
0.07758101 -0.9716734 0.2232309 
-0.16955636 -0.9185696 -0.35704416 
0.23439457 -0.9637142 -0.12772676 
0.06337032 -0.69353306 0.71763235 
0.26012385 -0.56348044 0.78410804 
-0.08839349 -0.7848492 0.6133501 
-0.37703606 -0.5362822 -0.7551459 
-0.35777953 -0.5907602 0.72318476 
-0.58485776 -0.59897256 -0.54696745 
0.31556487 -0.6700114 -0.6719402 
0.65524334 -0.7104181 -0.25683135 
-0.3221115 -0.5494773 -0.77092093 
-0.020625124 -0.13140838 -0.9911137 
0.04953041 -0.080529585 -0.99552083 
0.8027289 0.23731199 -0.5470918 
0.57618344 0.7550796 -0.31283763 
0.59029186 0.29135823 -0.7527722 
0.08624365 -0.33980563 -0.9365331 
0.5454553 -0.7702649 -0.3304097 
-0.32084695 -0.930845 0.17488538 
-0.40681872 -0.89553034 0.18034406 
0.6284616 -0.7101543 -0.3173594 
0.6920177 -0.6992709 -0.17925356 
0.3926134 -0.9109328 0.12671268 
0.63357353 -0.5669423 0.5264609 
0.43912923 -0.8923351 0.10442066 
0.7531805 -0.65387404 0.07188798 
0.98523605 0.09832481 0.1401508 
0.91828275 -0.005418556 0.3958882 
0.67667925 -0.62520456 0.3888761 
0.6613928 0.10538401 0.7425994 
0.7853494 0.57047814 0.2403766 
0.36613733 0.92923576 0.049643762 
0.9827888 0.12708646 -0.13407212 
0.8902193 -0.43498036 0.13528386 
0.7865196 -0.36960134 0.49475443 
-0.17925435 -0.016509391 0.9836643 
-0.7402323 -0.5918471 0.3190192 
-0.5941162 0.05752729 -0.80231947 
-0.30863863 -0.69831026 -0.6458368 
-0.65259004 -0.5614288 -0.5088457 
-0.48718104 -0.39754754 -0.77756727 
0.075202376 -0.43257707 -0.89845526 
-0.4702657 -0.27699786 -0.83792746 
0.059298404 0.10634008 -0.99256015 
-0.30330047 -0.10545065 -0.9470422 
-0.42373124 -0.0066209105 -0.90576386 
0.2294617 -0.06745346 -0.97097754 
0.7129855 0.7005054 -0.03072452 
0.38371414 0.91459394 0.12759876 
0.20243886 0.8414843 0.500922 
0.7993726 -0.35070798 -0.48786005 
0.9594377 -0.0779733 -0.27092355 
0.88314223 -0.23538023 -0.40577814 
0.7529249 -0.6269126 -0.20021164 
0.8247943 -0.5594962 -0.08172167 
0.88661975 0.009757114 0.4623962 
0.44391528 -0.43713725 0.7822087 
-0.07552897 -0.07254619 0.9945011 
-0.17012288 0.09316606 0.9810088 
-0.37911505 0.52921915 0.75907767 
-0.82746 0.18871868 0.52886224 
-0.4715756 0.5633108 -0.6784522 
-0.38003597 0.044294085 -0.92391056 
-0.8808979 -0.20688808 -0.425695 
-0.75199074 0.15873607 -0.6397755 
-0.022479286 -0.19269156 -0.98100185 
-0.7396235 -0.19820808 -0.64317244 
-0.76534766 0.05482017 -0.6412782 
-0.66643727 0.077571064 -0.7415148 
-0.3128992 -0.29852134 -0.9016536 
0.42496663 -0.14639011 -0.89329356 
0.57250756 -0.50595844 -0.6451675 
0.8870687 0.02598788 -0.4609053 
0.7932832 0.20047538 -0.57490116 
0.54740065 -0.28661934 -0.7862583 
0.89946145 -0.24898848 -0.35912934 
0.46944416 -0.6351118 -0.6133966 
0.57220227 -0.42845258 -0.6992946 
-0.13296328 -0.52719164 -0.8392793 
0.20244917 -0.7499169 -0.6297929 
0.40836695 -0.7353393 -0.54084444 
0.45728096 -0.26479042 -0.84898776 
0.44589418 -0.89507645 0.0040573557 
0.7974571 -0.19570212 -0.5707565 
0.18423645 0.20441015 -0.9613914 
-0.5358506 0.588 -0.6059044 
0.19836654 -0.16687624 -0.9658174 
-0.64854366 0.7555704 -0.0922202 
-0.34842685 0.654444 -0.6710454 
0.16830546 0.81922925 -0.54821235 
-0.053193033 0.3694565 -0.9277244 
0.20043273 0.5205414 -0.82997787 
-0.26969528 0.50204635 -0.82171404 
-0.2936568 -0.28675604 -0.9118864 
-0.50977737 -0.77738756 -0.36850482 
-0.31943777 -0.40302807 -0.85762924 
0.25363123 -0.61271334 -0.748501 
0.9612551 -0.21372072 0.17410383 
0.8683331 0.18534352 0.46004942 
0.878391 -0.45416465 -0.14887534 
0.7437303 -0.6082442 0.27731612 
0.9404422 -0.13122918 -0.313604 
0.5637248 -0.3721556 0.7373701 
0.5821011 -0.4954633 0.64472824 
0.21499825 -0.8144484 0.53893375 
0.24014823 -0.6107857 0.75449973 
0.39802176 -0.8145313 0.42203954 
-0.6175334 -0.40339452 0.6752226 
0.35835153 -0.2637832 0.8955461 
-0.7621363 -0.09097848 0.64099246 
-0.6106578 -0.5052904 -0.60973656 
-0.122673444 -0.29910338 -0.9463025 
-0.076858364 -0.57745874 -0.8127941 
-0.27625346 -0.7503208 -0.6005854 
-0.20811486 -0.3427228 -0.91609466 
0.03395745 -0.73086244 -0.68167967 
0.23297751 -0.8897338 -0.3925498 
0.5643669 -0.82311326 0.06304529 
-0.45337582 -0.8413585 -0.2942217 
-0.2721023 -0.6736142 -0.6871712 
-0.015954034 -0.98057777 0.19548096 
0.9999241 -0.0030140046 0.011941522 
0.74595386 -0.6540553 0.12555702 
0.16085632 -0.9379346 0.3072523 
0.88335985 0.244207 0.40004787 
0.37312666 -0.06604749 0.92542654 
0.24480902 0.17954016 0.95280325 
-0.42501733 0.023395518 0.90488285 
0.265833 -0.6825814 0.6807463 
-0.7274667 -0.652122 0.21337567 
-0.69637746 -0.71142477 -0.0945163 
0.07604693 -0.2230688 -0.97183186 
0.38106424 -0.5307574 -0.757025 
0.39330286 0.25282606 -0.8839637 
-0.03564192 -0.042061683 -0.9984791 
0.90256655 -0.32503444 -0.2823584 
0.44705987 -0.6848725 -0.57540184 
0.7832429 -0.5921651 -0.18939671 
0.4367217 -0.41914886 -0.7959826 
0.29569077 -0.658783 -0.6917889 
0.13168803 -0.38344237 -0.9141282 
0.72218233 -0.6050139 -0.33527726 
0.863299 -0.20837653 -0.45966744 
0.5812035 0.249445 -0.7745836 
0.90112686 0.16758475 0.39985716 
0.7318955 -0.0834425 0.67628866 
0.5226998 0.3714887 0.76732075 
-0.12006185 0.5001323 0.8575855 
-0.13321595 -0.2656617 0.95481807 
-0.091625944 -0.28878266 0.9530002 
0.40307963 -0.57890517 0.70879877 
0.32601547 0.035743173 0.94468856 
0.003278924 -0.76281255 0.6466115 
-0.9765576 -0.12673938 0.17398992 
-0.18776041 -0.689004 0.700014 
-0.9095363 -0.31984615 0.26540965 
-0.6289957 -0.77198964 -0.09163219 
0.03795623 -0.60096204 -0.79837596 
0.2947959 -0.14877534 -0.94390744 
-0.21122625 -0.61360735 -0.76083475 
0.20290273 -0.84961325 -0.48681396 
0.44039354 -0.8976507 -0.016632129 
0.48951137 -0.50537056 -0.7106189 
0.7270556 -0.62494785 -0.28430694 
0.8142272 -0.20867781 -0.5417451 
-0.12549469 -0.8550548 -0.5031228 
-0.035360146 -0.9533669 -0.29973552 
0.1858308 -0.88219553 -0.432664 
0.21174231 -0.18675841 -0.95931566 
0.15115497 -0.76726186 -0.62326676 
0.014232367 -0.97708553 -0.21237116 
0.35815054 -0.19178872 -0.9137535 
0.8424623 -0.1566153 -0.51548916 
0.776367 -0.48665786 -0.40052283 
0.905881 -0.16669773 -0.3893476 
0.7325995 -0.6806333 0.0060352026 
0.3193109 -0.9138344 0.25089285 
-0.056358203 -0.61317456 0.78793454 
-0.1967432 -0.64043343 0.7423861 
-0.024487693 -0.99730384 0.069177754 
-0.1695773 -0.5841409 -0.79374 
0.19804001 -0.78451675 -0.5876339 
0.25880057 -0.52074987 -0.81353664 
0.45322615 0.07580757 -0.88816625 
0.8308522 -0.17442389 -0.52845144 
0.6626008 0.24216026 0.7087444 
0.9042817 0.2731611 0.32811233 
0.28242457 0.32981208 0.900811 
-0.6015306 0.10658959 0.79170674 
-0.9160809 0.3919194 -0.08482399 
-0.94727635 0.31753606 0.042876735 
-0.8196731 0.33182743 -0.46693313 
-0.33875567 0.56006545 -0.75602347 
-0.7743594 0.123109706 -0.62065417 
-0.7976822 -0.08613957 -0.5968945 
-0.6241227 -0.16049479 -0.7646649 
-0.0035220643 -0.3175606 -0.9482314 
0.052350294 0.08492897 -0.9950109 
-0.35661435 -0.64815056 -0.67285 
-0.52947444 -0.24245097 -0.81294185 
0.1087728 0.06647778 -0.9918414 
0.80156505 -0.2370866 -0.548893 
0.6901182 -0.5056285 -0.5177612 
-0.14722729 -0.77714074 -0.61186314 
0.19972192 -0.78943396 -0.58043545 
0.4815402 -0.7698882 -0.4187975 
-0.057742305 -0.8478081 -0.52715015 
-0.1951154 -0.78941613 -0.5820243 
-0.098272055 -0.94138694 -0.32269698 
0.30187196 -0.9533143 -0.0080798855 
-0.14161535 -0.7843391 0.6039516 
0.10592944 -0.8932288 0.43694535 
-0.09683722 -0.9852062 0.14139092 
0.405533 -0.6664309 -0.6256301 
0.73331267 -0.29148248 -0.6142398 
0.51625556 -0.7110137 0.4774304 
0.48673156 -0.84599984 0.21766213 
0.19759922 -0.955439 0.21929635 
0.38904616 -0.9198556 0.050089147 
-0.6973763 -0.5833642 0.4163563 
-0.107663274 -0.9873151 0.116693795 
0.13611844 -0.78082234 0.60974455 
-0.12950261 -0.5097946 0.85049313 
-0.6757286 0.02208519 0.7368196 
-0.70883155 -0.019034078 -0.70512104 
-0.46400103 -0.10874436 -0.8791347 
-0.71073407 0.31239963 -0.6302885 
-0.2866039 -0.9212068 -0.26312795 
-0.3838065 -0.36002544 -0.85033774 
-0.5856383 -0.51130056 -0.62896705 
-0.69743514 -0.62997174 -0.34164304 
-0.8263699 -0.37537694 -0.41976777 
-0.15816365 -0.9055794 0.39358646 
-0.53858614 -0.7115806 -0.45119625 
0.31299567 -0.6575661 -0.6853033 
0.012703778 -0.19008005 -0.9816865 
-0.4436074 -0.11929754 -0.8882459 
-0.34329247 -0.030505914 -0.9387331 
-0.6928899 -0.5636729 -0.44964048 
-0.2001686 -0.54830396 -0.81197 
-0.27493757 -0.9550801 -0.110596396 
-0.12776195 -0.9794058 -0.15633705 
-0.4388545 -0.26056373 -0.85994965 
-0.6384312 -0.4483074 -0.62564063 
-0.49675205 -0.6578657 -0.5660832 
0.27052915 -0.5211624 -0.80944663 
-0.18140525 -0.95286655 -0.24318221 
0.2521279 -0.92856747 -0.27238595 
-0.17568827 -0.9817477 -0.07283641 
-0.52665806 -0.709794 -0.46778607 
-0.065220185 -0.5809749 -0.81130433 
-0.06974072 -0.4005166 -0.9136316 
0.089717284 -0.71910995 -0.6890804 
-0.07342271 -0.74168843 -0.6667139 
-0.111381486 -0.6128726 -0.7822925 
-0.5982728 -0.40493068 -0.69144833 
-0.4876949 -0.8641917 -0.12379994 
0.076552585 -0.99705464 -0.00466578 
0.04702028 -0.9752314 0.21613143 
-0.043093644 -0.93140095 0.36143512 
-0.7367593 -0.6414028 0.21398212 
-0.7800708 -0.35099038 -0.51797235 
-0.6080222 -0.7600669 -0.22936293 
-0.20769317 -0.8897741 -0.40640584 
0.46657065 -0.87223476 -0.14669207 
0.5173778 -0.7497476 -0.41255164 
-0.17185768 -0.42472574 -0.8888605 
0.013603784 -0.86190933 -0.50688 
-0.2865202 -0.5802191 -0.7623989 
0.5239304 -0.61139977 -0.5930324 
0.9685405 -0.0890691 -0.23237072 
0.64954764 -0.0056832395 -0.7602998 
-0.30027366 -0.05332567 -0.95236135 
-0.22139849 -0.81056404 -0.54218894 
-0.33083412 -0.7875727 -0.5198828 
0.060930513 -0.7451153 -0.6641466 
-0.10081179 -0.29180023 -0.9511518 
-0.02227185 -0.9993435 -0.028574405 
-0.31699494 -0.9329402 0.1706955 
-0.0472833 -0.97797924 -0.20327567 
0.67646325 -0.72683877 0.11875582 
0.59419245 -0.71687 -0.36473674 
0.8274661 -0.5419627 -0.14688908 
0.66953075 -0.7383227 -0.08129159 
0.7858241 -0.60722405 0.11730043 
0.9141503 -0.26107773 0.31010914 
0.9671808 0.15154904 0.20394665 
0.7512982 0.44518813 0.48719463 
0.97129595 0.007656305 0.23775119 
0.26031333 -0.8423317 0.47192615 
0.17614563 -0.9818083 0.07088933 
-0.9273738 -0.27704298 0.25144577 
-0.83285105 -0.5236516 0.1792988 
-0.978772 -0.19695774 -0.056683533 
-0.9240127 -0.21946861 -0.31310382 
-0.5532381 -0.1054453 -0.82632256 
-0.4993268 0.13192992 -0.8563103 
-0.61339444 -0.23265354 -0.7547314 
-0.67295253 -0.56576663 -0.47649047 
-0.7174187 0.32520753 -0.6160767 
-0.6937907 0.25454038 -0.67369413 
-0.5765657 -0.12811537 -0.806944 
-0.35027424 0.10180885 -0.93109775 
0.62226033 0.7509456 -0.22107235 
0.8169897 -0.2852339 -0.5011682 
0.9544447 -0.17122567 0.24437097 
0.62881607 -0.75051165 -0.20327975 
0.84128773 -0.278879 0.4630999 
0.9242071 0.023852864 -0.38114607 
0.64989406 -0.75987095 -0.015297833 
0.71361935 -0.69842947 0.054257195 
0.3933902 -0.45083427 0.8012445 
0.27123246 -0.8009697 0.53374213 
-0.7115616 -0.4466338 0.54240066 
-0.92404425 -0.17771582 0.33846626 
-0.6012759 0.48326743 0.63633317 
-0.9651267 0.2606496 -0.024335505 
-0.50982994 0.74168473 -0.43586376 
-0.26223 0.3236325 -0.9091191 
-0.60760075 0.3100285 -0.7312344 
-0.27806762 0.8627951 -0.42221218 
0.17617173 -0.12956876 -0.97579485 
0.10187738 -0.1804624 -0.9782916 
-0.4255489 -0.66348225 -0.61538565 
-0.2059214 -0.0888175 -0.97452956 
-0.5570515 -0.3565056 -0.750065 
0.063034914 -0.27206314 -0.96021265 
0.36817017 -0.35875726 -0.8577552 
0.299896 0.11434777 -0.947094 
0.4429304 0.45679143 -0.77146256 
0.54338986 -0.10499737 -0.8328885 
0.22055128 0.37360477 -0.90098643 
-0.015390958 -0.62351596 -0.7816592 
0.700327 -0.3283018 -0.63384545 
-0.25752708 -0.20842175 -0.9435254 
0.051627386 -0.6401625 -0.7665028 
0.43354985 -0.23286647 -0.8705216 
0.4367667 -0.29507768 -0.84980243 
-0.00038783145 -0.25906405 -0.96586007 
0.49065113 -0.7762791 -0.39579347 
0.72818035 0.4824862 -0.486786 
-0.309798 0.6698375 -0.67479116 
-0.20092449 0.41977623 -0.8851086 
-0.32491872 0.8780918 -0.3512586 
0.23488113 0.38233632 -0.8936721 
-0.055317044 0.59286773 -0.8033978 
0.3105899 0.25740656 -0.91502774 
0.16767585 0.10613323 -0.9801126 
0.00496516 0.2195343 -0.97559214 
-0.55687416 0.033142444 -0.82993543 
-0.1935844 0.17228685 -0.96583766 
0.14376634 -0.2501262 -0.95748013 
0.6900355 -0.4095531 -0.5967557 
0.9372666 -0.10995193 -0.33082032 
0.9284591 -0.35793617 0.09922402 
0.6983005 -0.4698521 0.5400143 
0.60360795 -0.7479063 0.27621287 
0.57058465 -0.80367 0.16896106 
0.57391447 -0.5237927 0.6294946 
0.7264552 -0.14385709 0.6719882 
0.13337877 -0.88266957 0.45067123 
-0.37713227 -0.85350984 0.3595725 
-0.23822841 -0.8491243 0.47141832 
-0.053231206 -0.962164 0.2672209 
-0.18184716 -0.92516637 -0.33316502 
-0.13996355 -0.9417012 -0.30595618 
-0.22548035 -0.37721142 -0.8982595 
0.24780741 -0.08220535 -0.96531546 
0.31620088 0.21605979 -0.9237615 
0.47122556 0.007420396 -0.8819815 
0.26382273 -0.3425306 -0.90170413 
0.18421476 -0.21088345 -0.9599964 
-0.0066980296 -0.515439 -0.85690016 
0.4058622 -0.67068195 -0.6208555 
0.7529228 -0.6344429 -0.17489888 
0.6773094 -0.59394026 0.43415087 
0.6564279 -0.645602 0.3902569 
0.9412525 -0.3322691 0.06033972 
0.9056518 0.38470173 0.17832401 
0.22867872 -0.6835156 0.6931901 
0.20876321 0.8834531 0.4194383 
0.19915076 0.20168178 0.95899093 
0.009429576 0.07582806 0.99707633 
-0.119213976 -0.5246621 0.8429222 
-0.8093719 -0.4920632 0.32061026 
-0.59384114 -0.23702607 -0.7688768 
-0.3444527 -0.33136436 -0.8783793 
0.04017766 -0.7656012 -0.6420597 
0.3979509 -0.07520661 -0.9143189 
0.51884997 -0.118733555 -0.8465797 
0.14614333 0.3543054 -0.92363954 
0.39125106 -0.2320165 -0.89055663 
0.19834779 -0.28540793 -0.93765694 
-0.33908018 -0.53081155 -0.77670056 
-0.1990836 0.18473634 -0.9624127 
0.57803965 -0.48183224 -0.65856504 
0.41980004 -0.15651442 -0.8940197 
0.46059006 -0.693523 -0.55397004 
0.69797766 -0.3499184 -0.6248075 
0.77127504 -0.38573113 -0.50630647 
0.7376916 0.05493104 -0.67289954 
0.928512 -0.20095107 0.31222486 
0.6811289 -0.50108474 0.53383285 
0.6464727 0.12344916 0.75288343 
-0.07752562 0.011427066 0.99692494 
-0.44382063 -0.6304881 0.63679516 
-0.14819701 -0.58949476 0.7940614 
-0.107443154 -0.16064192 0.9811474 
-0.44955456 -0.78250813 0.4307921 
-0.32375208 -0.82158685 0.46923316 
-0.14393844 -0.806197 0.5738714 
-0.34865865 -0.7227604 0.5967031 
-0.7013132 -0.70001924 -0.13465865 
0.18213765 0.081283964 -0.97990763 
0.47857797 -0.32855287 -0.8142581 
0.094822414 -0.44823188 -0.888874 
-0.61930907 -0.35682186 -0.6993815 
0.48544988 -0.17368272 -0.8568389 
0.50146616 -0.070219666 -0.8623231 
0.850004 -0.31639802 -0.4211716 
0.48033395 -0.436831 -0.76056427 
0.1668133 -0.53174824 -0.8303115 
-0.024302525 -0.95876354 -0.2831641 
0.2497316 -0.75140345 -0.6107594 
-0.016530417 -0.17781115 -0.9839258 
0.17308168 -0.6663002 -0.7253184 
-0.51739967 -0.6116493 -0.5984837 
0.20603262 -0.48562747 -0.8495391 
0.37925008 0.13912259 -0.91477555 
0.95130306 -0.22845186 -0.20695952 
0.823298 0.05456589 -0.5649805 
0.17079537 -0.96278334 -0.20946866 
-0.47483087 -0.8469342 0.23924522 
-0.30959228 -0.378166 0.87243515 
0.23196101 -0.8303548 0.50666064 
-0.09788668 -0.9016039 0.42134166 
-0.38073677 -0.71388626 -0.5877125 
0.01935753 -0.7684992 -0.63955796 
0.7233854 -0.36170912 -0.5881157 
0.99890816 0.043771997 -0.016330052 
0.8350143 0.31297767 0.45254397 
0.7894506 -0.22923958 0.56940067 
0.79404664 -0.14235754 0.5909521 
-0.24814916 -0.33615667 0.9085267 
-0.5399057 -0.8417194 -0.0032309436 
-0.64925855 -0.7368022 0.18864231 
-0.9768582 -0.18796398 0.10206731 
-0.8548563 -0.39998546 -0.33050302 
-0.8260628 -0.0036488438 -0.56356627 
-0.07434344 -0.48756623 -0.8699151 
-0.5629863 -0.11491875 -0.8184377 
-0.12350455 -0.33738425 -0.9332302 
-0.071673125 -0.647116 -0.7590151 
-0.41679654 -0.0685406 -0.9064121 
0.4320725 -0.009253871 -0.9017914 
-0.34938672 -0.03888431 -0.93617153 
0.13223666 -0.05078282 -0.98991644 
0.3503135 -0.07273376 -0.9338043 
0.2021515 -0.10315407 -0.9739066 
0.14555418 -0.11289411 -0.9828881 
-0.23656458 -0.4440216 -0.8642233 
-0.15210786 -0.35311857 -0.92313087 
-0.27535403 -0.5125771 -0.81329256 
-0.06766842 -0.9048324 -0.42035612 
0.15635131 -0.7133537 0.68314046 
0.08483211 -0.94072807 -0.32838124 
-0.084858455 -0.9886037 0.12434543 
0.16035292 -0.8150615 0.5567421 
-0.8758906 -0.37839052 -0.29939318 
-0.11765698 -0.22018157 -0.96833724 
0.8716128 -0.21503904 -0.4405106 
0.856721 -0.42504546 -0.29217416 
0.6733429 -0.7301957 0.11586055 
0.35429642 -0.33629867 0.8725694 
-0.05855484 -0.97096187 -0.23195784 
0.15146834 -0.9650201 0.21399447 
-0.1705075 -0.8586199 0.48342416 
0.0023279919 -0.83692396 0.5473142 
-0.40879714 -0.8311618 0.37690184 
-0.462461 -0.43206233 0.77424294 
-0.6199977 0.38370693 -0.684377 
-0.8296426 -0.29795638 0.4721391 
-0.8392353 -0.42467284 0.33961317 
-0.12365674 -0.7592634 -0.6389273 
0.020991627 -0.36274627 -0.93165153 
0.023936609 0.3561933 -0.9341057 
-0.111425325 -0.8831404 -0.4556835 
-0.01909826 -0.6532399 -0.7569101 
-0.19006081 -0.8255456 -0.5313675 
-0.42081934 -0.019594843 -0.9069329 
0.014123493 -0.32223982 -0.9465528 
-0.16245048 -0.44598112 -0.88017654 
-0.41690314 -0.8458693 -0.33271164 
-0.744361 -0.20378192 -0.6359243 
-0.6169625 -0.108836696 -0.7794305 
-0.08762209 -0.38879952 -0.9171464 
-0.24352331 -0.7771941 -0.5802293 
-0.5823016 -0.7448725 -0.32571426 
-0.8160517 -0.010167263 -0.5778895 
-0.62282383 -0.40303952 -0.6705593 
-0.57079625 -0.27431306 -0.7739147 
-0.2718819 -0.93262684 -0.23724993 
-0.26257977 -0.72933537 -0.63176095 
-0.16675542 -0.26534954 -0.9496222 
-0.26400375 -0.24260658 -0.9335118 
-0.23914424 -0.31470346 -0.9185705 
-0.085609995 -0.5367604 -0.8393802 
-0.0018913273 -0.644838 -0.76431704 
-0.58605415 -0.53107756 -0.6119618 
-0.0108363265 -0.7954229 -0.60595787 
-0.05305173 -0.18334764 -0.98161566 
-0.8197767 -0.3283666 -0.46919242 
-0.23823646 -0.9014997 -0.36130553 
-0.13870193 -0.8141446 -0.5638532 
0.31788588 -0.67473316 -0.666096 
0.55784625 -0.8171342 -0.14525579 
-0.7107579 -0.69084126 -0.13252051 
0.10127788 -0.40500563 -0.9086877 
-0.5779075 -0.17019781 -0.7981577 
-0.18670906 -0.6543976 -0.732737 
-0.012776146 -0.5928751 -0.8051931 
-0.04559038 -0.9040099 -0.42507374 
0.5311238 -0.6658234 -0.5240103 
0.80510056 -0.26850456 -0.52888423 
0.6354448 -0.6255124 -0.45270765 
0.27203768 -0.44390434 -0.8537825 
0.5294558 0.51479214 -0.67428905 
0.47209305 0.45832506 -0.75303805 
-0.35618138 -0.28371075 -0.8903051 
0.0767104 -0.6829542 -0.72642213 
-0.22316809 -0.5704687 -0.79041857 
0.5928047 -0.62847346 -0.503591 
0.69179565 -0.1901038 -0.69662 
0.66838115 0.122907296 -0.7335943 
0.6261155 -0.61023897 0.48537385 
0.5967306 -0.7176472 0.3590197 
0.5501186 -0.8132287 -0.18981224 
0.414497 -0.6431296 -0.6438763 
0.63701165 -0.43562815 -0.63595945 
0.6107445 -0.17676215 -0.7718461 
0.6043132 -0.22718345 -0.7636709 
0.84435976 -0.42945513 0.3203511 
0.6623379 -0.65332234 -0.36671317 
0.94071966 0.23211233 0.24732643 
0.6262789 -0.14039363 0.7668536 
0.55931944 -0.764483 0.3205117 
0.38012135 -0.8120588 0.44279596 
0.17011034 -0.8132483 0.55649793 
-0.07755554 -0.7811133 0.61955404 
-0.5154523 -0.25664002 0.8175847 
-0.99627745 0.0062506273 0.085978135 
-0.68880206 -0.046656143 -0.72344667 
-0.63203514 -0.21508168 -0.7444941 
-0.6815197 -0.22587284 -0.6960693 
-0.92695194 -0.2567118 -0.2736041 
-0.19052045 -0.47764945 -0.8576439 
-0.650415 -0.42162463 -0.6318172 
0.2620202 0.14040191 -0.95479465 
-0.03736831 0.26989612 -0.9621641 
0.75057137 0.26393902 -0.60578775 
0.9339612 0.30600178 0.18460606 
0.3798952 0.9213793 -0.08209729 
0.8133185 0.19241732 0.54907984 
0.3791129 -0.18349706 0.9069742 
0.95826435 -0.28529787 -0.018293748 
0.5445788 -0.2476833 0.80130327 
0.5963345 -0.64120585 0.48294958 
0.18033491 -0.95829046 -0.22171785 
0.43389103 -0.88635206 -0.16161297 
0.09192119 -0.78619593 0.6111027 
-0.57550824 -0.581687 0.574831 
-0.35313818 -0.19683515 0.9146308 
-0.5690106 0.24009667 0.78649884 
-0.5322954 0.7769479 0.33617517 
-0.9173737 0.39351553 -0.059758794 
-0.8768551 -0.23663294 -0.41848543 
-0.51752687 0.17386992 -0.83781576 
0.059991773 0.2902056 -0.9550821 
0.35361567 0.8796756 -0.3180043 
0.16330825 0.8808331 -0.44436872 
0.04594752 0.53842723 -0.8414185 
-0.014182281 0.10800714 -0.99404895 
-0.3578037 -0.07842784 -0.9304975 
-0.0836493 -0.37311417 -0.9240068 
0.06516694 0.07384764 -0.9951381 
0.4168835 0.81712484 -0.3981398 
-0.500791 0.5377362 -0.6782686 
0.44255206 0.63841563 -0.62974054 
0.019120218 0.3760721 -0.9263932 
-0.18174513 -0.43985015 -0.87948877 
0.03856133 -0.18116452 -0.9826966 
-0.18478191 -0.2282645 -0.95590323 
0.43663862 0.29968464 -0.8482546 
0.24342509 -0.013973654 -0.96981907 
0.34572685 -0.15663202 -0.92517 
0.8893912 -0.262151 -0.37451324 
0.8325755 0.55212885 -0.0444034 
0.6147031 0.76916444 0.17471729 
-0.09132908 0.9957776 0.009268922 
0.041394945 0.99828756 -0.04133547 
-0.6146457 0.4249287 -0.66456485 
-0.10354182 0.6770719 -0.7285965 
0.017466217 0.1272776 -0.99171335 
0.5933384 -0.03692634 -0.80410576 
-0.2873898 -0.30715296 -0.90722895 
-0.13715316 0.52245206 -0.8415658 
0.3295414 0.31528848 -0.88994145 
0.34170726 -0.052133847 -0.9383594 
0.710002 -0.30556992 -0.63444805 
0.79111415 -0.14551663 -0.5941072 
0.69889563 -0.64578587 0.30741763 
0.57969916 -0.6184163 0.53057534 
0.44436345 -0.8652017 0.23230824 
0.5093725 -0.7479859 0.4255076 
0.2857952 -0.79603076 0.53353184 
0.053759467 -0.8531216 0.518935 
-0.4137698 -0.9061618 0.08755168 
-0.501362 -0.85741 0.11612156 
-0.174111 -0.9818066 -0.075771846 
-0.09677785 -0.921081 0.37715214 
-0.06682515 -0.7482689 -0.66002125 
0.043237805 -0.9821453 -0.18308774 
-0.12325954 -0.3697999 -0.92089915 
0.49786106 -0.009333767 -0.8672066 
0.85127455 0.054110862 -0.5219231 
0.9166374 -0.3466912 -0.19895017 
0.89275014 -0.09282715 -0.44088578 
0.48411876 -0.55826855 -0.67376953 
0.70155925 -0.69238245 -0.16858569 
0.55260414 -0.7573569 -0.3479069 
0.7124834 -0.6585254 -0.24230526 
0.72052044 -0.58716094 0.36890697 
0.8647756 -0.3905154 0.31569126 
0.80933905 -0.5835444 0.06668041 
0.7516382 -0.541736 -0.37624767 
0.5481475 -0.4148116 0.7262684 
0.5617216 0.4497903 0.69437563 
0.071045406 -0.45098412 0.8896999 
-0.66229916 -0.1550052 0.7330302 
-0.9254259 -0.32073402 0.20178334 
-0.75639725 -0.49580356 0.42666385 
-0.7267157 0.2614535 -0.63523734 
-0.8693098 -0.43816668 -0.22871508 
-0.5913366 -0.57788056 -0.5624723 
-0.07062941 -0.14263898 -0.9872515 
-0.18807687 -0.41928735 -0.8881583 
0.35971573 0.03350082 -0.93246037 
0.3152176 -0.6487405 -0.692657 
-0.026523856 -0.35236385 -0.9354872 
-0.17660026 -0.29511374 -0.93899965 
-0.2795098 -0.11568374 -0.9531483 
-0.29816827 0.7815633 -0.54795504 
0.05973282 0.08769205 -0.9943552 
-0.21864305 -0.47340056 -0.8532803 
0.40651745 -0.023581404 -0.9133386 
0.27736264 -0.32788444 -0.90308464 
0.91159815 -0.3737021 -0.17127655 
0.79980904 -0.5794122 0.1568027 
0.7927527 -0.3695357 0.48475423 
0.30798987 -0.83868706 0.44916192 
0.17777967 0.0043488834 0.9840607 
0.40818402 0.05350929 0.91133016 
-0.17659758 -0.5946373 0.78435963 
-0.343464 -0.829092 0.44117925 
-0.68430966 -0.70709956 -0.17813088 
-0.40972227 -0.74021035 0.53311944 
-0.10580968 -0.7878648 0.6066906 
-0.49377677 -0.4313944 0.7550386 
-0.53697145 -0.6684868 -0.51457477 
0.44586873 -0.50350624 -0.74005574 
0.09538703 -0.41605282 -0.9043237 
0.09890062 -0.6206766 -0.7778041 
-0.31822056 -0.010098826 -0.94796294 
-0.0626948 -0.37236273 -0.9259673 
0.4459538 -0.3802071 -0.81028867 
0.90677476 -0.13858631 -0.39818773 
0.30872107 -0.08079378 -0.947715 
0.4086054 0.37497514 -0.832127 
0.6966376 0.66745186 -0.2630669 
-0.1635463 0.09363946 -0.98208165 
0.61993545 -0.38996583 -0.68088675 
0.47544295 -0.15114366 -0.8666658 
-0.12179794 -0.22547998 -0.9666045 
0.35119462 0.3262589 -0.87762034 
0.19284067 -0.5743551 -0.79556817 
0.56430715 -0.10110108 -0.8193511 
-0.1636667 -0.6639583 -0.7296387 
0.62799126 -0.77465075 0.07445269 
0.20536311 -0.624995 0.75313157 
-0.005301644 -0.97046113 0.24119936 
0.3243006 -0.8665907 0.3792754 
0.47504792 -0.7220162 -0.503013 
0.10283634 -0.9944179 -0.023619875 
0.03668658 -0.93916094 -0.3415124 
0.607658 -0.6122269 -0.5058952 
0.9305266 -0.05335362 -0.36231712 
0.97199035 -0.21055727 -0.10440523 
0.99032956 0.010398458 0.13834462 
0.8547177 -0.43434823 0.28425232 
-0.33034152 -0.7160493 0.61493737 
-0.35411844 -0.79339015 0.4951084 
-0.3987631 -0.91141456 0.101545155 
-0.56789434 -0.8132287 0.12710254 
-0.40072584 -0.84408635 0.35628247 
-0.66696006 -0.74067855 -0.080991514 
-0.65044093 -0.7593814 -0.01632444 
-0.49847576 -0.59259224 -0.6327373 
0.12562507 -0.0110624125 -0.9920162 
-0.0766364 0.052860215 -0.9956569 
-0.42171445 0.16181317 -0.89217347 
0.23347804 -0.05801534 -0.9706299 
-0.17128502 -0.5116066 -0.841974 
0.24265158 -0.01986464 -0.96991014 
0.30402687 0.15902683 -0.9392966 
0.67696077 -0.4730415 -0.56387585 
0.6424773 -0.06848608 -0.76323825 
0.1365163 -0.276037 -0.9514026 
0.2677728 -0.58572245 -0.7650013 
-0.1994215 -0.4412928 -0.8749239 
0.42885852 -0.8558257 -0.2892106 
0.19914746 -0.97602737 -0.08781133 
0.22707102 -0.6069121 -0.76164067 
-0.053398628 -0.72246873 -0.6893385 
0.08202741 -0.8514913 -0.5179134 
-0.122398704 -0.6809747 -0.7220056 
0.47643995 0.10976843 -0.8723279 
0.8324879 -0.23649126 -0.50103474 
0.41196534 0.012960609 -0.91110736 
0.71717066 -0.6804147 -0.15067255 
0.4381687 -0.36177945 0.8228753 
-0.43692967 -0.8572988 -0.27227032 
-0.328643 -0.82927334 -0.45199504 
0.32646343 -0.90561706 -0.2707019 
0.07624198 -0.8682974 0.4901498 
0.04020228 -0.8577844 0.5124351 
-0.343635 -0.22211175 0.91245896 
-0.6919825 -0.5077267 0.5131997 
-0.8890949 0.09979917 0.44671085 
-0.85086477 -0.50024563 -0.16057281 
-0.4280056 -0.040541194 -0.9028664 
-0.5128399 0.15051958 -0.8451858 
-0.22480437 0.16374168 -0.9605476 
-0.31932756 -0.49327362 -0.8091422 
-0.44494087 -0.60132694 -0.6636517 
-0.18779072 -0.70569855 -0.6831722 
0.04169144 -0.46647486 -0.8835514 
-0.1860416 -0.5393516 -0.8212725 
-0.9071576 -0.3230921 -0.26958618 