# OOMMF: rectangular mesh v1.0
# Segment count: 1
# Begin: Segment
# Begin: Header
# Desc: Time (s) :  5.170000000000007e-07
# Title: m
# meshtype: rectangular
# meshunit: m
# xbase: 2e-09
# ybase: 2e-09
# zbase: 5e-10
# xstepsize: 4e-09
# ystepsize: 4e-09
# zstepsize: 1e-09
# xmin: 0
# ymin: 0
# zmin: 0
# xmax: 1.024e-06
# ymax: 1.024e-06
# zmax: 1e-09
# xnodes: 256
# ynodes: 256
# znodes: 1
# ValueRangeMinMag: 1e-08
# ValueRangeMaxMag: 1
# valueunit: 
# valuemultiplier: 1
# End: Header
# Begin: Data Text
-0.30526692 -0.28372186 -0.9090182 
-0.56327796 -0.45364308 -0.6905983 
-0.2319015 -0.50742966 -0.82990175 
0.23730291 -0.44001782 -0.8660668 
0.22216429 -0.0016657062 -0.97500783 
0.5859742 0.12364044 -0.8008416 
0.7189586 0.56843746 -0.39997184 
0.35445753 0.6894326 -0.63169825 
-0.36776885 0.37135097 -0.8525519 
-0.2911425 0.42478713 -0.85720015 
0.053173725 -0.02910017 -0.99816126 
-0.5085514 -0.23440053 -0.8285119 
0.6913598 -0.56010085 -0.4564084 
0.25363803 -0.8942893 0.36866572 
-0.21493252 -0.79883224 0.56184614 
-0.58568513 -0.5049537 0.6340306 
-0.98179823 -0.18892722 0.019464815 
-0.7985018 0.080228105 -0.59662247 
-0.15389243 -0.40288305 -0.9022208 
0.56427467 -0.5627329 -0.604091 
-0.05301507 -0.5746776 -0.81666094 
0.02649657 -0.29758126 -0.9543287 
0.9825451 -0.09212251 -0.16161263 
0.3141987 -0.16696426 0.9345598 
-0.017540812 -0.15145044 0.98830926 
0.36435258 -0.5724399 0.7345473 
0.9425698 -0.23550572 0.23685318 
-0.10830605 -0.0039645126 0.9941097 
-0.13868289 -0.49717715 0.85649395 
-0.3095808 -0.65866625 0.68579775 
-0.8217163 -0.4972008 0.2785205 
-0.24408299 -0.8364824 0.49063292 
0.055815667 -0.9176778 0.3933854 
-0.26216513 -0.9649666 -0.010440032 
0.3644592 -0.7896297 0.49361375 
-0.7418502 -0.655052 -0.14340551 
-0.74857706 -0.6126056 -0.2536669 
-0.8295033 -0.33520445 -0.446724 
-0.5482129 -0.7963252 -0.2555952 
-0.9355262 -0.31064352 -0.16820058 
0.114553034 0.43328118 -0.8939491 
0.5225103 -0.8410373 0.14014055 
0.83387345 -0.5504464 0.04079179 
-0.23570423 -0.8043179 0.54545057 
-0.6651376 -0.69919837 -0.26213315 
-0.24665818 -0.7857341 -0.567258 
0.21674575 -0.9019935 -0.37340188 
-0.25633252 -0.71545106 -0.6499411 
-0.30175784 -0.4753953 -0.8264028 
-0.27589294 0.05211608 -0.95977443 
0.07913795 0.42031395 -0.9039212 
-0.20699757 -0.73317724 -0.6477679 
-0.5691107 -0.48951164 -0.66067505 
0.22301485 -0.7920763 -0.56822497 
0.8713903 -0.38107803 -0.30896375 
0.96459115 -0.13886195 -0.22423512 
0.6304497 -0.03270954 0.77554065 
0.5032969 0.28618845 0.81534564 
0.22850618 0.13720272 0.9638259 
-0.5036172 -0.62108207 0.60052204 
-0.6012541 -0.29252398 0.74358815 
-0.86649984 0.124867365 0.4833077 
-0.62969303 0.08897369 0.7717321 
-0.49249858 0.391862 0.77710325 
-0.7529009 0.60633874 -0.2559172 
-0.9840491 0.0014281317 0.1778917 
-0.7095475 -0.6492583 0.27387235 
-0.485385 -0.6519646 -0.58253217 
-0.24024174 -0.7730853 -0.58704597 
-0.041543737 -0.7171144 -0.6957163 
-0.114658855 -0.49241787 -0.8627734 
0.01958065 -0.9633983 -0.26735827 
0.11001914 -0.6522049 -0.7500165 
0.38443792 -0.65603495 -0.6494812 
0.39062476 -0.8626836 -0.32123116 
-0.0771445 -0.8338383 -0.54659164 
0.62519157 -0.18102272 -0.75918794 
0.77912194 0.088560745 -0.6205853 
0.78838557 -0.47853073 0.38659626 
0.94985515 0.0994295 0.296461 
0.26306027 -0.94997716 -0.16835311 
-0.31879723 -0.82631505 0.46429706 
-0.078947365 -0.9277117 -0.364854 
-0.75803137 -0.39634353 -0.51797706 
-0.65323675 -0.74442273 0.13826314 
-0.51556224 -0.8027211 -0.29972395 
-0.45185465 -0.77971 -0.43345094 
0.22661401 -0.49945253 -0.8361778 
0.7878555 -0.5253861 -0.32133046 
0.22732317 -0.60240424 -0.76513624 
0.021219771 -0.3058293 -0.95184994 
0.8503871 -0.29169714 -0.43789792 
0.2972852 -0.4395002 -0.84762084 
0.8581982 0.25479198 -0.44561964 
0.9975541 -0.04148205 -0.05625859 
0.65183574 -0.34128025 0.6772282 
0.028924253 0.44412765 0.8954966 
-0.41827026 0.29415914 0.85937214 
-0.66769105 -0.26035476 0.69742674 
-0.8099033 -0.54850936 -0.20783222 
-0.66981786 -0.54997075 -0.498875 
-0.8566394 -0.080683924 -0.5095675 
-0.23777467 -0.03510202 -0.97068596 
-0.5240964 0.5629165 -0.6390993 
-0.6104538 0.44335696 -0.656339 
-0.81801444 0.47464406 -0.3249083 
-0.76796573 -0.057343163 -0.63791895 
-0.61164975 -0.16570307 -0.77358073 
-0.8257775 -0.08601646 -0.55739814 
-0.45166168 -0.68744856 -0.568697 
0.135859 0.048889834 -0.9895212 
0.035459172 -0.4255193 -0.9042544 
0.23360386 -0.8893757 -0.39298877 
-0.32727972 -0.84353983 0.42582697 
-0.23878495 -0.94549495 0.22140713 
-0.01405846 -0.9992641 -0.035689175 
-0.44350016 -0.63210166 0.6354173 
0.15626386 -0.98430246 -0.082038976 
0.3332849 -0.8364065 -0.43513831 
0.10488378 -0.9866149 -0.12486186 
-0.7214575 -0.5335517 -0.44138613 
-0.36960146 -0.22354864 -0.90189844 
-0.078274705 -0.31621546 -0.94545275 
-0.35570148 -0.47258696 -0.8063114 
-0.14737971 -0.5238723 -0.8389499 
-0.017946932 -0.40520453 -0.9140499 
0.16548178 -0.9395986 -0.29961702 
0.5799527 0.032723024 -0.81399274 
0.65860337 0.35792518 -0.6619148 
0.75290185 0.40111676 -0.5217703 
0.256415 0.8236549 0.5058104 
-0.12122896 0.9041995 -0.40954453 
0.11488254 -0.279044 -0.9533816 
-0.1683918 0.9442495 -0.28290823 
-0.3246169 0.5808501 -0.7464831 
0.07496461 0.17309006 -0.982049 
-0.023934951 0.34213266 -0.9393468 
0.090399995 -0.16233973 -0.9825852 
-0.6111018 -0.05144566 -0.7898785 
-0.01504979 -0.2876695 -0.95761156 
-0.43794587 -0.695551 -0.5695721 
-0.8414385 -0.36741856 0.3962132 
-0.8727347 -0.48620734 -0.044006236 
-0.86837417 -0.22722521 -0.44078916 
-0.13305672 -0.48918262 -0.86197233 
0.6828189 0.025610266 -0.73013866 
0.89628285 -0.43985417 -0.05661706 
0.99589264 -0.080461115 0.041519836 
0.22836865 -0.90210456 -0.36613554 
-0.12196182 -0.8583232 -0.4984041 
-0.0048703076 -0.35693187 -0.93411773 
0.4855203 -0.776253 -0.4021211 
0.750752 -0.5334283 -0.3896484 
0.5017556 -0.751123 -0.42901698 
-0.8157604 -0.41607752 -0.40176424 
-0.17095701 -0.7337969 0.65750736 
-0.71167725 -0.6899784 0.13208057 
-0.5492796 -0.64200455 0.5349038 
-0.38183907 -0.9052564 0.18630575 
0.2932596 -0.9410346 -0.1686796 
0.017009975 -0.9916639 0.1277242 
-0.54879314 -0.4349097 0.71391857 
0.28133982 -0.6958255 0.66081375 
0.7845358 -0.41301805 0.46251452 
0.40296593 -0.85021865 0.3387428 
0.65980893 -0.73395836 0.16111308 
0.17836308 -0.13492145 0.97467065 
-0.22141759 0.43765965 0.8714519 
-0.21465506 0.49007288 0.8448383 
-0.79876304 0.39392632 0.45475245 
-0.34494972 0.72919816 0.59099907 
-0.99710566 0.07573646 -0.00665598 
-0.8858505 -0.41419497 -0.20907308 
-0.8591974 -0.5088124 0.0537562 
-0.83015406 -0.4382147 -0.34469137 
0.18665288 0.23240308 -0.9545415 
-0.24955043 0.4118289 -0.8764255 
0.6673223 0.4700049 -0.5777338 
0.9178288 -0.27409735 -0.28716037 
0.4150942 -0.7157103 -0.5616545 
0.84675217 -0.47674233 -0.2360671 
-0.07403126 -0.9337097 -0.35029373 
0.102232516 -0.36065665 -0.9270789 
-0.20274752 -0.20807764 -0.9568684 
0.066148706 -0.5547968 -0.8293521 
0.10371627 -0.10749765 -0.9887807 
0.9325057 -0.35798362 0.047759976 
0.22270364 -0.8347014 0.5036633 
0.0070378548 -0.7711979 -0.6365565 
-0.13240817 -0.6826159 -0.71868193 
0.0058832285 -0.6975593 -0.71650296 
-0.10619567 -0.51306707 -0.85175383 
0.46418536 0.01935691 -0.8855266 
0.2685644 -0.8466156 -0.4594727 
0.24492429 -0.92854166 -0.2789669 
-0.5786054 -0.81321776 -0.062392473 
-0.35934085 -0.739114 0.56972337 
-0.42519492 -0.8676255 0.2577507 
-0.42664596 -0.7997592 0.422325 
-0.99428374 0.06198982 0.08693252 
-0.34362432 -0.80538565 0.48298696 
0.11734865 -0.99247724 0.034904063 
-0.28151378 -0.79653645 0.5350512 
-0.04230862 -0.99221796 0.11710502 
0.2710494 -0.68187165 -0.6793993 
-0.5877771 -0.7528683 -0.29615453 
-0.3470606 -0.6296487 -0.6950479 
0.22098634 -0.099898055 -0.97014713 
-0.0771583 0.061916694 -0.9950945 
0.71574295 -0.46820173 -0.5181692 
0.3462171 -0.10344339 0.932434 
0.38982093 -0.12603453 0.91222525 
0.6511122 -0.07260021 0.7555013 
0.39001867 0.32847163 0.8602278 
0.25982043 -0.7221202 0.6411208 
0.3454529 0.20066139 0.91673183 
0.73735756 0.12369587 0.6640808 
-0.15944429 -0.72054183 0.6748311 
-0.24054673 -0.9570645 0.16175516 
0.45095766 -0.83130777 0.32490724 
0.33638814 -0.76188326 -0.5535134 
0.19743915 -0.9785404 -0.058961675 
0.12040483 -0.9747963 0.18781596 
0.4843071 -0.86339426 0.14141093 
-0.3656641 -0.9098569 -0.19608754 
0.12576474 -0.99191713 0.016846523 
-0.105534405 -0.99339974 0.044939112 
0.86909956 -0.4596612 0.18269527 
0.4627796 -0.2794194 0.8412847 
-0.56031334 -0.40945235 0.7199985 
-0.4500975 0.23780195 0.86073375 
-0.41596863 0.046892468 0.90816915 
-0.76148385 -0.36147666 0.5380307 
-0.057756945 -0.97600365 0.20995498 
0.126113 -0.8095479 -0.57334787 
0.19754086 -0.81816626 0.5399829 
-0.12529744 -0.893066 0.4321269 
-0.2710689 -0.9509049 0.14933753 
-0.19216986 -0.5856295 -0.7874699 
0.032274716 0.2596204 -0.9651713 
0.1555339 -0.49438125 -0.8552173 
-0.5321892 -0.6498742 -0.54262173 
-0.42444906 -0.89228743 -0.15383768 
0.20596287 -0.97434515 -0.09072497 
0.471518 -0.68694186 0.55297524 
0.3791984 -0.76980925 0.51342225 
0.57712835 -0.5187631 0.63071996 
0.3282144 -0.6301168 0.7037245 
-0.02949087 -0.9200477 0.39069492 
-0.1617667 -0.5137359 -0.8425598 
0.44874448 -0.14510211 -0.8818014 
0.45680252 -0.7497069 -0.4788225 
0.45262054 0.87691754 -0.16171066 
0.6651697 0.6867262 -0.29318315 
0.7607244 0.49773887 -0.41659868 
0.9772767 0.0544018 0.20486757 
-0.062094342 -0.0076724556 -0.99804085 
0.40469036 -0.37805405 -0.8326469 
-0.40014836 -0.5307394 -0.7471258 
-0.47397718 -0.10653639 -0.87406856 
0.009312995 -0.3675535 -0.9299557 
0.61742735 0.58930975 -0.5210542 
0.97474366 0.01638591 -0.22272494 
0.19672866 0.8275656 -0.525769 
0.36028162 -0.3565009 -0.86203504 
0.1712053 -0.19006822 -0.9667279 
-0.49404845 -0.7492765 -0.4410226 
-0.16513129 -0.41248754 -0.89587146 
0.35628188 -0.62373155 -0.6957171 
0.31885788 -0.9255156 0.20432979 
-0.30780053 -0.9497297 0.057204273 
-0.72907615 -0.68438596 0.007994419 
-0.87225723 -0.40025872 -0.2809986 
-0.7060516 -0.5808879 -0.40504363 
0.0874825 -0.7338465 -0.67365885 
0.07321812 0.14165449 -0.9872047 
0.19711503 0.72482187 -0.66013557 
0.41890028 0.29325444 -0.8593744 
0.6906003 -0.5118957 -0.51091504 
0.41344574 -0.9056458 -0.09417233 
0.7075122 -0.6666952 0.23440145 
0.2430588 -0.9252029 -0.2914139 
0.41753563 -0.89769894 0.14071521 
0.2509851 -0.66871345 0.6998778 
0.077701464 -0.9506838 0.30027154 
0.059558384 -0.6854645 0.7256661 
0.29605594 -0.70315856 0.6464665 
-0.1582393 -0.955428 0.2492343 
0.04868343 -0.9868462 -0.15415724 
-0.07880426 -0.90654933 -0.41467872 
0.25522608 -0.86943233 0.42302135 
-0.667675 -0.69162863 -0.27542692 
-0.65289164 -0.25412166 -0.71355087 
-0.43244556 -0.67272186 -0.60036343 
-0.37836945 -0.686469 -0.62096447 
-0.19616687 -0.43275282 -0.8799111 
-0.45900407 -0.02303122 -0.8881357 
-0.19869386 -0.97197706 -0.12562464 
0.29427215 -0.70502704 -0.6452447 
0.10119533 -0.8621737 0.49640325 
-0.5952548 -0.80069304 -0.0675472 
-0.027791947 -0.9201044 -0.39068592 
-0.37313503 -0.90092045 -0.2216137 
0.29076532 -0.6028217 -0.7430085 
-0.50007397 -0.37126654 -0.78236014 
-0.5288729 -0.5192534 -0.67131925 
-0.1250328 -0.25286093 -0.9593895 
-0.02328257 -0.37223348 -0.927847 
-0.053281214 -0.7536557 -0.6551063 
0.37841424 -0.72042173 -0.5812015 
0.6823235 -0.3622796 -0.63497096 
0.95405483 0.24493738 -0.1725835 
0.90041447 0.014711061 0.43478432 
0.87217313 0.13059254 0.47144422 
0.27159905 -0.14094998 0.9520332 
-0.62335074 -0.33672577 0.7057263 
-0.7427772 -0.007435757 0.6694974 
-0.9650605 -0.17310037 0.19670975 
-0.45351684 -0.06607964 0.8887948 
-0.27092016 -0.03435766 0.96198845 
-0.32136866 0.2379128 0.91658044 
-0.89919525 -0.38610098 0.20584989 
-0.8272126 -0.53141826 0.18252127 
-0.58472234 -0.06850859 -0.8083356 
-0.43703347 -0.20052 -0.87680876 
-0.57068944 0.01558751 -0.8210181 
-0.12766185 -0.17362149 -0.97650295 
-0.3441954 -0.42220286 -0.8386146 
-0.5950815 -0.11511343 -0.7953785 
-0.007940273 -0.54845214 -0.83614427 
0.26872534 -0.25111184 -0.92990834 
-0.20440096 -0.53825134 -0.817622 
0.23531407 0.06444928 -0.9697802 
0.9792161 -0.12863062 0.15681249 
-0.71784335 -0.52904856 0.45255774 
-0.4727952 -0.76604426 -0.43547776 
-0.019731162 -0.54330975 -0.8393005 
-0.1862503 -0.84251183 -0.5054549 
-0.19368207 -0.97677535 0.09163659 
-0.14048436 -0.7563033 -0.6389597 
-0.71283066 -0.5090189 0.48246488 
-0.50849164 -0.35054326 -0.78648317 
-0.37547764 -0.68906385 -0.61984485 
0.3899003 -0.022261368 -0.920588 
0.23635834 -0.07715195 -0.9685982 
0.5777712 0.3244082 -0.74895924 
0.47836006 0.1513599 -0.8650213 
0.25809684 -0.36702123 -0.8936898 
-0.015054968 -0.063946 -0.9978398 
0.854475 -0.43017334 -0.29124475 
0.6616425 -0.6738391 0.32889223 
0.78309005 -0.2894936 0.5504211 
0.21759094 -0.124329545 0.96808904 
-0.53476393 0.07862887 0.84133536 
-0.7982738 0.5475388 0.25091916 
-0.9865983 -0.0020506629 0.16315557 
-0.96297723 -0.1910081 -0.1902388 
-0.6489283 -0.4244496 -0.63145447 
-0.7393256 -0.25344023 -0.6238315 
-0.6155459 0.36958396 -0.6960683 
-0.6998248 0.58323026 -0.41241696 
-0.7929719 0.36118567 -0.49065328 
-0.8334616 0.17450885 -0.52429813 
-0.23984797 -0.12486669 -0.9627468 
-0.5442871 -0.14493136 -0.8262847 
-0.22762999 -0.022406595 -0.97348994 
-0.48103452 -0.28397372 -0.82943636 
-0.21115077 -0.9369 -0.27862838 
0.13453147 -0.919149 -0.37022483 
0.14441904 -0.9871797 -0.06796741 
-0.37688425 -0.92415386 0.062434383 
-0.1824938 -0.97056955 -0.15713291 
0.51633 -0.8137737 -0.26678807 
-0.035294916 -0.9950062 -0.09336451 
0.1617433 -0.53004557 -0.83240074 
-0.20923738 -0.71442765 -0.66769224 
0.27516013 -0.3234423 -0.9053574 
-0.32181355 -0.8401011 -0.4366534 
0.13194846 -0.7721963 -0.62153244 
-0.30044845 -0.9402232 0.16034693 
-0.25083113 -0.20232417 -0.9466513 
0.04277467 -0.35123828 -0.9353086 
0.69911504 -0.29172125 -0.6527916 
0.8579795 0.5110362 -0.052089024 
0.59854895 0.6464945 -0.47305822 
0.57164973 0.772065 0.27772704 
0.25938123 0.95893866 -0.114708945 
0.14293346 0.8572254 -0.49470666 
0.47137585 0.6527526 -0.59305894 
-0.1969026 0.926602 0.32037166 
-0.6306903 0.7535391 0.18549591 
-0.7198291 0.48985457 -0.49182183 
-0.87795913 0.42121515 -0.22752067 
-0.8666913 0.14590561 -0.4770303 
-0.36769927 0.0023356818 -0.9299419 
-0.71662486 -0.47411236 -0.5115333 
-0.26360884 -0.7336882 -0.62626845 
-0.612305 -0.70546544 -0.35693306 
-0.58141464 -0.7996155 -0.15024075 
-0.36647725 0.01944151 -0.9302239 
-0.40681258 -0.44324288 -0.7987736 
0.013535651 0.06083533 -0.99805605 
0.95356375 0.03674301 -0.29894167 
0.7743302 -0.2353075 -0.58740366 
0.44830832 -0.8929525 -0.040688388 
-0.0044634994 -0.6776186 -0.73539996 
-0.19119063 -0.48956877 -0.8507459 
-0.074885905 -0.8792969 -0.47034997 
0.74784815 -0.55344075 -0.3666422 
0.74019426 -0.53905535 -0.40191025 
0.41798013 -0.9083927 -0.010740563 
-0.32686648 -0.66674 0.6697882 
-0.2773479 -0.6667756 0.69172865 
-0.08479006 -0.91088086 0.40386483 
-0.5961198 -0.80018854 0.06587549 
0.3773149 -0.79995084 -0.4665964 
0.28246886 -0.8866209 -0.36621687 
-0.210998 -0.9498867 -0.23064052 
0.058500513 -0.969572 0.23771387 
0.47130644 -0.48389515 0.7373709 
-0.28648335 -0.8661797 0.4094631 
0.23237212 -0.9726254 0.0017576852 
-0.03966588 -0.60403883 0.79596716 
-0.7805446 -0.17992625 0.5986459 
-0.2890637 -0.3839246 0.8769516 
-0.02270023 0.046547335 0.9986581 
-0.18402494 -0.070944816 0.980358 
0.03526086 0.5584381 0.82879645 
-0.8468934 0.40605447 0.34335315 
-0.90375614 -0.19684352 -0.38010204 
-0.83146596 -0.13724789 -0.5383562 
0.32060328 0.1060048 -0.9412633 
0.100764364 0.28279465 -0.95387304 
0.27526587 0.19386396 -0.94161856 
-0.34656587 -0.4443509 -0.82610196 
0.6569032 -0.700082 -0.27993473 
0.6355014 -0.4826779 -0.6026277 
0.2699796 -0.8643731 -0.42422912 
-0.0386846 -0.8400916 -0.54106355 
0.5487413 -0.15007198 -0.8224121 
-0.031459305 -0.2835783 -0.9584329 
0.5103967 0.02068212 -0.8596903 
0.94028157 -0.3140183 -0.13138902 
-0.24323212 -0.88256085 -0.4023984 
-0.014258569 -0.5518667 -0.83381057 
0.109705836 0.26561296 -0.9578176 
-0.19034699 -0.5706389 -0.7988362 
0.14922734 -0.5033855 -0.85107833 
-0.13630049 0.71718043 -0.6834285 
0.122983284 -0.2329173 -0.9646889 
-0.3383609 -0.87000203 -0.35862008 
-0.24122693 -0.39021847 -0.8885602 
-0.17997444 -0.9389399 -0.2932593 
-0.42295006 -0.69991726 -0.5755251 
-0.8152978 -0.494316 -0.30156472 
-0.38263166 -0.89065444 0.24561702 
-0.5000894 -0.86389834 -0.05991994 
-0.5097898 -0.74660206 0.42743406 
-0.6584427 -0.7352701 -0.16072106 
-0.5664045 -0.3663081 -0.7382442 
-0.14020829 -0.23447935 -0.9619569 
-0.024881206 -0.5294421 -0.84798115 
-0.15431288 -0.53658974 -0.8296138 
-0.051581513 -0.45315084 -0.88994026 
0.4430761 -0.21529667 -0.87024766 
0.44805261 -0.32446054 -0.83305115 
0.3149049 -0.53493685 -0.7840138 
0.038879663 -0.98480237 0.16927135 
0.30664358 -0.82880247 -0.46803442 
0.2509161 -0.95937526 0.12899697 
0.15789913 -0.9282922 0.33666247 
0.5380451 -0.78195566 0.31472653 
-0.09465437 -0.990833 0.096387595 
0.6985825 -0.7107781 -0.08232343 
0.290661 -0.9489234 -0.122722074 
0.76499075 -0.638973 -0.080640025 
0.86526203 -0.49578577 0.074285015 
0.3170776 -0.8871457 0.3353122 
-0.14061284 -0.98388684 0.1104299 
-0.0579597 -0.99529624 -0.07762755 
-0.1902897 -0.86309785 -0.46781614 
0.21355553 -0.73158437 -0.64743996 
0.80699563 -0.5491771 -0.21716923 
0.8292166 -0.32823786 -0.4523935 
-0.012158601 -0.93508726 0.3542089 
-0.54008925 -0.7471549 0.38738012 
-0.4946778 -0.51906073 0.6970437 
-0.86069363 -0.500476 0.09343634 
-0.36061805 -0.9322966 0.02788858 
-0.23041481 -0.96944207 0.08420853 
0.43271014 -0.77126396 0.46681252 
0.46685407 -0.75990343 0.45232058 
-0.6123642 -0.6265325 0.48214856 
-0.21960185 -0.93484735 0.27899006 
-0.35934007 -0.69569844 -0.6219955 
-0.9119944 -0.34471017 -0.22235352 
-0.57627857 -0.020664627 -0.81699216 
-0.38221812 -0.58509105 -0.7152467 
0.3753975 -0.8750908 -0.30543908 
0.32211134 -0.9466824 -0.0060655917 
0.94104147 -0.24472313 0.23356277 
0.5064792 -0.6622463 -0.5521855 
0.13159686 -0.71396244 -0.68770635 
0.49542767 -0.8654808 0.074124224 
0.6325018 -0.7744087 -0.015255991 
0.7911775 -0.30396882 -0.53069884 
0.718645 -0.19438903 -0.6676544 
0.92211056 -0.2171695 -0.3202336 
0.82390755 0.43285504 -0.36580458 
0.97990626 0.1486448 -0.13299839 
0.7169711 0.68995243 0.09959 
0.564527 0.7848307 -0.25563687 
-0.7837948 -0.4718373 -0.4037763 
-0.028974753 0.35239878 -0.9354013 
0.29710737 0.60119605 -0.74181575 
0.49360225 0.041528773 -0.8686957 
-0.053962346 -0.038783107 -0.9977896 
0.54843926 0.095130324 -0.83076155 
0.8499443 0.3205204 -0.4181645 
0.48502713 -0.26633903 -0.8329539 
0.3776137 -0.12660119 -0.9172678 
0.10698924 -0.5079508 -0.85471594 
-0.06678904 -0.3124125 -0.94759583 
0.054818474 -0.6038051 -0.7952449 
0.46212092 -0.49409497 -0.73642004 
-0.0151029825 -0.85477024 -0.5187868 
0.45037603 -0.37837785 -0.80869746 
-0.3231639 -0.7251299 -0.6080721 
-0.48510346 -0.63440615 -0.6018335 
-0.5856379 -0.75401026 -0.29748398 
0.109345786 0.15751855 -0.9814435 
0.106742635 0.31319362 -0.9436715 
0.64112514 -0.31614456 -0.6992934 
0.40616906 -0.26733947 -0.8738172 
0.4248557 -0.90021825 0.09542007 
0.26261196 -0.96477556 -0.015592255 
0.58479255 -0.7474767 0.3151132 
0.64860004 -0.7529799 0.11108282 
0.28305426 -0.80948806 0.5144022 
0.0586093 -0.65264297 0.7553954 
0.151937 -0.31410047 0.9371532 
-0.2408227 -0.9630751 0.12037797 
-0.8758403 -0.44740593 -0.18091895 
-0.34020817 -0.90996724 -0.23710383 
0.17986341 -0.34308028 -0.92192477 
0.5888622 -0.40172514 -0.7013261 
0.2198705 -0.3074562 -0.925812 
-0.034564327 -0.5833747 -0.81146747 
-0.9740656 -0.19666952 -0.11188124 
-0.98382425 -0.16207139 0.07630638 
-0.76426345 -0.0004926248 -0.6449041 
-0.80566275 -0.41512287 -0.4225879 
-0.63193125 0.29169154 -0.71803826 
-0.30941215 -0.016747 -0.95078063 
-0.46163824 -0.86934423 -0.17643948 
-0.19620834 -0.87399185 0.4445677 
-0.5324448 -0.5641797 -0.63103396 
0.19266975 -0.58778155 -0.7857425 
0.27335706 -0.52744794 -0.80440944 
0.35215607 -0.25410706 -0.90078616 
0.42065963 0.1353963 -0.8970582 
-0.30049336 -0.37519813 -0.8768866 
0.17257215 -0.20980632 -0.9623929 
0.39976376 -0.51284176 -0.7597252 
0.4480379 -0.7373211 -0.5055886 
-0.084285 -0.559257 -0.8246985 
0.68887824 -0.5219863 -0.50296843 
0.88440925 -0.4529342 -0.11256611 
0.82580984 -0.26494107 0.4978397 
0.6448678 -0.21287428 0.7340506 
0.5125486 -0.008747767 0.8586136 
0.2666489 -0.624365 0.7342117 
-0.39212853 0.025529848 0.9195561 
-0.7904442 0.5095771 0.33989614 
-0.3777869 0.8248579 0.42057884 
-0.9119871 0.34540218 0.22130707 
-0.978033 0.15092325 0.14378384 
-0.8093587 -0.585231 -0.049429107 
-0.40774333 -0.7698082 -0.49106085 
-0.6795455 -0.024514865 -0.7332237 
-0.56828237 -0.3381942 -0.75012 
0.028672842 0.24429634 -0.96927667 
0.33874062 -0.0068986225 -0.94085455 
-0.46284765 -0.61242485 -0.6408649 
-0.4353343 -0.019727696 -0.9000528 
-0.7391301 0.50986797 -0.4401381 
-0.5500746 0.36685678 -0.7502227 
-0.9321844 0.23373206 -0.27640855 
-0.8673277 -0.43376228 -0.24411656 
0.19373226 -0.75858843 -0.6221025 
-0.35703248 -0.5762041 -0.73519844 
0.18428436 -0.8953336 -0.4054839 
-0.65037555 -0.7103022 -0.26922578 
-0.045807265 -0.30795074 -0.95029896 
-0.4173155 0.075231746 -0.9056424 
-0.39535743 -0.21797709 -0.8922883 
-0.24060759 -0.2869107 -0.9272488 
0.13897805 -0.49606907 -0.85708845 
0.11132737 -0.6938872 -0.7114259 
0.19963512 -0.04576815 -0.9788009 
0.7977211 -0.22890833 -0.5578908 
0.32303065 0.7440902 -0.5847914 
0.26112664 0.5993748 -0.75667876 
0.22588287 0.048020888 -0.9729702 
0.95479995 -0.042334437 -0.29421923 
0.8986562 -0.32070068 -0.29927966 
0.37899977 -0.8882724 -0.25948292 
0.6446077 -0.6992433 0.3090949 
0.7117351 -0.15472943 0.68519485 
-0.16621715 -0.3639894 0.9164517 
-0.66288847 0.3765295 0.64715105 
-0.6874435 0.5563235 0.46682504 
-0.7644592 0.37220109 0.52637297 
-0.9822605 -0.09912411 -0.1591817 
-0.801899 0.5694843 -0.18068102 
-0.5670892 0.7190244 -0.40176338 
-0.6457083 0.7313584 -0.21948947 
-0.7163513 0.3828448 -0.5833274 
-0.8485537 0.49381432 -0.19001056 
0.32028311 0.16403057 -0.9330128 
-0.56744415 0.2687279 -0.77832675 
0.094842985 0.01622201 -0.9953601 
0.54054695 -0.7787167 -0.31844857 
0.010632211 -0.98677486 -0.16174807 
-0.3785326 -0.4189996 -0.8253195 
-0.113680184 -0.6693695 -0.73418075 
0.45905784 -0.802801 -0.380495 
0.3030999 -0.94888484 0.08802301 
0.7365304 -0.2755943 -0.61771417 
-0.3003546 -0.8515134 -0.42978138 
-0.84776527 -0.1939362 -0.49364242 
0.013116287 -0.9470671 -0.32076773 
-0.39522982 -0.9184511 -0.015525016 
-0.8016541 -0.5844082 -0.1257682 
-0.3882369 -0.839836 -0.37940437 
-0.53314316 -0.38704547 -0.7522993 
0.20546052 -0.32248154 -0.92400855 
0.5491254 -0.6063885 -0.5751126 
0.83945644 -0.015353625 -0.54321015 
0.7043927 0.24732809 0.66532683 
0.9691476 0.19464181 0.15121977 
0.18163478 0.7587444 0.62555254 
0.7408512 0.67107356 0.028280588 
0.7162748 0.5692744 -0.4035803 
0.76490587 0.60413605 -0.22346953 
-0.30079404 0.95366913 -0.006187107 
-0.45465755 0.7783176 -0.43302232 
-0.19507025 0.642657 -0.7409046 
-0.30931497 -0.37733215 -0.8728945 
0.39239803 0.3818462 -0.83678985 
-0.30539253 0.055558756 -0.95060444 
-0.44991866 0.34818232 -0.82240033 
-0.021274555 -0.08792322 -0.99590003 
-0.14446723 -0.29706907 -0.943864 
0.0559241 -0.46587178 -0.8830832 
-0.28801468 -0.39736605 -0.871291 
0.22961524 -0.5816093 -0.78038937 
0.35925022 -0.42648658 -0.83008957 
0.9184225 0.2765039 -0.28292346 
0.65122455 -0.40760297 -0.64013 
0.34149042 -0.064484455 -0.9376706 
0.8773825 -0.033262603 -0.47863707 
0.977294 -0.05538159 -0.2045221 
0.66545075 -0.5780432 -0.47227257 
0.26171097 -0.34148607 -0.90271515 
0.54252005 -0.16290975 -0.824095 
0.42360133 -0.71452445 -0.5567915 
0.32653406 -0.7977449 -0.5069307 
-0.359749 -0.86428 -0.3515692 
-0.38468465 -0.9229881 0.01051976 
-0.77514416 -0.5976083 0.20497775 
-0.5224415 -0.76113886 -0.38434693 
0.4433117 -0.68877304 -0.57364315 
0.56554013 -0.80721974 -0.16899878 
0.23621209 -0.93340755 0.27010038 
-0.52550054 -0.3662591 0.7679215 
-0.115686685 -0.9777495 0.17499284 
-0.038690068 -0.99170923 0.12253992 
0.24965166 -0.9650713 -0.079445295 
0.017884022 -0.9380707 0.34598193 
0.47315007 -0.82926583 0.29740074 
-0.0427409 -0.034627732 0.998486 
-0.19214378 -0.27671668 0.94154584 
-0.6469558 -0.53882647 0.5395501 
-0.8338495 0.39327368 0.38733816 
-0.99724436 -0.0055235857 -0.07398221 
-0.3454809 0.649806 -0.6770489 
0.27576986 0.6882545 -0.67101187 
-0.3173271 0.5381911 -0.78080344 
-0.08312811 0.1376709 -0.98698354 
-0.17497483 -0.39660105 -0.90116125 
-0.1253419 -0.6705005 -0.73124444 
-0.040810652 -0.18007445 -0.9828061 
-0.113703884 -0.49518293 -0.861316 
-0.21601309 -0.49251112 -0.8430725 
0.4648152 -0.53592515 -0.70479155 
-0.016872244 -0.6637182 -0.7477925 
0.47662038 -0.72893643 -0.49141103 
0.57658416 -0.7089362 -0.40615305 
-0.1945033 -0.8631229 -0.46603373 
-0.31281704 -0.6485104 -0.69395953 
0.38906536 -0.3023863 -0.87016714 
-0.1851861 0.21299401 -0.9593434 
0.36113214 -0.07641935 -0.92937815 
0.22487026 -0.5201539 -0.8239377 
0.50342524 -0.8627616 -0.04696369 
-0.028179487 -0.50294936 -0.86385643 
0.29617077 -0.8058115 -0.5127872 
-0.06701163 -0.6486663 -0.75811714 
0.046169665 -0.50482124 -0.8619884 
-0.79262036 -0.6068744 -0.058791753 
0.3350099 -0.9418397 0.026577959 
-0.25372502 -0.9672271 -0.009769854 
-0.8153477 -0.47765163 -0.32719582 
-0.4382421 -0.16266733 -0.88401544 
-0.4713321 -0.11157487 -0.87486976 
-0.48120698 0.43436173 -0.7614262 
-0.11459306 -0.40082225 -0.90896094 
0.084525555 -0.8598887 -0.50343513 
0.103125185 -0.7944501 -0.59851 
0.35068828 -0.27673984 -0.8946691 
-0.0058003236 -0.13762781 -0.9904671 
0.4329176 -0.47931945 -0.7634365 
-0.22909229 -0.970533 -0.07471542 
0.2029931 -0.92345864 0.32560423 
0.40088525 -0.71480274 0.5730167 
0.5083254 -0.5918757 -0.62553054 
-0.30559683 -0.80891067 -0.5022692 
-0.037555072 -0.74317914 -0.6680378 
0.28794095 -0.79069936 -0.5402634 
0.038964506 -0.8588429 -0.51075494 
0.79450625 -0.1736735 -0.5818913 
0.08612807 -0.31390443 -0.9455401 
-0.08170196 -0.809733 -0.581083 
0.48357624 -0.53587145 -0.6920953 
0.3562088 -0.80867046 -0.46815327 
0.4258751 -0.74465394 -0.513927 
0.1108368 -0.847253 -0.5194975 
0.22454906 -0.33714607 -0.91428137 
0.49613866 -0.73562014 -0.46120438 
-0.32656422 -0.9212429 0.21134663 
0.31365982 -0.65038913 0.6918176 
-0.5567103 -0.82380015 -0.1068968 
-0.7201454 -0.62584686 -0.29951018 
-0.8013695 -0.56703293 -0.19047458 
-0.18577065 -0.90809226 -0.3753103 
0.06789179 -0.9451803 -0.31941363 
0.12648055 -0.9634025 0.23634379 
-0.55703217 -0.7699732 0.31121793 
-0.16121793 -0.9868917 -0.007323601 
0.022577532 -0.81491053 -0.579147 
-0.5884832 -0.23424175 -0.77383363 
-0.44454917 -0.5110869 -0.73564005 
-0.19245698 -0.64089316 -0.74311256 
0.8328295 -0.4032001 -0.37924248 
0.9482424 -0.31705034 0.017762924 
0.83355755 -0.48252082 0.26898965 
0.647846 -0.6435591 -0.4075872 
0.013072877 -0.9436524 -0.3306802 
-0.15261821 -0.12887649 -0.97984624 
0.091554195 -0.71100265 -0.6972038 
0.55388224 -0.12186073 -0.82362884 
0.5026274 -0.007031326 -0.86447465 
0.7790745 0.033487733 -0.62603635 
0.9203025 0.2812879 0.2718835 
0.25942418 0.82939297 0.4947792 
0.66115296 0.7500523 -0.017270802 
-0.18921232 0.98193485 -0.0016678339 
-0.8208481 0.18597923 -0.54001874 
0.06272651 -0.77434903 -0.62964207 
0.29456797 0.12907211 -0.94687396 
-0.17297025 -0.08767845 -0.98101676 
-0.10504561 -0.46406788 -0.8795491 
0.24569629 -0.31123495 -0.918023 
0.9022562 -0.40554267 -0.1465226 
0.6276811 -0.19483061 -0.7536959 
0.3301885 -0.079746 -0.94054043 
-0.27958354 -0.32863802 -0.9021253 
-0.4893801 0.6825776 -0.54276603 
0.19293268 0.48921242 -0.8505576 
0.30769682 -0.3450881 -0.8867 
-0.7594765 -0.45448998 -0.46544006 
-0.5046378 -0.4153332 -0.7568613 
-0.55744684 -0.33693424 -0.7587678 
-0.023708273 -0.5133591 -0.8578463 
0.4077221 -0.8258202 -0.3895944 
-0.033496264 -0.7327285 -0.67969626 
0.1427685 0.3728359 -0.91684824 
-0.036402695 0.28051877 -0.959158 
-0.17816865 -0.48656556 -0.85528356 
0.21041225 -0.7392089 -0.6397632 
-0.18952027 -0.5129599 -0.8372301 
-0.18344371 -0.7152809 -0.67433053 
0.2527069 -0.96673375 -0.0395621 
0.5050849 -0.7028176 0.50093585 
0.5955814 -0.051243212 0.801659 
-0.0074633784 -0.30668512 0.9517818 
0.2709333 -0.95251065 -0.13899153 
-0.3628309 -0.68833923 -0.62812644 
-0.46165398 -0.8018844 -0.3792851 
-0.25793958 -0.22048618 -0.94066626 
0.38728598 -0.66962236 -0.6337315 
0.22560576 -0.35744005 -0.9062774 
-0.25981885 -0.47887146 -0.8385561 
-0.4325943 -0.85297376 -0.2920584 
-0.86364144 -0.0876449 -0.49642926 
-0.8992936 0.13552922 -0.41581598 
-0.84708536 -0.39782068 -0.3523993 
-0.9071426 -0.12775724 -0.40096185 
-0.93477255 0.023835048 -0.35444644 
-0.95647997 0.10453321 0.2724314 
-0.8031755 -0.5876702 -0.09773844 
-0.44731787 -0.6472733 -0.61720663 
-0.12154347 0.069450326 -0.9901535 
0.35054293 -0.11057184 -0.92999655 
0.5472471 0.024834262 -0.8366026 
0.019877782 -0.14459126 -0.9892918 
0.3438758 -0.48722112 -0.8027236 
0.242906 -0.38367176 -0.8909505 
0.23624733 -0.27266997 -0.9326513 
0.94389415 -0.013712787 -0.3299633 
0.76652175 0.3007728 -0.56743294 
0.7779369 0.098063305 -0.6206432 
0.9605991 -0.12600878 0.24773206 
0.7013184 -0.22761808 0.6755314 
0.2289645 -0.13139725 0.9645258 
0.51973426 0.43469092 0.7354728 
0.058426812 -0.23553056 0.9701091 
0.10141845 -0.49645045 0.8621203 
-0.75235295 -0.2384686 0.614083 
-0.3164504 -0.22036678 0.9226579 
-0.3768115 -0.35488272 0.8556117 
-0.74916494 0.25005883 0.6133698 
-0.7592366 -0.64823705 -0.057865974 
-0.8860768 -0.463281 -0.015451975 
-0.9396001 0.028297225 -0.3411027 
-0.7449876 -0.3211251 -0.5846983 
0.09473894 -0.47410062 -0.87535894 
0.361254 0.4580534 -0.8122086 
-0.10822187 -0.034130845 -0.9935407 
-0.9066077 0.39246687 -0.15502368 
-0.36012125 0.9096201 -0.20713276 
-0.42001316 0.8497562 -0.31859627 
-0.44682103 0.6623532 -0.60136443 