# OOMMF: rectangular mesh v1.0
# Segment count: 1
# Begin: Segment
# Begin: Header
# Desc: Time (s) :  5.320000000000008e-07
# Title: m
# meshtype: rectangular
# meshunit: m
# xbase: 2e-09
# ybase: 2e-09
# zbase: 5e-10
# xstepsize: 4e-09
# ystepsize: 4e-09
# zstepsize: 1e-09
# xmin: 0
# ymin: 0
# zmin: 0
# xmax: 1.024e-06
# ymax: 1.024e-06
# zmax: 1e-09
# xnodes: 256
# ynodes: 256
# znodes: 1
# ValueRangeMinMag: 1e-08
# ValueRangeMaxMag: 1
# valueunit: 
# valuemultiplier: 1
# End: Header
# Begin: Data Text
0.8011499 -0.4101069 -0.435857 
-0.25312155 -0.32293615 -0.91194403 
-0.69207513 -0.32600442 -0.6440133 
-0.7669491 -0.63256836 0.107918724 
-0.6242833 -0.7766973 -0.08373585 
-0.5855222 -0.63757205 -0.5006653 
-0.5833601 0.019180607 -0.8119872 
-0.22003229 -0.63464564 -0.74081767 
0.24109516 -0.9479868 -0.20783214 
-0.004434233 -0.97613114 -0.21713692 
-0.06745914 -0.83358353 -0.54825896 
0.4465776 -0.8810155 0.15614203 
0.35223952 -0.8965469 -0.2685725 
-0.58716035 -0.70091796 -0.4049159 
0.096186295 -0.5670682 -0.8180353 
-0.043059587 -0.93767446 -0.3448372 
0.5877477 -0.22842716 -0.7761275 
0.70271134 -0.709278 -0.055870637 
-0.052767307 -0.5522067 0.8320358 
-0.23253407 -0.95701164 0.17336875 
-0.058207445 -0.9811095 0.18448861 
0.17366692 -0.97656244 -0.12714398 
0.48071256 -0.85135376 -0.2100291 
-0.9306067 -0.1714159 0.32340038 
-0.97624964 -0.1841365 -0.11415151 
-0.0018043293 -0.90042835 -0.43500063 
0.11306295 -0.947003 0.30066937 
-0.46905306 -0.643816 0.604558 
-0.5840935 -0.8113019 -0.024981331 
-0.32047915 -0.6047364 -0.72910017 
-0.6399201 -0.6834249 -0.3513301 
-0.83553475 -0.5484031 -0.033699393 
-0.31217358 0.34128046 -0.88660884 
-0.14645484 -0.98544973 -0.08625471 
-0.36692286 -0.5244886 -0.7682965 
0.16218892 -0.4909032 -0.8559842 
0.23562542 -0.2108707 -0.94869083 
-0.06799862 -0.63010347 -0.7735283 
0.07521179 -0.20513958 -0.97583866 
-0.30101514 -0.0071266512 -0.9535927 
-0.6451536 0.41487047 -0.64160687 
0.13625515 -0.0720845 -0.98804784 
0.7281527 -0.34470496 -0.59242904 
0.4203627 -0.90275687 0.09124354 
0.32666188 -0.9403303 -0.09524137 
0.59750277 -0.24440521 0.7637124 
0.41188967 -0.48107523 0.77389497 
0.24480926 -0.93548244 0.25483558 
-0.4054466 -0.8615888 -0.30541447 
-0.6476456 -0.6353693 -0.4205487 
-0.8710705 -0.2710368 -0.40960371 
-0.39257386 -0.38184053 -0.83671 
-0.34295595 -0.428212 -0.8360716 
-0.6321577 -0.26446408 -0.72831005 
-0.15327494 -0.011917156 -0.9881118 
-0.2401579 -0.103536576 -0.9651966 
-0.75851935 0.0029324857 -0.6516441 
-0.18401408 -0.5905431 -0.7857466 
-0.4758544 0.1742816 -0.8620838 
-0.4854955 0.23409562 -0.8423143 
-0.39591002 -0.4086032 -0.82237387 
-0.36468455 -0.6048356 -0.7079401 
-0.05925306 -0.60378695 -0.79494053 
-0.33969757 0.13965684 -0.93010837 
-0.14401796 -0.82267284 -0.54997116 
0.3122112 -0.8623541 -0.39858449 
0.8721686 -0.47137734 -0.13086411 
0.1358416 -0.76997423 -0.6234475 
0.33870977 -0.46606934 -0.8173464 
0.10034689 -0.9947277 -0.02115584 
0.2034059 -0.9104872 -0.36005443 
0.2407532 -0.9705224 0.011141846 
-0.081472814 -0.9408051 0.3290109 
-0.07076506 -0.9903775 0.11893198 
-0.15615083 -0.98444086 -0.0805804 
-0.36327863 -0.017013531 0.93152523 
-0.49180672 -0.3277106 0.8066796 
0.7519558 -0.58335114 0.30702448 
0.45784333 -0.83687437 0.30003443 
0.5304701 -0.72207975 0.4440747 
-0.32373947 -0.88924515 -0.32316542 
0.24446696 -0.8656819 -0.43684205 
0.43055987 -0.8693873 -0.24245432 
0.20858294 -0.7397349 -0.63975424 
0.102554575 -0.9902898 0.0938549 
-0.87464786 -0.41512498 0.25032464 
-0.05861955 -0.99763596 0.03586523 
-0.20626138 -0.9677207 0.14482036 
-0.056235425 -0.86632055 0.4963128 
-0.7588889 -0.5805956 0.29495144 
-0.29389733 -0.9105939 0.2905908 
-0.09709139 -0.9949107 -0.026946269 
0.007975559 -0.6814017 -0.7318662 
-0.052789863 -0.9096106 -0.4120943 
-0.28775188 -0.50810516 -0.81180537 
-0.7969301 -0.56482804 -0.21417722 
0.09469114 -0.15768291 -0.98293936 
0.6839744 -0.36789435 -0.6299467 
0.3071639 -0.87678105 -0.37000734 
-0.4942068 -0.8520417 -0.17258264 
-0.19722472 -0.52170426 -0.8300163 
0.14532837 -0.8900464 -0.43208456 
0.93750006 -0.26759237 -0.22245915 
0.61229306 -0.7904918 -0.014831936 
0.66762817 -0.33077613 -0.6669782 
0.726665 -0.67370194 0.13447593 
0.929699 -0.362823 0.063397974 
0.5978824 -0.7694916 -0.22454257 
0.65784574 -0.7200163 -0.22094226 
0.33250013 -0.7404194 -0.58414286 
0.6600845 -0.6777728 -0.32390216 
0.8649679 -0.462558 0.19460423 
0.5085191 -0.7434556 0.43437558 
0.2983135 -0.32055467 0.8990293 
0.09643642 -0.83013207 0.54916376 
0.25100756 -0.5623631 0.78787243 
-0.15857357 -0.09672342 0.98259807 
-0.8824819 -0.46688634 0.05694826 
0.1655027 -0.9830659 -0.078679375 
-0.48397177 -0.14419895 -0.86312115 
-0.2198151 -0.43861482 -0.87137735 
-0.24844226 0.48183504 -0.8403044 
-0.21851997 0.26184672 -0.9400455 
-0.2284966 -0.0698956 -0.97103244 
0.25108615 -0.47227007 -0.84493595 
0.43789 -0.6928546 -0.57289165 
0.63305193 -0.7656829 -0.11390791 
0.72303355 -0.6884787 -0.05674129 
0.313346 -0.8223521 0.47492242 
-0.05235489 -0.7817561 0.62138253 
-0.6156742 -0.7477408 0.24865437 
-0.08643836 -0.52945924 0.84392035 
-0.054423817 -0.12442433 -0.9907354 
0.5346205 0.30764532 -0.78710574 
0.9642018 -0.24689935 0.096724235 
0.6925848 -0.23055395 -0.6834992 
0.49682134 -0.03939576 -0.8669583 
0.9575145 0.27990675 -0.06941391 
0.4493157 0.7952622 0.40702996 
0.2540768 0.63439304 0.73006195 
-0.84869915 -0.4454874 0.28504533 
-0.94126505 -0.07617683 -0.32896385 
-0.7489743 -0.5962946 -0.2889123 
-0.5718283 -0.28580067 -0.7689802 
-0.16810347 -0.85942686 -0.48283195 
0.117203414 -0.95945096 -0.25635377 
-0.62510115 -0.763496 -0.16224207 
0.78325725 -0.58004373 0.2237353 
0.5156144 -0.8465244 0.13243264 
0.49207583 -0.8039351 0.33399096 
-0.54075533 -0.8403248 -0.037919167 
-0.08754173 -0.9960164 -0.016969573 
-0.8461399 -0.20094165 0.49362922 
-0.51318526 -0.4612951 0.72377324 
-0.933538 -0.15907459 0.32125065 
0.023655705 -0.99632996 -0.082262784 
-0.0006869118 -0.46798304 -0.88373727 
0.22251324 -0.7828608 -0.5810481 
0.4644897 -0.8469321 0.25875703 
-0.39324415 -0.8583058 0.32965156 
0.13973215 -0.6832462 0.7166936 
-0.60459644 -0.13474134 0.7850529 
-0.57548237 -0.73599106 -0.356563 
0.9604929 -0.25742176 0.105770886 
0.06569033 -0.06362581 0.9958095 
0.18844724 -0.5005036 0.8449756 
0.6900055 -0.44977143 0.5670962 
0.20661372 -0.18310206 0.96113706 
0.2732658 -0.60194606 0.75032437 
-0.30023155 -0.94039947 0.15971848 
0.6632258 -0.4135191 -0.62380576 
0.8479808 -0.5068369 -0.15506409 
0.75966305 -0.38867214 -0.5213886 
0.4326822 -0.71645755 -0.5472428 
0.8290676 -0.050390825 0.55687314 
0.81875014 0.22023128 0.5302326 
0.6046892 0.028014421 0.79596883 
-0.2714621 -0.6121514 0.7426837 
0.046735354 -0.39788684 0.9162434 
-0.35596555 0.23452272 0.9045926 
-0.63709414 0.7238303 0.2649169 
-0.95001113 -0.012547701 0.311964 
-0.7674035 -0.6314445 -0.11121887 
-0.60763687 -0.40724692 -0.68185586 
-0.8466717 -0.04131115 -0.5305096 
-0.13394468 -0.9893278 -0.05735295 
0.5382977 -0.6851069 -0.49077913 
0.4471353 -0.881732 -0.15039575 
0.6068416 -0.7492175 -0.26536104 
0.17596199 -0.97961366 0.09692448 
-0.17468934 -0.3111369 -0.93417215 
0.6265867 0.129117 -0.7685819 
0.12024338 0.071010575 -0.9902016 
0.26721317 0.40557277 -0.87413263 
0.69120926 -0.039787073 -0.7215586 
0.8254762 -0.4496724 -0.34115067 
0.9432485 -0.11737899 -0.3106517 
0.70096433 -0.62124175 -0.35029668 
0.10423105 -0.9601732 -0.25923595 
0.42880037 -0.7951892 -0.42872405 
0.84775305 -0.48939168 -0.20447645 
0.9134627 0.13252948 -0.38473618 
0.28355983 0.22584018 -0.93198174 
-0.3439144 -0.93889874 -0.013864818 
0.13583499 -0.65811974 -0.74055886 
-0.01793437 -0.7622956 -0.64698064 
-0.19578463 -0.83277166 -0.5178415 
-0.070423074 -0.9798061 -0.187138 
0.603985 -0.7601119 -0.2396498 
0.72165257 -0.440827 0.53375006 
0.66993356 -0.5291391 -0.5207696 
0.5626699 -0.631059 0.5340106 
-0.1556506 -0.2845573 0.94593877 
-0.67410845 -0.5159869 0.52852196 
-0.13561884 -0.9831645 0.122454464 
-0.09474711 -0.9824925 -0.16041055 
-0.33016598 -0.64093536 -0.69295913 
0.33249715 -0.026988706 -0.9427181 
0.7096377 -0.08566955 -0.69933903 
0.48017058 0.09139445 -0.87240094 
0.63183254 -0.6712162 -0.38762933 
0.46430388 -0.7291957 -0.5026884 
0.4264712 -0.5083677 -0.7481208 
0.21940047 -0.43733203 -0.8721263 
-0.2332078 0.016568372 -0.97228575 
-0.0871546 -0.6573948 -0.7484893 
0.3782642 -0.5067273 -0.7746895 
-0.066518486 -0.099201046 -0.99284166 
0.8808028 0.13653098 -0.4533715 
0.35536373 0.6623587 0.6595435 
0.07284775 0.9966413 0.03740815 
-0.49196908 0.3625959 0.7915117 
-0.9294806 -0.3378134 -0.14814845 
-0.4141563 -0.31119674 -0.8553545 
-0.2743541 -0.46859947 -0.8397288 
-0.3336488 -0.6431373 -0.6892409 
-0.0904625 -0.77454835 -0.6260124 
0.48103684 -0.22787231 -0.8465682 
0.27491596 -0.9453789 0.17515704 
-0.91375077 -0.4060737 -0.012797936 
-0.89665663 -0.33004892 -0.29508397 
-0.33633837 -0.5410284 -0.77082086 
-0.21960412 -0.16629955 -0.9613108 
-0.5266799 -0.46670434 -0.71048963 
-0.71749026 -0.6860753 -0.12045113 
-0.2184015 -0.4238039 -0.8790285 
-0.38800198 -0.8911874 0.2350306 
0.03429258 -0.99122804 0.12763649 
0.95758486 -0.25889036 -0.12651914 
-0.06584098 -0.13566408 -0.9885647 
-0.01375041 -0.88409233 -0.4671101 
-0.15600699 -0.940365 0.30228382 
0.18903367 -0.9578692 -0.21622398 
0.8455545 -0.12120254 -0.51994973 
0.13060394 -0.25751823 -0.95740634 
-0.017817868 -0.85198075 0.52326983 
0.22400965 -0.7359973 -0.6388488 
-0.56065875 -0.68676156 -0.46262348 
-0.5509756 -0.36529306 -0.7503245 
-0.70256764 -0.33043426 -0.63024753 
-0.60951996 -0.7925716 0.017771678 
-0.47111654 -0.465044 -0.74952215 
0.037653793 -0.5229857 -0.85150933 
-0.17033792 -0.71715695 -0.6757744 
0.3199708 -0.8596929 -0.39817974 
0.67747504 -0.7353839 0.015431469 
0.059462626 -0.9981074 -0.015678385 
-0.045526292 -0.9826527 -0.17978047 
-0.36863118 -0.92086506 0.12695895 
-0.73074675 -0.5551649 -0.3972421 
-0.414081 -0.5456164 -0.7285875 
0.09018916 -0.584334 -0.80648607 
0.7614135 -0.4824182 -0.43303853 
0.68381256 -0.727469 0.05647417 
0.43668342 -0.892456 0.11326961 
0.6187952 -0.17403238 -0.76603216 
0.65535307 -0.7074152 -0.26471895 
0.45486468 -0.7292225 -0.5112071 
0.3289586 -0.92950994 -0.16672602 
-0.5099457 -0.85243946 0.11533628 
-0.58940077 -0.7164163 -0.37330222 
-0.15123868 -0.809343 -0.56753045 
0.44178748 -0.8914991 0.100265734 
-0.45927697 -0.88257223 0.10065333 
-0.56323844 -0.82041514 0.09839485 
-0.16501185 -0.94600916 -0.2789944 
-0.053377695 -0.90021753 -0.43215653 
-0.0035023747 -0.9957372 -0.092169456 
0.14113434 -0.65769637 -0.73994374 
-0.70533526 -0.24998543 -0.6633322 
-0.24774939 0.21885166 -0.9437819 
-0.07558341 -0.36175174 -0.9292055 
0.3011363 -0.56859994 -0.7655136 
0.28401697 -0.4992504 -0.8185863 
0.1496443 -0.06639627 -0.9865081 
0.21304826 -0.16321748 -0.96331227 
-0.1533621 -0.053340115 -0.98672944 
0.34362128 0.28763926 -0.8939733 
-0.01147896 -0.6623313 -0.7491232 
0.24185829 -0.5683051 -0.7864694 
0.70803815 -0.45840502 -0.53716564 
0.027779425 -0.7982941 -0.60162693 
-0.24258567 -0.92970747 -0.27712142 
0.3951463 -0.8596155 -0.32391453 
-0.06465575 -0.6831037 -0.72745377 
-0.85553426 -0.50432396 -0.117126465 
-0.59621394 0.35664874 -0.71925706 
-0.3708153 -0.13813564 -0.91837615 
-0.057744607 -0.26751953 -0.96182066 
-0.43657342 0.012077687 -0.8995877 
-0.54889303 0.279172 -0.78789556 
-0.5094608 0.18472783 -0.8404317 
-0.5498745 0.37589657 -0.7458819 
-0.37844774 0.10033506 -0.92016864 
-0.8272258 0.11055435 -0.5508859 
-0.56106114 0.059153188 -0.8256581 
0.16094261 0.31156912 -0.9364946 
-0.17200573 -0.54687005 -0.8193578 
-0.3362167 -0.4043182 -0.8505794 
0.15146852 -0.5659282 -0.8104212 
-0.088021465 -0.611918 -0.78600806 
0.29993525 -0.6144278 -0.72973794 
0.6384788 -0.5152021 -0.57176197 
0.62959105 -0.5600478 -0.5384808 
0.2637931 -0.948606 -0.17481354 
-0.4681267 -0.811609 -0.34949708 
-0.16529956 -0.5202543 -0.83786124 
-0.5444016 -0.8053959 -0.23444521 
-0.92911273 -0.34599596 0.13052323 
-0.46795362 -0.86796993 -0.16627564 
0.17477031 -0.98243296 -0.065429136 
-0.29138374 -0.95658004 -0.007081398 
0.078596294 -0.97975737 0.18411477 
0.4445478 -0.89531344 0.028127572 
-0.20072791 -0.9236827 -0.3263719 
-0.17383082 -0.6007274 -0.7803265 
-0.43671095 -0.48252195 -0.75924706 
0.59368795 -0.47217813 -0.6516 
-0.3579442 -0.91767764 -0.17246366 
-0.43237412 -0.7022217 -0.5656301 
-0.08322188 -0.9839247 -0.15800755 
-0.09351498 -0.94464004 -0.31449988 
-0.48705807 -0.8672393 0.10329776 
-0.03758542 -0.93271273 0.35865617 
0.2129759 -0.86037385 0.46303147 
-0.23556311 -0.91933835 0.31516224 
-0.6421768 -0.76367766 -0.06637357 
-0.6116048 -0.74411196 -0.26876932 
-0.27590376 -0.6390969 -0.71793616 
-0.3904576 -0.592608 -0.70452726 
-0.46312404 -0.5815789 -0.6687916 
-0.0077033816 -0.557849 -0.8299067 
-0.24039073 -0.57799256 -0.7798314 
0.20104045 -0.12217291 -0.97193444 
-0.33299682 0.042515628 -0.94196904 
0.2508963 -0.119477056 -0.9606125 
-0.35431087 0.029062795 -0.93467605 
0.20353135 0.037488807 -0.9783505 
0.2610522 -0.21418838 -0.94126254 
0.36451834 -0.2105286 -0.9070856 
0.31912237 -0.5066288 -0.80092967 
0.39517465 -0.8416206 -0.3681193 
0.0041198754 -0.65993553 -0.75131106 
0.23835425 -0.8953232 -0.3762759 
0.54771936 -0.6363877 -0.54315215 
0.24491669 -0.5044587 -0.8279718 
0.19777334 -0.555901 -0.8073784 
0.7836615 -0.5723559 -0.2414199 
0.90391225 -0.4254386 -0.044100605 
0.96580195 -0.2572831 0.032124717 
0.67233396 -0.55907744 0.48517993 
-0.11131856 -0.73907554 0.66436106 
-0.55813086 -0.7712926 0.30593732 
-0.8036698 -0.4873266 0.34150797 
-0.70238054 -0.70224816 -0.11622879 
-0.36273775 -0.41506517 -0.8343514 
-0.2349534 -0.030032093 -0.9715426 
-0.2278693 -0.09942159 -0.96860266 
0.2715642 -0.23624793 -0.9329737 
-0.3230181 0.028984984 -0.94594884 
-0.05630397 -0.11281215 -0.99201983 
0.7048888 -0.20904954 -0.6778128 
0.67026585 -0.64735067 -0.3628786 
0.47363445 -0.83269596 -0.2868586 
0.34511307 -0.57752925 -0.7398358 
0.32595208 -0.69174147 -0.64439815 
-0.6365892 -0.60574085 -0.4773177 
-0.41137066 -0.9114559 -0.0047385315 
-0.45420477 -0.6559199 -0.6028824 
0.032293726 -0.10773306 -0.9936553 
0.7142964 -0.6736689 -0.18960722 
0.6189697 -0.7411991 -0.25980848 
0.99217623 -0.04344756 0.11704187 
0.7569779 0.59290457 0.27467903 
0.46085235 -0.3201098 0.82773477 
-0.38513222 0.7693996 0.5096054 
-0.2732101 -0.85987645 0.43124095 
-0.9354407 -0.012374584 -0.35326707 
-0.5915735 -0.73114216 -0.33981168 
-0.11554781 -0.4352447 -0.8928666 
-0.07021592 -0.71238595 -0.69826645 
0.59441036 -0.7947218 -0.122856595 
-0.043571904 -0.99109656 0.12581381 
0.35188925 -0.8904993 -0.28841826 
-0.09504824 -0.9413726 -0.32370296 
-0.32057944 -0.5619022 -0.76255804 
0.37530518 -0.8025346 -0.46377173 
-0.12816285 -0.984516 -0.119593434 
-0.121177174 -0.9737196 -0.19283772 
0.21377677 -0.91977584 0.32910782 
-0.118509755 -0.98704004 0.10820094 
0.24160309 -0.7307936 -0.63841116 
0.06175201 -0.989374 -0.13162793 
0.63058025 -0.76405764 -0.13632558 
0.06852816 -0.99450946 0.0790878 
-0.24227227 -0.9244034 0.29458898 
-0.094302654 -0.9189341 0.38297167 
-0.52691346 -0.83137697 -0.17656383 
-0.22280617 -0.9551592 -0.19500914 
0.50857556 -0.7545031 0.4148206 
0.685427 -0.46317488 0.5618352 
-0.5515419 -0.82809746 0.1002801 
-0.19667684 -0.54807264 0.8129789 
-0.16843638 -0.9804139 0.102067776 
0.10820238 -0.9860705 -0.12632236 
-0.5213322 -0.8529157 -0.027340643 
0.2750615 -0.5134887 -0.8128165 
-0.15710141 -0.5003296 -0.8514632 
0.9594566 -0.110553585 -0.25926986 
0.645026 -0.7322675 -0.21846227 
-0.18053277 -0.6852525 -0.70557564 
0.8556708 -0.45334983 -0.24960248 
0.70807433 -0.6899572 0.15029913 
0.66153383 -0.5229632 0.5374779 
-0.0016746027 -0.8481832 0.5297004 
-0.74376875 -0.27793083 0.60791653 
-0.6898703 -0.19405697 0.6974389 
-0.71174455 -0.6479477 0.27126265 
-0.86764276 -0.4159771 -0.2723219 
-0.98150206 -0.16548787 -0.09626821 
-0.7661255 0.1494282 -0.6250783 
-0.32067358 -0.25818583 -0.9113225 
0.1603113 -0.9094629 -0.38363734 
0.27882078 -0.9602182 0.015493762 
0.27746707 -0.9519765 -0.12943318 
0.21149136 -0.9677884 -0.136591 
-0.22376034 -0.15316375 -0.96253425 
0.65762633 0.01967857 -0.75308734 
0.34921223 0.17380846 -0.92078316 
0.46405086 -0.49616557 -0.7338097 
0.66416377 -0.68171126 -0.3068491 
0.89653385 -0.4064417 0.17615995 
0.89121723 0.34311548 -0.29665425 
0.78966004 -0.56024444 -0.2501263 
0.4741366 -0.78477955 -0.39914364 
0.50593334 -0.8579888 0.08880708 
0.8472636 -0.53116673 0.0025080992 
0.9362091 -0.24785018 -0.24916424 
0.6535951 -0.15422663 -0.740964 
-0.17383079 -0.7665597 -0.6181983 
0.0839012 -0.39777708 -0.91363776 
0.5360661 -0.415322 -0.73494273 
0.124654755 -0.9414753 -0.3131861 
-0.09023532 -0.99589294 0.007416295 
0.77515876 -0.61987185 -0.12201602 
0.6606265 -0.7410752 -0.11991761 
0.088620394 -0.9663732 -0.24139033 
-0.096994095 -0.83583736 0.5403408 
-0.7759361 -0.35478547 0.5215846 
-0.97154844 -0.04725069 -0.23208013 
-0.9455986 -0.28572193 -0.1555835 
-0.4494202 -0.6707977 -0.5899593 
0.38327515 -0.36977607 -0.8463839 
0.37731093 -0.18734042 -0.90694 
0.71553624 0.084428325 -0.693455 
0.97767377 0.024607887 0.20868303 
0.5646119 -0.8235624 -0.0543918 
0.6511983 -0.7328695 -0.19708635 
0.654959 -0.021691667 -0.7553531 
0.09234531 -0.5000951 -0.86103266 
-0.06255708 -0.81938434 -0.56982106 
-0.15232944 -0.64230597 -0.7511583 
0.7458313 -0.56290185 -0.35619834 
0.5259939 -0.018496059 -0.8502873 
0.876161 -0.48145792 -0.023244174 
0.09561182 0.616638 0.78141916 
0.2501607 0.5715781 0.78148454 
-0.62346387 -0.06085695 0.7794802 
-0.97574383 -0.19877999 -0.09170914 
-0.52274305 -0.0063507794 -0.85246664 
-0.06521277 -0.7184863 -0.6924772 
0.13443695 -0.84075165 -0.5244649 
-0.27890575 -0.8944017 -0.34965312 
0.48969582 -0.70116854 -0.5182285 
-0.2817329 -0.9588684 0.034611568 
-0.69153917 -0.54418135 -0.47501612 
-0.71681124 0.16882728 -0.6765198 
-0.72277385 -0.006665913 -0.6910525 
-0.23439413 0.59940004 -0.765362 
0.38494086 0.3623457 -0.84883815 
0.20438981 -0.535482 -0.8194412 
-0.32710353 -0.20244099 -0.9230498 
0.13231355 -0.66732335 -0.7329207 
-0.3085437 -0.9481162 0.07665859 
-0.37458006 -0.5237367 -0.76510763 
0.12214379 -0.0063759726 -0.992492 
0.13575678 -0.18708742 -0.97291756 
0.023010347 -0.9869202 -0.15955892 
-0.14240316 -0.37464127 -0.91616887 
0.19723588 -0.23879328 -0.950829 
-0.08676688 -0.2801892 -0.9560155 
0.16072246 -0.79884344 -0.57967013 
-0.06654813 0.39935866 -0.91437626 
-0.43627277 -0.4412469 -0.7841984 
-0.7137271 -0.183001 -0.67609495 
-0.6699863 -0.2678898 -0.69235355 
-0.64819795 -0.67749566 -0.34761915 
-0.88212514 0.33176944 -0.33434156 
-0.1373305 0.16290654 -0.9770373 
-0.6717545 -0.3999609 -0.6235201 
0.40636402 -0.735236 -0.5424909 
0.51379114 -0.8566399 0.046763703 
0.83072287 -0.5280245 -0.17632274 
0.3244173 -0.94494486 0.042810053 
-0.19147617 -0.7243328 0.6623284 
-0.8465114 -0.51817596 -0.122115 
-0.40048224 -0.85191905 -0.33741367 
-0.6676932 -0.7430434 0.045522682 
-0.10550754 -0.8286423 -0.5497456 
-0.0021060316 -0.9808527 -0.19473994 
0.11366938 -0.9716034 -0.20752387 
0.5549438 0.24979085 -0.79349977 
0.6591952 0.20772627 -0.7227112 
0.1346349 -0.36306775 -0.9219845 
0.7701131 -0.61968005 -0.15140203 
0.51886755 -0.85406196 0.03680593 
-0.3357818 -0.8737391 -0.35189563 
-0.05509706 -0.42206997 -0.9048875 
0.38715598 -0.9115915 0.13824414 
0.13970752 -0.8755202 0.46254325 
-0.32054603 -0.94541 0.05873912 
-0.6954214 -0.62569827 -0.353399 
-0.5523311 -0.78160846 -0.28985998 
-0.069487214 -0.8951031 -0.44041112 
-0.29496676 -0.8743368 -0.38539565 
-0.71046287 -0.06720741 -0.70051825 
-0.9099148 -0.17934981 -0.37401697 
-0.7010086 -0.032782074 -0.712399 
0.07380971 0.2881747 -0.9547291 
-0.28166482 0.4426476 -0.85130966 
0.034526754 0.1506191 -0.98798877 
-0.03441714 0.19723542 -0.9797519 
-0.060432635 0.1430711 -0.98786575 
-0.032850083 0.45009178 -0.89237785 
0.47098476 0.28122577 -0.8361133 
0.07854145 0.10422167 -0.99144804 
0.55651724 -0.7758153 -0.29732 
-0.30894724 -0.67124987 -0.6737769 
0.07050193 0.0027643077 -0.99750787 
0.3433104 -0.5126155 -0.78699636 
0.062193736 -0.9282442 -0.36673513 
0.16357471 -0.6381071 -0.7523715 
-0.027811216 0.17239718 -0.9846348 
0.1719956 0.26895508 -0.94767123 
-0.20550096 0.2818811 -0.93718326 
-0.57060206 0.6785949 -0.46251753 
-0.58888066 0.4829013 -0.6480941 
-0.31153852 -0.04430529 -0.9492001 
-0.3596754 -0.03226413 -0.93251956 
-0.10171399 0.33493817 -0.936734 
-0.11453816 0.92707956 -0.35693792 
-0.53133875 0.4793784 -0.69848084 
-0.79972875 -0.20508905 -0.5642449 
-0.49181697 -0.15407115 -0.85695875 
0.12668806 -0.26174656 -0.9567857 
0.10373234 -0.021808492 -0.9943662 
-0.029873807 0.1844996 -0.98237854 
0.41144437 -0.5369403 -0.7364841 
0.45180732 -0.78098947 -0.43119073 
0.23693748 -0.87122685 -0.4299121 
0.18428887 -0.9507235 -0.24932405 
-0.07606219 -0.9967335 0.027149046 
0.07034797 -0.82719904 -0.5574882 
-0.13991795 -0.7348313 -0.66366106 
-0.21146259 -0.53791314 -0.81604725 
-0.09787508 -0.9616745 -0.25613028 
-0.016018422 -0.98104477 -0.19311841 
-0.018560715 -0.79414916 -0.6074395 
-0.35734475 -0.9331639 -0.038858134 
-0.29982743 -0.8873259 -0.35036618 
-0.16041648 -0.44206554 -0.8825218 
0.3433946 -0.2692697 -0.89976335 
0.0692644 -0.8048613 -0.5894072 
-0.27290356 -0.9464007 -0.17277004 
0.31370682 -0.84999675 -0.42319444 
-0.39520052 -0.84441036 0.3616457 
-0.32045004 -0.9443477 0.074292004 
-0.6271215 -0.7470692 0.2204683 
-0.40185356 -0.91465545 -0.043810263 
-0.41297686 -0.90287864 -0.11941676 
0.056944847 -0.5756428 -0.815716 
-0.4642854 -0.7013851 0.5408309 
-0.6591383 -0.6007498 0.45236757 
-0.23492412 -0.95649153 -0.17301677 
-0.7462906 -0.58863896 -0.31073222 
-0.38913518 -0.7085082 -0.588719 
-0.8420365 -0.22967134 -0.48808363 
-0.5535724 -0.29269645 -0.7796708 
-0.3546394 -0.058438342 -0.9331752 
-0.27519763 0.08549803 -0.9575785 
0.60230464 -0.20388274 -0.77179074 
-0.28740954 -0.5765069 -0.76487625 
-0.20386475 0.1701105 -0.9641066 
-0.06479473 0.025549993 -0.99757147 
0.7043488 -0.14091423 -0.695727 
0.35040233 0.033555765 -0.935998 
0.29191723 -0.5711813 -0.7671613 
0.55997294 -0.60127723 -0.5699966 
0.006651634 -0.98952955 -0.14417742 
-0.055782344 -0.7734248 -0.63142884 
-0.4427086 0.14264156 -0.88524723 
0.0768492 -0.03613508 -0.9963878 
0.10100605 0.24377345 -0.96455806 
0.13181369 -0.7326273 -0.66774434 
0.26985297 -0.82350266 -0.49902183 
0.9247701 -0.37981117 -0.023318535 
0.7237165 -0.5672411 0.39302936 
0.33030966 -0.7250355 0.60433364 
-0.16063379 -0.9765073 -0.14363246 
-0.7194024 -0.32341567 -0.61470526 
0.019742088 -0.49740314 -0.86729485 
-0.6311098 -0.28834596 -0.72010916 
-0.3486931 -0.024157263 -0.9369256 
0.122132264 -0.32429788 -0.9380377 
0.1737109 0.063626386 -0.98273915 
-0.06308654 -0.5027706 -0.8621148 
-0.09596158 -0.7306116 -0.6760164 
0.61329764 -0.5709287 -0.5458081 
0.5726158 -0.7747246 -0.268166 
-0.5043882 -0.4051827 -0.76250863 
-0.31009313 -0.73379314 -0.60447496 
-0.45523587 0.25057125 -0.8543854 
-0.52358717 -0.3661878 -0.7692614 
-0.39914912 -0.57176757 -0.7167719 
-0.5596474 -0.56022805 -0.6106876 
0.046967547 -0.13241553 -0.9900809 
0.7930065 -0.53252417 -0.29590356 
0.74119276 -0.62963504 -0.23279414 
0.79514265 0.101465 -0.5978739 
0.994494 -0.063658915 -0.083241396 
0.3563183 -0.17137644 0.9185138 
-0.53875935 -0.22226943 0.8126098 
-0.44128746 -0.707964 0.5514094 
-0.9633595 -0.19830771 0.18058948 
-0.019100556 -0.73484516 -0.67796594 
0.3735469 -0.8525166 -0.3656205 
0.08150676 -0.9807629 -0.17737179 
0.0865614 -0.94114643 -0.3267272 
0.47341073 -0.789061 -0.39149097 
0.034868754 -0.4178962 -0.90782535 
0.43352878 -0.7388867 -0.51584804 
-0.45182392 -0.6818862 -0.5752273 
0.5680024 -0.40773538 -0.71493024 
-0.3307812 -0.46824232 -0.81934917 
0.42638382 -0.8347962 -0.34829897 
-0.1506317 -0.8822521 0.44602853 
-0.787713 -0.6087675 -0.094395585 
0.21559149 -0.1513992 -0.96467537 
0.33471775 -0.4954606 -0.8015502 
0.77287567 -0.42505822 -0.47115698 
0.6928106 -0.6429455 -0.3265496 
0.123004116 -0.93237776 0.33991414 
-0.19192395 -0.89985996 -0.39168516 
0.0023513306 -0.9434315 -0.3315592 
0.31496423 -0.9443898 -0.09447466 
0.62438905 -0.68371165 -0.37772575 
0.6334064 -0.71645635 0.29238102 
0.27506256 -0.96086603 -0.032820232 
0.37485164 -0.53809255 0.75494546 
-0.53822625 -0.5101065 0.6708979 
-0.18069375 -0.90692246 -0.38058046 
-0.3869888 -0.88883805 -0.24537036 
0.3957502 -0.6471719 -0.65157527 
0.50075585 -0.83532715 0.2268749 
0.81102544 -0.30040783 -0.5019888 
0.49875984 -0.6292726 0.59603256 
0.41989756 -0.7681077 -0.48342195 
0.73129255 -0.61435634 -0.2962728 
0.26335764 -0.75291127 0.6031313 
-0.12099869 -0.8409327 0.5274388 
0.03546277 -0.8087262 0.5871154 
-0.5644129 -0.81461036 0.13359693 
-0.7679689 -0.2961438 0.5679109 
-0.9981057 -0.05879744 0.018110577 
-0.9043223 -0.17936957 0.38733414 
-0.55187416 -0.23364754 0.80052716 
-0.7555242 -0.07357501 -0.6509762 
-0.41611832 -0.90224296 0.113151476 
-0.32618034 -0.90742815 -0.26491612 
-0.063072205 -0.9754913 -0.21080497 
-0.42252913 -0.86790955 0.26115552 
-0.47919136 -0.4818948 -0.73358923 
-0.5000111 -0.11047708 -0.85894334 
0.34678152 -0.4030404 -0.84693635 
0.06298308 -0.2124102 -0.97514874 
0.049967002 0.26256815 -0.9636189 
0.72054434 -0.5562776 -0.41396993 
0.85226226 -0.11887354 -0.5094294 
0.7774986 0.2300952 -0.58527964 
0.6646147 -0.71506757 -0.21671574 
0.5128637 -0.8164849 -0.2651852 
0.2715966 -0.788505 -0.5518108 
0.73277587 -0.59039056 -0.338347 
0.5318752 -0.8421065 -0.0892496 
0.34460762 -0.89460856 -0.28446674 
-0.17004666 -0.20842141 -0.96314317 
0.20873311 0.4199743 -0.88320553 
0.44615388 -0.55686784 -0.7006033 
0.9726362 -0.15381129 -0.17412886 
0.5735217 -0.8180831 0.042578347 
0.9431427 -0.32443622 0.0722706 
0.48243594 -0.4637632 -0.74308765 
0.5831659 -0.53476393 -0.6115105 
-0.328589 -0.9069099 0.2637118 
-0.80754185 -0.5588337 -0.18862951 
-0.7404533 -0.60736275 -0.28781837 
-0.95161104 -0.26933596 -0.1479684 
-0.9106486 -0.40188003 -0.095976956 
-0.6744098 -0.38585657 -0.6295126 
0.35286957 -0.009453872 -0.93562484 
0.4031842 -0.27486715 -0.8728634 
0.92773044 -0.37142026 0.036921997 
0.46517158 -0.8658658 -0.18409741 
0.5391502 -0.81710076 -0.20411642 
0.40939623 -0.10591951 -0.90618753 
0.15419675 -0.037925765 -0.9873121 
0.2738315 -0.37378028 -0.88617426 
0.49800742 -0.06740601 -0.86454904 
0.82495993 -0.34922743 -0.44438893 
0.9802878 -0.18100402 -0.07920593 
0.8447412 -0.53026927 -0.07229722 
0.53050476 0.08788874 0.8431134 
0.92922556 -0.048092645 0.36637023 
0.16913971 -0.161077 0.9723405 
-0.8644269 -0.2671036 0.42593628 
-0.65996504 -0.33831447 -0.67081255 
-0.17885609 -0.2530254 -0.95078325 
-0.250136 -0.64811474 -0.71929085 
-0.010037485 -0.87279236 -0.48798868 
-0.0052106366 -0.67015904 -0.74219924 
-0.19993643 -0.6560109 -0.72778785 
-0.24163614 -0.08550416 -0.9665925 
-0.15510389 -0.066586345 -0.9856516 
-0.021652622 0.19761056 -0.98004144 
0.039514042 0.549139 -0.8347964 
-0.3047398 -0.04620409 -0.9513143 
-0.17478447 -0.6583375 -0.732149 
-0.5249172 -0.15986852 -0.8360049 
-0.29668406 -0.059896 -0.95309556 
-0.16386284 -0.46213168 -0.8715408 
0.43762314 0.17533052 -0.88189864 
0.45682824 0.21281746 -0.86372256 
0.34100178 -0.026427433 -0.9396911 
0.48167983 -0.53397596 -0.69487715 
0.42547283 0.19775434 -0.88310033 
0.7524841 0.5131859 0.412805 
0.7228343 -0.689092 0.051603045 
0.48790437 -0.8278382 0.27682704 
-0.91952395 -0.36044845 -0.15669264 
-0.8689259 0.36632103 -0.33283147 
-0.72811216 0.49131438 -0.47797802 
-0.58290493 -0.10438843 -0.8058071 
-0.12603019 -0.14970236 -0.9806659 
-0.47001082 -0.4283047 -0.77178043 
-0.13920304 0.0046428777 -0.99025303 
-0.5172433 -0.25291312 -0.8176151 
0.32524583 -0.4846157 -0.8120116 
0.6756901 -0.6435429 -0.35957682 
0.74075204 -0.6717089 0.009679063 
0.5126479 -0.7891817 0.33820742 
-0.04082879 -0.9877559 0.1505701 
0.030454542 -0.9188443 0.39344344 
-0.35231316 -0.9139665 0.20134716 
-0.23821615 -0.8929771 -0.38189662 
-0.07238653 -0.762722 -0.6426628 
-0.09827553 -0.5314923 -0.841343 
0.19305286 -0.2628908 -0.9453143 
0.28279015 -0.13240205 -0.9499998 
0.48372135 0.048136953 -0.8738974 
0.5005291 -0.4649374 -0.7302766 
0.44396517 -0.6857773 -0.5767187 
0.026756063 -0.57531804 -0.8174921 
0.14087726 -0.9451653 -0.29464623 
-0.12678242 -0.91809845 -0.37552828 
-0.28652617 -0.8738944 0.39269784 
0.03351098 -0.8925146 -0.44977194 
-0.058823045 -0.97778565 -0.20118402 
-0.38711601 -0.4652727 -0.7960292 
-0.7422313 -0.56511927 -0.3601846 
-0.03586519 -0.9988231 -0.032652818 
-0.60827404 -0.033603486 -0.79301554 
-0.3196989 0.029139115 -0.947071 
-0.70428485 0.21636397 -0.67614317 
-0.5113035 -0.15296468 -0.8456776 
0.07738453 -0.36596698 -0.92740494 
0.1505551 -0.037734706 -0.98788124 
-0.15160733 -0.4514396 -0.8793279 
0.19689909 -0.22909573 -0.95328164 
0.1499135 -0.5290763 -0.83522713 
0.3125807 0.52876055 -0.78911704 
0.36018157 0.10570731 -0.9268739 
0.3596827 -0.03655359 -0.93235844 
0.43872672 -0.13969216 -0.8876965 
-0.4029136 -0.29468837 -0.8664984 
0.213856 -0.036400497 -0.9761868 
0.4607353 -0.34302655 -0.81856936 
0.018906543 0.3030464 -0.9527883 
-0.08926271 0.2771696 -0.95666564 
-0.21481378 0.396456 -0.892568 
0.521607 0.34750125 -0.7792105 
0.05727441 -0.058174394 -0.9966622 
-0.24683933 -0.007914103 -0.9690241 
-0.2523385 0.33262965 -0.9086709 
-0.4812799 -0.49077928 -0.72629565 
-0.16987753 0.56389415 -0.8081863 
-0.5649567 0.30945376 -0.7648936 
-0.19490705 0.360068 -0.912339 
-0.3603248 0.34176248 -0.86796576 
-0.22023045 0.46857694 -0.8555315 
0.6100354 0.0045692804 -0.792361 
0.42393854 0.35824043 -0.8318293 
-0.27977112 -0.12782817 -0.9515189 
-0.16942926 -0.1994562 -0.96514815 
-0.34758335 -0.18851076 -0.91850394 
0.56490004 -0.6797559 -0.467782 
-0.18798353 -0.7813578 -0.59509844 
-0.41463906 -0.7412974 -0.5277809 
-0.51901 -0.72961104 -0.44530496 
-0.27479535 -0.74196386 -0.61153686 
-0.14471908 -0.3465762 -0.9267909 