# OOMMF: rectangular mesh v1.0
# Segment count: 1
# Begin: Segment
# Begin: Header
# Desc: Time (s) :  5.410000000000008e-07
# Title: m
# meshtype: rectangular
# meshunit: m
# xbase: 2e-09
# ybase: 2e-09
# zbase: 5e-10
# xstepsize: 4e-09
# ystepsize: 4e-09
# zstepsize: 1e-09
# xmin: 0
# ymin: 0
# zmin: 0
# xmax: 1.024e-06
# ymax: 1.024e-06
# zmax: 1e-09
# xnodes: 256
# ynodes: 256
# znodes: 1
# ValueRangeMinMag: 1e-08
# ValueRangeMaxMag: 1
# valueunit: 
# valuemultiplier: 1
# End: Header
# Begin: Data Text
-0.2675306 -0.3007144 -0.9154225 
0.75512934 -0.2960154 -0.5849398 
0.9349557 -0.16225185 0.31548718 
0.15205906 -0.82852024 0.5389178 
0.021161266 -0.65628123 0.7542196 
-0.8472077 -0.41985673 -0.3255143 
-0.99326825 0.0973998 -0.06270132 
-0.37312362 -0.7936468 0.4805241 
-0.8382393 -0.46499366 0.28484344 
-0.8911902 0.281467 -0.35574773 
-0.41117495 -0.4875728 -0.77019995 
-0.03821294 -0.8397758 -0.541587 
-0.064373456 -0.6689824 -0.7404854 
-0.49744844 -0.790105 -0.35816094 
-0.09751913 -0.97991663 -0.17393541 
-0.9263485 -0.376423 0.013576389 
-0.096785955 -0.5407267 -0.83561194 
-0.5906012 -0.28450096 -0.7551487 
-0.29270473 -0.73862237 -0.6072569 
-0.01624476 -0.3855115 -0.92256004 
0.08047692 -0.31844422 -0.9445194 
-0.22273488 -0.9199768 -0.3225398 
-0.23783566 -0.971182 -0.015487568 
0.64684874 0.2936113 -0.7038318 
-0.26710227 0.83592683 -0.47946084 
-0.55669 -0.6551512 -0.5107575 
0.6252634 -0.35821435 -0.69334567 
0.39526224 -0.35871524 -0.8456307 
0.07713566 -0.8673631 -0.4916618 
-0.073956564 -0.9971829 0.012524134 
0.62594587 -0.34287494 -0.7004489 
0.2642141 -0.8639871 -0.42862257 
0.4911733 0.018003684 -0.87087584 
0.5096203 -0.767755 -0.38838053 
-0.0008110184 -0.94206476 -0.33543035 
-0.049716506 -0.9965824 0.0659677 
-0.00838182 -0.86904585 -0.4946606 
-0.25469866 -0.54918885 -0.79593986 
0.08782948 -0.22709174 -0.96990484 
-0.3240878 0.12712218 -0.9374472 
-0.114034005 -0.04939003 -0.9922485 
0.3048243 -0.033492852 -0.9518196 
0.42560157 -0.3590445 -0.83063257 
0.27233905 -0.89183867 -0.36118588 
-0.72530603 -0.4688474 -0.5040965 
-0.6127601 -0.78121054 -0.119311385 
-0.88719743 0.2185248 0.4063591 
-0.45917508 -0.12177845 -0.8799592 
-0.72759223 -0.08617928 -0.68057525 
-0.16005869 -0.53890324 -0.8270215 
-0.2321058 0.24922557 -0.94022 
0.40271604 0.281791 -0.8708696 
0.9756411 0.20943911 -0.06526754 
0.6390868 -0.13726634 -0.7567867 
0.4239176 0.2964093 -0.8558245 
0.48537692 0.21637481 -0.8471075 
-0.6686399 -0.60087 -0.4380364 
0.13876663 0.36427543 -0.9208948 
0.4283783 -0.022629779 -0.90331614 
0.93878305 0.34230766 -0.03888311 
0.9317304 -0.35416284 0.0802949 
0.90345144 -0.0702735 0.4228914 
0.7364918 -0.16915226 0.65495604 
0.6726966 -0.16514555 0.7212533 
-0.21519095 0.35223964 0.9108349 
-0.56385297 -0.6523028 0.50652844 
-0.2714385 -0.8103549 0.5192748 
-0.49455622 -0.48803025 0.7191944 
0.014952422 -0.9261084 -0.37696093 
0.054059625 -0.88963574 0.45345983 
-0.3515096 -0.7991623 0.48762745 
0.88870114 -0.45694652 0.037552133 
0.2702143 -0.51856405 -0.8112187 
-0.0801114 -0.74080056 -0.66693085 
-0.16915478 -0.98356146 -0.06319585 
-0.10137395 -0.86015713 -0.4998531 
-0.4774615 -0.62029225 -0.6223086 
-0.48662212 0.123366356 -0.8648582 
-0.67409515 0.03107329 -0.7379907 
-0.38342884 -0.42143553 -0.8218117 
-0.38944042 -0.88079995 -0.26930946 
-0.47164693 -0.55534166 -0.6849416 
-0.31590083 -0.33502385 -0.8876743 
-0.94714314 0.31954676 -0.028458664 
-0.38820386 0.55455744 -0.7360461 
-0.24450749 0.3390681 -0.9084322 
0.48543417 0.6010359 -0.63490903 
0.7313647 -0.6437838 -0.22505136 
0.6736289 -0.64621484 -0.35865107 
0.41705415 -0.29526728 -0.8595831 
0.9710563 -0.007663422 -0.23872823 
0.8281105 0.319642 0.46050212 
-0.030761817 0.3697706 0.9286137 
-0.06250789 0.74476975 0.6643876 
-0.6189499 0.48671037 0.61645293 
-0.22264467 -0.04913104 0.97366095 
-0.21295077 -0.90258944 0.3741446 
0.43497327 -0.61685073 -0.65596765 
0.76851124 -0.5816514 0.2665935 
-0.58537704 -0.75604266 -0.29280248 
-0.48083854 -0.8517124 -0.20827949 
-0.023756621 -0.98936063 -0.14353107 
-0.2715182 -0.838781 -0.47193694 
-0.19427446 -0.834467 -0.5156766 
0.123061806 -0.34289604 -0.9312777 
0.42308122 -0.17129505 -0.889753 
0.18839143 -0.9312888 -0.3117852 
0.27788845 -0.8838133 -0.3763671 
0.7783079 -0.5542818 -0.29497206 
-0.41689932 -0.61311084 0.67103666 
-0.8148327 -0.29049265 0.50165904 
-0.8714234 -0.2118151 0.44244274 
-0.8833675 -0.44821775 0.13697688 
-0.9230712 -0.12645492 0.3632474 
-0.4999435 -0.8453844 0.18810055 
-0.2611691 -0.8720156 -0.41398028 
-0.2272707 -0.59366274 -0.7719538 
0.3927912 -0.91114306 0.12463358 
0.54006034 -0.7520964 0.37773782 
0.008726092 -0.99016917 -0.13960315 
0.009491122 -0.9319613 -0.36243385 
0.12879148 -0.9123914 -0.38852897 
0.092340626 -0.9855292 -0.1421459 
0.8794208 0.026848722 -0.47528744 
0.2588368 -0.4641574 0.84709 
0.10947644 -0.0948373 0.98945487 
-0.55538476 -0.11964346 0.8229419 
-0.14646249 -0.7653075 -0.6267801 
0.67426723 -0.5546624 -0.48755866 
0.46570793 -0.046724122 -0.8837042 
-0.38848314 -0.8655972 -0.315947 
-0.76826316 -0.02095098 -0.6397912 
-0.47997454 -0.66282994 -0.57470083 
0.6083696 -0.2307582 -0.7593663 
0.8037328 -0.11051729 -0.58463615 
0.51308906 -0.8579561 0.025513025 
0.23707175 -0.94151616 0.23946694 
0.57108676 -0.6207724 -0.5371234 
0.71190876 -0.64634955 -0.27462396 
0.3401735 -0.3727648 -0.8633241 
0.6974045 -0.7102925 0.095454425 
0.44863144 -0.56774515 0.690214 
-0.112538405 -0.3616906 0.92548096 
0.7782675 -0.105359085 0.6190309 
0.025368117 -0.078974985 0.9965538 
-0.54281986 -0.28811878 0.7888816 
-0.9395449 -0.31689078 0.12975197 
-0.8253302 -0.15986423 0.5415475 
-0.0582959 -0.9512172 -0.3029645 
-0.34848133 -0.7647254 -0.54199266 
0.50816756 -0.8120269 -0.28701577 
-0.28091455 -0.7710948 -0.5714018 
-0.78010803 -0.5319132 0.32939318 
-0.41855025 -0.79080796 -0.4465854 
-0.4056738 -0.6035728 -0.68638813 
-0.25277784 -0.3826629 -0.88863516 
0.12194018 -0.8232617 -0.55441034 
-0.042463228 -0.99598765 0.07877512 
0.29278907 -0.94948554 -0.11292404 
0.37126362 -0.8673136 0.33155757 
0.52687204 -0.8474008 0.06570985 
0.08652622 -0.9906022 -0.105927415 
0.39309752 -0.72880876 -0.56063545 
0.7671962 -0.4150319 -0.48903847 
0.53605086 -0.28612122 -0.7942192 
0.5684607 -0.16951175 -0.8050579 
0.36397153 0.25206146 -0.8966548 
0.6441006 0.27856743 -0.71241474 
0.91480076 -0.13638522 -0.38018268 
0.3977928 -0.7063286 0.58554333 
0.23550282 -0.32364383 0.9164023 
0.8143084 0.5168427 0.26415038 
-0.21508321 0.8946191 0.39165774 
-0.8428593 0.40027326 0.35967955 
-0.827726 -0.4479314 -0.337975 
-0.78352875 -0.46304289 0.4143359 
0.16446818 -0.98328334 -0.07812929 
0.11505268 -0.976056 -0.1846015 
0.35424802 -0.9348589 -0.023390234 
-0.07188092 -0.7548051 0.65199894 
0.6833781 -0.6458159 -0.34046492 
-0.046289597 -0.8562771 -0.51443833 
0.1793727 -0.08526655 -0.9800792 
0.4547738 -0.01727117 -0.89043945 
-0.27364418 -0.38161933 -0.88288474 
-0.2784273 -0.34990358 -0.89445275 
0.38922477 0.13502261 -0.91119325 
-0.5204475 0.24078591 -0.8192416 
0.06447805 0.07013611 -0.99545145 
0.054874774 0.8206141 -0.56884223 
0.3991025 0.2969227 -0.8674989 
0.34895733 -0.10593783 -0.93113166 
-0.72267616 -0.1313966 -0.67858243 
-0.19503166 -0.15247573 -0.9688724 
-0.2646308 -0.017017521 -0.9641997 
0.7586191 0.52065796 -0.39167896 
0.41147158 -0.12022758 -0.90345806 
0.9736331 -0.08074025 -0.21335357 
0.952847 0.0046438794 -0.30341554 
0.983979 0.02759765 0.17613566 
0.6499608 -0.6135347 0.44847092 
0.03252094 -0.97733873 0.20916852 
-0.48276606 -0.71115756 -0.5110694 
0.0140083255 -0.9989376 0.043903552 
-0.0761424 -0.9800391 0.1836455 
-0.6161111 -0.6936089 0.37324762 
-0.3586889 -0.65918064 0.6609261 
-0.47149268 -0.87887317 -0.07264068 
-0.49558946 -0.85912687 0.12764147 
-0.35164323 -0.88290954 -0.31115553 
-0.21362461 -0.2117342 0.9536945 
-0.31544277 -0.719471 0.6187548 
-0.1051903 -0.82668436 -0.552746 
0.011168641 -0.3587956 -0.9333493 
0.57962364 -0.49505886 -0.64726603 
0.919554 0.114674516 -0.37585953 
-0.02551015 0.037839614 0.9989582 
0.45154664 -0.49163255 0.74458253 
0.95630735 0.041271344 0.28943568 
0.48874658 0.4248342 0.76199925 
0.21519482 0.28202516 0.9349616 
-0.19274701 -0.15126929 0.96951854 
-0.36792433 -0.60921776 0.7024852 
-0.59699523 -0.74807036 0.289806 
-0.4718519 -0.54493165 -0.69311285 
0.3459705 -0.17705907 0.9213873 
0.40158755 -0.11202157 0.9089437 
0.3738389 -0.8580006 0.35224935 
0.6708735 0.16748619 0.7224107 
0.4761503 0.21004319 0.8539103 
-0.0006984102 -0.7791737 0.62680775 
0.48876968 -0.8566539 0.16507101 
-0.29383478 -0.88148135 0.36966455 
-0.4525143 -0.20573506 0.8677004 
-0.05013872 -0.98436505 -0.16885383 
-0.21794456 -0.6357164 0.7405166 
-0.63997716 -0.6575901 0.3974978 
0.30333364 -0.40473837 0.86265624 
0.12703618 -0.87260467 0.47161722 
-0.66489935 -0.42102227 0.6169677 
-0.5672937 -0.5702434 0.5941384 
-0.99275625 -0.11945569 -0.012857788 
-0.93129015 0.31748062 -0.17861927 
-0.65166366 0.1892266 -0.73452556 
-0.99754995 0.06945207 -0.008397897 
-0.55098575 0.29025823 -0.7824098 
-0.89522755 -0.01776044 -0.44525522 
-0.85840136 -0.14701465 -0.491461 
-0.5067277 -0.51305604 -0.6928208 
0.43630886 0.06857208 -0.8971804 
-0.18553005 0.0068503 -0.98261476 
0.60507596 -0.51038206 -0.6110592 
0.6183562 -0.7750558 -0.13009241 
0.57715976 -0.7301334 -0.36577564 
0.97526675 -0.1577574 0.15481444 
0.30492753 -0.5820403 0.7538225 
-0.12704054 0.06782367 -0.989576 
0.537741 -0.4311155 -0.7245509 
0.47409424 -0.8737584 0.1085405 
0.03729727 -0.9826132 0.1818795 
-0.8254811 -0.51897347 0.22191773 
-0.45796084 -0.8488611 0.26402074 
-0.796269 -0.599437 0.08143182 
-0.6086579 -0.69076955 0.3903498 
-0.70754504 0.37837902 -0.5968329 
-0.9403681 -0.30555746 -0.14947401 
-0.49730167 -0.7536163 -0.42982984 
-0.028590241 -0.84063387 -0.54084885 
0.2687367 -0.77735984 -0.56876385 
-0.17861266 -0.64082074 -0.7466233 
0.36436674 -0.5827044 -0.72642446 
0.7743215 -0.5940843 0.21792194 
0.14116581 -0.44522825 -0.88421947 
-0.7379729 -0.0046777553 -0.67481416 
0.042467996 -0.8717908 -0.48803413 
-0.28359193 -0.47037017 -0.83566 
-0.09551188 -0.73803633 -0.667967 
0.051205527 -0.6623929 -0.74740463 
0.332292 -0.5599999 -0.758935 
0.4912329 0.39043245 -0.7786223 
0.6037064 0.46562916 -0.64709204 
-0.016883792 -0.4110135 -0.91147286 
0.47292772 -0.5665499 -0.67480415 
0.78942287 -0.5259337 -0.3165525 
0.46913907 -0.23500328 -0.8512826 
0.16512743 -0.78056794 -0.60286546 
0.60361624 -0.59022903 -0.5359825 
-0.20310622 -0.6098993 -0.7660097 
-0.14051962 -0.5210078 -0.84190565 
0.24338636 0.025720958 -0.9695884 
-0.5186682 -0.8369053 -0.17485096 
-0.37096238 -0.7625058 -0.53006786 
-0.10308203 -0.71701455 -0.6893942 
-0.3693414 -0.5547001 -0.7455836 
0.3449453 -0.57316196 -0.74330217 
0.3381618 0.09791475 -0.9359805 
0.10403663 -0.2629931 -0.9591721 
-0.36278874 -0.28450313 -0.8873795 
0.19209057 -0.28440782 -0.9392623 
-0.25261882 -0.7991327 -0.54550046 
-0.7652127 -0.32469478 -0.5558982 
-0.6117448 -0.53673244 -0.58110815 
-0.9164325 -0.27356127 -0.29208872 
-0.785364 -0.25120458 -0.5657736 
-0.0926636 -0.35151365 -0.9315856 
-0.18668845 -0.19791164 -0.96227777 
-0.20944574 0.26719868 -0.94060487 
-0.09167746 0.21177115 -0.97300994 
0.6436823 0.39550143 -0.6551732 
0.922682 0.10648479 -0.3705658 
0.7093883 0.59553224 -0.37697428 
0.38472942 0.53237766 -0.7540275 
0.898734 -0.18162407 -0.39911154 
0.5780523 -0.036300108 -0.815192 
0.11589593 0.18750146 -0.97540325 
0.79902804 0.5485317 -0.24630718 
0.5588105 -0.6163124 0.5548784 
0.91654605 -0.1059756 0.3856326 
0.758758 -0.035915818 0.6503817 
0.28326485 -0.10907069 0.95281935 
0.24598375 -0.4520787 0.8573895 
-0.3057494 -0.54798794 0.7786055 
0.008963869 -0.95003366 0.31201866 
-0.18699504 -0.8669654 0.46195647 
-0.32648656 -0.94424486 0.042522047 
0.21261889 -0.89006984 -0.40319833 
-0.098306656 -0.9869527 -0.12751561 
-0.87505144 -0.42913285 -0.22389714 
-0.08855849 -0.46439785 -0.8811879 
0.29743996 -0.7680275 -0.56715375 
-0.13611309 -0.9902435 -0.02985122 
-0.07591794 -0.99500096 -0.064881064 
-0.7747505 -0.4807407 -0.41067028 
-0.604164 -0.29152304 -0.74162 
-0.9694216 0.10889197 -0.2199188 
-0.57852894 0.11119362 -0.80804724 
-0.6921821 -0.5316218 -0.48812118 
0.09043146 -0.00076012197 -0.9959025 
0.38591665 0.38532823 -0.83820677 
-0.28418192 -0.2342088 -0.9297241 
-0.50157905 -0.06840031 -0.8624036 
-0.53311634 0.2030056 -0.82132566 
0.21984446 -0.18625571 -0.95758927 
0.70273685 -0.7006198 -0.12366429 
0.6854412 -0.63564366 -0.3551445 
0.9785276 0.2059436 0.008428747 
0.5417892 0.30227727 0.7842786 
0.6720815 0.16964117 0.7207832 
0.0700601 0.23943 0.96838266 
0.10249966 0.12775572 0.986495 
-0.14943792 -0.56906533 0.8085995 
-0.4402689 -0.31866455 0.8394143 
-0.48760152 -0.84312105 0.22669734 
0.3230584 -0.73930734 -0.5908113 
0.36512923 -0.37921035 -0.8502236 
-0.16810648 -0.48326656 -0.859182 
-0.109085545 -0.9464334 -0.30391464 
-0.31812584 -0.90244603 -0.29049465 
-0.578353 -0.71422523 -0.3941956 
0.054932643 -0.9171729 -0.39468518 
-0.49801952 -0.46950644 -0.72906816 
-0.013387685 -0.30840194 -0.951162 
-0.019996544 -0.8897836 -0.45594454 
0.6558147 -0.7539425 0.038441613 
0.18042007 -0.7325779 0.6563371 
-0.92219716 -0.23253202 0.30900052 
-0.90880096 -0.30476984 0.28494933 
-0.8855412 -0.24877483 0.39233652 
-0.9544472 0.22933859 0.1908784 
-0.7688776 -0.5947549 0.23472072 
-0.4913877 -0.6955225 -0.5242009 
0.37192124 -0.82476455 -0.4259554 
0.68087035 -0.19107042 -0.7070415 
0.822301 -0.36430323 -0.43715498 
-0.23371936 -0.96814245 0.08986433 
0.24357988 -0.9627969 -0.117008656 
0.4041432 -0.88079494 -0.24671562 
-0.10245568 -0.9829448 -0.15271728 
-0.5693777 -0.77709687 -0.26819685 
-0.3231607 -0.6760593 0.66220164 
0.08204053 -0.86683244 0.49180365 
0.14827175 -0.9661369 0.21117528 
-0.64686745 -0.44381273 -0.62015545 
-0.09106005 -0.96121705 -0.26032653 
-0.08310119 -0.943625 -0.3204156 
-0.4192053 0.014478838 -0.907776 
-0.33364037 -0.8130757 -0.47706625 
-0.3491483 -0.45694876 -0.8181036 
-0.271207 -0.43738243 -0.85740507 
0.5233226 -0.03374153 -0.8514664 
0.7419634 0.034260977 -0.6695645 
0.5237851 -0.70865273 -0.4727162 
0.28248286 -0.92844397 0.24123688 
0.7958424 -0.54646784 -0.2607829 
0.8533078 -0.5143619 -0.08542654 
0.90125144 -0.36708945 0.23019835 
0.5613843 -0.740324 0.3698216 
0.3778425 -0.8583182 0.34716687 
-0.4084141 -0.80070895 0.43825018 
0.18381993 -0.23516715 0.9544143 
-0.44515777 0.16676931 0.87978554 
-0.55009305 -0.2520185 0.7961686 
-0.89901185 -0.42288336 -0.11378717 
-0.6167899 -0.10048953 -0.7806871 
-0.19812965 -0.9042991 -0.37813735 
0.7021242 -0.543676 -0.459824 
0.38170597 -0.76222026 -0.522801 
-0.19033349 -0.9366933 -0.2939027 
-0.2076284 -0.9782075 -0.00071785063 
-0.21764782 -0.72211975 -0.6566373 
0.3771367 -0.82030815 -0.42995653 
0.7809876 -0.27640435 -0.56005263 
-0.026472641 -0.37120345 -0.9281742 
0.18025057 0.025664017 -0.9832859 
0.34331527 -0.09456231 -0.93444777 
0.46712795 -0.65938306 -0.5890718 
0.8000581 -0.5506402 -0.23812257 
0.9617393 -0.2664602 -0.0636911 
0.732998 -0.66850555 0.12575476 
0.45006937 -0.6646282 -0.5964117 
-0.15140945 -0.2724978 -0.9501685 
0.24474242 -0.65917677 -0.7110465 
0.12394513 -0.05550331 -0.9907356 
0.10949504 0.57757956 -0.8089578 
0.5474438 -0.469885 -0.6924691 
0.5242328 -0.8514416 -0.015069195 
0.6186126 -0.5931302 0.5152817 
0.6003545 0.5608138 0.57014257 
-0.23516758 0.07555386 0.9690138 
-0.08458946 -0.44958556 0.88922304 
-0.81724787 -0.06929509 -0.572105 
-0.72924036 -0.6618951 -0.17350352 
0.023487223 -0.54081154 -0.8408159 
0.42989066 -0.88677984 -0.16975135 
-0.41407168 -0.9089256 0.04897871 
-0.28561336 -0.9562642 0.06311875 
0.19980471 -0.853773 -0.4807804 
-0.53292525 -0.4870384 -0.69194245 
-0.119653456 -0.46586126 -0.87673056 
-0.516497 0.18525177 -0.8360099 
-0.33413598 0.0631374 -0.9404079 
-0.26343718 0.10286832 -0.95917624 
-0.14532433 0.24647675 -0.9581911 
-0.14044724 -0.76299405 -0.6309632 
0.14240505 0.14310598 -0.9794088 
0.5180999 0.66550815 -0.53728145 
0.1264715 0.5543777 -0.8225997 
-0.22172505 0.26599056 -0.93812954 
0.25709414 0.28029338 -0.924845 
0.18331102 -0.09116524 -0.97881866 
0.19306912 0.27598292 -0.94157195 
0.42169723 0.21217309 -0.8815635 
0.81476194 -0.15793888 -0.5578694 
0.26441485 -0.24209075 -0.93352926 
0.7937989 -0.37991554 -0.47491825 
0.90604323 -0.34861743 -0.23989919 
0.41208205 -0.8436094 0.34425503 
0.19650054 -0.8532716 0.48302728 
-0.6204379 -0.7753119 0.11810277 
-0.31977215 -0.8914707 -0.3209765 
0.08096722 -0.95525455 -0.2844874 
-0.14085223 -0.985049 -0.09919305 
-0.38842246 -0.85336244 -0.34770784 
-0.57542455 -0.7935024 0.19809212 
-0.82428205 -0.45937762 -0.33095524 
-0.75306463 -0.012803784 -0.65782195 
-0.5522175 -0.77452475 -0.3084921 
0.030220812 -0.9652719 0.25949338 
0.09817176 -0.9951663 0.0025257105 
0.5577579 -0.72324455 -0.40721443 
0.6087764 -0.6827691 -0.404002 
0.63719684 -0.7642833 0.09925423 
0.44012392 -0.6476194 0.62199676 
0.6806968 -0.13770941 0.7195054 
0.59247714 0.28650016 0.7529201 
-0.05411059 0.7483683 0.6610727 
0.06414554 0.5378777 0.84057903 
0.24393374 -0.14157076 0.959403 
0.15115926 -0.8149632 0.55945134 
-0.6522361 -0.75214815 0.09413432 
-0.08359981 -0.87542707 0.47606575 
-0.3182685 -0.826074 0.465088 
0.14716248 -0.8620953 0.48490712 
-0.051481698 -0.9365752 0.34666485 
-0.8280598 -0.34033155 0.44552392 
-0.06896347 -0.4913403 0.8682332 
-0.18318251 -0.8976477 0.4008402 
0.07678691 -0.89415115 0.44113207 
0.14401759 -0.672451 0.7259949 
-0.4609699 -0.611519 0.64307964 
-0.3539859 -0.72870547 -0.58624434 
-0.18994978 -0.88349855 -0.42819306 
-0.62849873 -0.7470953 0.21642113 
0.13314515 -0.8921378 -0.43169734 
-0.16657655 -0.81745446 -0.55138063 
-0.24298619 -0.95244855 0.18384625 
-0.44148225 -0.78144664 -0.44094756 
-0.6438059 -0.71251476 -0.27899238 
-0.9836775 -0.12939103 -0.12504596 
-0.69511515 0.35543737 -0.62488335 
-0.999996 -0.0021879603 0.0018012266 
-0.8878206 0.007981456 -0.46012047 
-0.9031594 -0.07053537 -0.42347136 
-0.6643801 0.38553995 -0.6402797 
-0.31884497 -0.14704557 -0.93633085 
-0.3313276 -0.12359071 -0.9353863 
-0.6289924 -0.5963527 -0.49873045 
-0.20048219 0.18148667 -0.96274066 
0.29397902 -0.47167587 -0.83132327 
0.4743015 -0.669902 -0.57119995 
0.9306807 -0.36539558 -0.017877769 
-0.051041048 -0.38434798 0.9217763 
-0.5909397 -0.116470434 -0.79826367 
0.73021007 -0.1547358 -0.6654698 
0.43148097 -0.901742 -0.026183376 
0.73571676 -0.6430577 -0.21259761 
-0.7903931 -0.5262457 -0.3135988 
0.05589374 -0.91959363 -0.38887465 
-0.18134622 -0.5257004 -0.8311153 
-0.8181549 -0.3817774 -0.42996353 
-0.67962205 0.08885744 -0.7281609 
-0.6773098 -0.31692293 -0.6639363 
-0.09721862 -0.7543699 -0.6492108 
-0.46588162 -0.33198765 -0.8202065 
-0.39234972 -0.6248991 -0.67495394 
-0.33563054 -0.65071094 -0.6811223 
-0.22301115 -0.17431428 -0.95910406 
-0.09311836 -0.4868199 -0.8685248 
0.04222435 -0.14162931 -0.9890188 
-0.85818875 -0.27912003 -0.43081802 
0.41289985 -0.44604075 -0.794079 
0.17984478 -0.872913 -0.4535183 
-0.3622182 -0.59338194 -0.7188157 
-0.58945876 -0.54413885 -0.5970355 
0.12781365 -0.083854735 -0.988247 
0.6654733 0.26049045 -0.69949275 
0.29015416 0.26363134 -0.91995054 
0.42087886 0.024314595 -0.90679103 
0.8677058 -0.18723747 0.4604657 
0.25146285 -0.121200785 -0.9602484 
0.020826884 -0.500011 -0.8657686 
-0.037723847 -0.3865676 -0.92148924 
0.31636834 -0.5527382 -0.770968 
0.21286371 -0.21084496 -0.9540616 
0.111736976 -0.6400843 -0.7601361 
0.68266904 -0.2499881 -0.68663603 
-0.17570034 -0.16669337 -0.9702282 
-0.21333711 -0.5427084 -0.8123761 
-0.31764126 -0.5744339 -0.75440687 
-0.3222217 -0.5642608 -0.7601204 
-0.32382676 0.026761362 -0.9457379 
-0.49929377 0.4683385 -0.72894776 
-0.2274076 0.32460696 -0.9181046 
-0.53226155 0.12028736 -0.83799094 
-0.51357794 -0.37376693 -0.77235746 
-0.41992384 -0.49253654 -0.7622806 
-0.008363715 -0.6888718 -0.724835 
-0.71758246 -0.07319477 -0.6926168 
-0.38061744 -0.36838144 -0.84818953 
-0.29408938 -0.20160963 -0.93427247 
-0.25528264 0.29300973 -0.92139906 
-0.6142999 -0.11713978 -0.78032935 
0.27095494 0.22947194 -0.93484014 
0.5515941 -0.06570629 -0.83152074 
0.4674761 0.39415553 -0.79126954 
-0.02066083 -0.11989776 -0.9925713 
0.6871462 -0.03431043 -0.72570866 
0.675992 0.42004114 -0.6054753 
0.6219987 -0.5326644 -0.5739218 
0.24627616 -0.85402787 -0.45824072 
0.05850442 -0.5799119 -0.8125759 
0.9583585 -0.03926089 -0.2828561 
0.9238839 -0.346558 0.16228437 
0.9646178 -0.26240516 0.025615111 
0.96654975 -0.18580195 0.17680284 
-0.070869215 -0.31684276 0.9458267 
-0.31759673 -0.8582167 0.4032324 
-0.2065589 -0.9689627 0.13581146 
-0.15789746 -0.97921914 -0.12727232 
-0.279829 -0.92878693 -0.24300317 
-0.5578541 -0.69702476 -0.45050576 
-0.42833585 -0.8230885 -0.37289912 
-0.42811662 -0.7064184 -0.56363934 
-0.07819547 -0.8997665 -0.4293085 
0.21975341 -0.54250294 -0.81080145 
0.33863053 -0.814038 -0.47188088 
-0.09659636 -0.76292324 -0.6392318 
-0.14511243 -0.89639884 0.4188217 
0.41731754 -0.90300816 0.102089494 
0.013205697 -0.29454753 0.9555456 
-0.9697066 0.13268654 0.20509383 
-0.25012133 0.18834355 -0.94971895 
0.5963519 0.29243374 -0.7475607 
-0.4139624 0.09657746 -0.90515625 
-0.030637866 -0.05795805 -0.99784887 
0.20292538 0.457715 -0.8656318 
0.012631675 0.23432751 -0.97207564 
-0.40074867 0.632201 -0.6631157 
0.76549363 0.053758126 -0.6411939 
0.9712574 -0.23400283 -0.043608997 
0.5967485 -0.7090148 0.37575173 
0.85395277 0.19415613 -0.4827713 
0.9459024 0.27279863 -0.17564093 
0.7233743 0.29678327 0.62341744 
0.4165915 -0.58363354 0.69701034 
0.24392954 -0.50809735 0.826036 
-0.34819475 -0.79944617 0.48953688 
-0.30581948 0.18633327 0.9336779 
-0.25660345 -0.6584 0.70757633 
-0.6536992 -0.7497146 0.102982596 
-0.87562394 -0.47221297 0.101477675 
-0.8900915 -0.40597126 -0.20718257 
-0.67801785 -0.27559552 -0.6814242 
-0.6490003 0.0071507194 -0.7607547 
-0.2985969 -0.10634545 -0.9484359 
0.16316187 -0.5891507 -0.7913784 
-0.14334269 -0.39115694 -0.9090924 
-0.31284416 -0.25427252 -0.91513616 
0.53221136 -0.027669175 -0.84615934 
0.4317975 -0.9014243 0.0313912 
-0.4947307 -0.79353344 0.35432488 
-0.7765456 -0.5882695 0.22564611 
-0.9587626 -0.26313603 0.10739521 
-0.87183934 -0.48857886 0.034451377 
-0.8269635 -0.45000875 -0.33708087 
-0.73232436 -0.36901194 -0.5723035 
-0.42081168 -0.6437965 -0.63909596 
0.013422031 -0.8455015 -0.53380436 
0.07832359 -0.8868828 -0.45530707 
0.00072574796 -0.8859345 -0.46380985 
-0.41605252 -0.7630923 -0.4945611 
-0.16054153 -0.89448744 -0.4172753 
0.19879094 -0.67935437 -0.70637095 
-0.00012055636 -0.77078426 -0.6370962 
0.20219024 -0.9608784 -0.18929337 
-0.21391809 -0.9609854 -0.17534564 
-0.5159591 -0.4893903 -0.703053 
-0.40278584 -0.8772983 -0.2609813 
-0.033534374 -0.18218438 -0.98269236 
0.5157748 -0.49227712 -0.7011702 
0.2071497 -0.6809484 -0.70242316 
-0.21870011 0.12494412 -0.9677599 
-0.55334723 -0.20331636 -0.8077558 
0.6664852 -0.30420086 -0.68063164 
0.3230603 0.17631033 -0.92981005 
0.6684933 0.31364515 -0.6743467 
0.40549183 -0.26159552 -0.8758678 
-0.09537212 -0.6192954 -0.7793442 
0.771273 -0.49519372 -0.39990148 
0.5144227 -0.4924976 -0.7020081 
0.4389236 -0.8965766 0.059132826 
0.21832792 -0.7852829 -0.5793649 
0.41028488 -0.7545346 -0.5121952 
0.2773383 -0.22661275 0.933665 
0.27906176 -0.61763674 0.73528874 
0.34818503 -0.47064963 0.8107134 
-0.6898785 -0.34234953 0.6378592 
-0.8157187 -0.5672882 0.11307963 
-0.87972015 -0.43361413 0.19511895 
-0.97983456 -0.06143764 -0.19013086 
0.092557006 -0.5176928 -0.8505454 
0.5976881 0.1732726 -0.78278065 
0.9288364 -0.25649965 -0.26734045 
0.118755415 -0.9418622 -0.31431302 
-0.45660046 -0.6188842 -0.6391388 
-0.54846936 0.12381243 -0.82695335 
0.16538703 -0.62288713 -0.7646299 
0.24551016 -0.3920012 -0.88660014 
0.49385753 -0.060510915 -0.86743486 
0.5830789 -0.13744307 -0.800705 
0.5510705 -0.5096387 -0.66074944 
-0.21397384 -0.6098227 -0.76310647 
0.3406825 -0.88654596 -0.31300443 
0.7328357 -0.6800066 -0.023300312 
0.58262575 -0.8126995 -0.008177442 
0.45099348 -0.3426995 -0.82411283 
0.04527013 -0.538434 -0.84145087 
0.495974 -0.07189976 -0.8653557 
-0.4444384 0.21517825 -0.869582 
0.37889376 0.2526706 -0.8902793 
0.6080635 -0.5427738 -0.57935786 
0.37284112 -0.9201773 0.11942885 
0.29879576 -0.94138545 0.15657176 
0.39410838 -0.040608354 0.9181665 
-0.044650625 -0.7245637 0.68775994 
-0.13033673 -0.98433506 0.118730776 
-0.69105417 -0.528107 -0.49350512 
-0.04699621 -0.60441124 -0.79528517 
0.65759563 -0.15708134 -0.736813 
0.13141069 -0.6727279 -0.7281267 
0.46984446 -0.88232523 0.027356824 
0.02506137 -0.9289247 -0.3694197 
0.40115237 -0.41243818 -0.8179069 
-0.31228033 -0.41357514 -0.8552407 
0.24640812 0.26663288 -0.93176717 
-0.32627833 0.5850807 -0.742444 
0.22623816 0.43374583 -0.87217015 
-0.46924016 0.67856765 -0.56511927 
0.13914447 0.5107757 -0.848379 
-0.107465155 0.43648517 -0.89327043 
-0.13145776 -0.090839714 -0.987151 
-0.17582794 0.27602863 -0.94493 
0.05541473 0.8405838 -0.53883964 
0.49573925 0.6511084 -0.5747178 
-0.37738663 0.8017284 -0.4634771 
-0.6335037 0.70853394 -0.3108905 
-0.71470386 0.09159672 -0.6934036 
-0.05159085 0.7548443 -0.65387195 
0.7330321 0.1521425 -0.6629606 
0.5909541 0.0025082661 -0.8067013 
0.59690505 -0.070253365 -0.7992301 
0.2961772 -0.66734713 -0.68332046 
0.58652514 -0.78285635 -0.207664 
0.7555092 -0.6450294 -0.11464296 
0.33669645 -0.9045476 -0.26159 
-0.23386078 -0.91834074 -0.31931114 
0.40265018 -0.47472462 -0.7826298 
0.21532498 0.31913862 -0.9229224 
-0.40104324 -0.6593099 -0.63598335 
-0.70454043 -0.68158245 -0.19765672 
-0.8742624 0.052350122 -0.48262286 
-0.6232859 -0.4133824 -0.66379946 
-0.16694796 -0.8638944 -0.47519994 
0.1293137 -0.98903656 -0.07130718 
-0.1257054 -0.98600245 0.1095333 
0.581384 -0.7321458 -0.35490194 
0.6916125 -0.7161777 0.09360432 
0.9854133 -0.13878791 0.09848194 
0.9643488 -0.21420796 -0.15539132 
0.49470216 -0.06863748 0.866348 
0.43051082 -0.64563364 0.6307279 
0.5607716 -0.4747116 0.67836875 
0.14175332 -0.79344666 0.5919025 
-0.16347708 -0.24988373 0.954376 
-0.6088914 -0.54049975 0.58061296 
-0.37840253 -0.92331105 -0.06563644 
-0.34872726 -0.9153352 -0.2013726 
-0.05574131 -0.9681092 -0.24424915 
0.16023508 -0.9270737 -0.33890864 
0.05738543 -0.7731478 0.6316245 
0.4079013 -0.7510347 0.5191951 
0.12213759 -0.89577246 0.4274038 
-0.60368025 -0.32369378 0.7285551 
-0.59564346 -0.7989637 0.08285988 
-0.36607605 -0.5361392 0.76062024 
-0.687023 -0.36916515 0.6258727 
-0.40049925 -0.6400847 0.6556616 
-0.34944654 -0.84610707 0.4024799 
-0.42784226 -0.8993632 -0.089982264 
-0.33610925 -0.07391147 -0.9389184 
-0.66947335 -0.5001516 -0.5492302 
-0.7378596 -0.33662996 -0.5850159 
-0.539101 -0.58908314 -0.60195625 
-0.5113997 -0.5278832 -0.6780927 
0.00014994264 -0.499322 -0.86641645 
-0.012046082 0.4957404 -0.8683873 
-0.4969009 0.51682514 -0.6971236 
-0.7410092 0.5236096 -0.42040274 
-0.639322 -0.34638515 -0.6865018 
-0.7589446 -0.046542402 -0.6494898 
-0.312217 0.08571959 -0.9461357 
-0.56849587 0.36182934 -0.7388451 
-0.7588104 0.03924348 -0.6501283 
-0.33557662 0.16118525 -0.92812055 
0.18118875 -0.22083235 -0.95833385 
0.5890069 -0.28029606 -0.7579611 
0.5261725 -0.6895357 -0.49767765 
0.12713118 -0.9918859 0.00036261414 
-0.39239982 -0.13654537 -0.9096031 
-0.283571 -0.03548993 -0.95829433 
0.10699549 -0.8440107 -0.5255454 
-0.15648052 -0.38680956 -0.90878624 
-0.40671617 -0.7541587 -0.51558393 
-0.6495442 -0.61175376 -0.45149717 
-0.34398076 -0.7718106 -0.5347765 
-0.2590053 -0.59281415 -0.76255345 
-0.48190406 -0.6314075 -0.6075304 
-0.27820006 -0.118408225 -0.95319694 
-0.3312463 0.40285847 -0.85321796 
0.11739253 -0.5451151 -0.83010155 
-0.18388103 -0.007875691 -0.98291695 
-0.020323394 -0.07042272 -0.9973102 
0.3998971 0.09576237 -0.9115437 
0.13248388 -0.50922453 -0.8503755 
0.23513125 -0.62603587 -0.7435002 
-0.7109348 -0.25682664 -0.65468454 
0.4689504 -0.08113413 -0.8794902 
0.42262483 -0.6523014 -0.62919897 
0.08747736 -0.6819342 -0.7261636 
-0.52147365 -0.65991014 -0.5409103 
-0.2401974 -0.108178675 -0.96467745 
0.6674908 0.11959338 -0.7349514 
0.37520802 0.081172265 -0.9233798 
0.6391978 -0.574452 -0.5113033 
0.55555326 -0.7723093 -0.308057 
0.1846224 -0.6928839 -0.69701254 
0.3747862 -0.071676016 -0.9243365 
0.118539795 -0.38830593 -0.9138746 
0.2638486 -0.36693147 -0.89204556 
0.14171992 -0.14135426 -0.9797625 
0.43008405 0.22132361 -0.87523925 
0.8840283 0.14442702 -0.44456148 
0.19172327 0.10289885 -0.97604 
0.39642018 -0.032304667 -0.9175006 
0.12380562 0.20467208 -0.97096944 
-0.5716028 0.69839483 -0.43071437 
-0.2602662 0.56850433 -0.7804257 
-0.20080377 0.8336068 -0.5145654 
-0.051806875 0.74959195 -0.65986973 
-0.33263862 0.45804936 -0.8243437 
-0.6270183 0.10018824 -0.77253515 
-0.3599785 -0.43498498 -0.8253505 
-0.14423807 -0.22178923 -0.9643677 
0.06431431 0.28634444 -0.95596576 
-0.08642672 -0.04186634 -0.9953782 
0.31506974 -0.51007885 -0.8003441 
0.58931106 0.4702741 -0.65692824 
0.15847135 0.13176972 -0.9785314 
-0.14788738 -0.3145448 -0.9376518 
0.27683076 0.34057015 -0.8985415 
0.76284873 0.43805093 -0.47557697 
0.3711241 -0.58910435 -0.7177904 
0.6021423 0.14054452 -0.78592104 
0.7834767 0.33733606 -0.5218896 
0.4188399 -0.29488268 -0.8588465 
0.64830923 -0.1528735 -0.74587196 
0.43304828 -0.092973776 -0.896563 
0.73193836 -0.6605137 -0.16729611 
0.9150785 -0.2887573 -0.2815147 
0.74874634 -0.5471855 0.3741217 
0.77287114 -0.6295838 0.07933824 
0.27873582 -0.5423727 0.7925517 
-0.5024982 -0.23647447 0.8316102 
-0.89248973 -0.3877328 0.23048948 
-0.7395433 -0.6112825 -0.2817967 
-0.68470156 -0.28069523 -0.6726024 
-0.36822838 -0.8909895 -0.26560438 
-0.90393263 -0.15928198 -0.39690712 
-0.5739478 -0.11334092 -0.8110103 
-0.5584977 -0.23017448 -0.7969316 
-0.06244441 -0.21028276 -0.9756444 
0.35585096 -0.77696353 -0.51932436 
0.499834 -0.75593495 -0.42276275 
0.023637382 -0.88851076 -0.45824644 
0.33508417 -0.38877186 -0.8582396 