# OOMMF: rectangular mesh v1.0
# Segment count: 1
# Begin: Segment
# Begin: Header
# Desc: Time (s) :  5.470000000000009e-07
# Title: m
# meshtype: rectangular
# meshunit: m
# xbase: 2e-09
# ybase: 2e-09
# zbase: 5e-10
# xstepsize: 4e-09
# ystepsize: 4e-09
# zstepsize: 1e-09
# xmin: 0
# ymin: 0
# zmin: 0
# xmax: 1.024e-06
# ymax: 1.024e-06
# zmax: 1e-09
# xnodes: 256
# ynodes: 256
# znodes: 1
# ValueRangeMinMag: 1e-08
# ValueRangeMaxMag: 1
# valueunit: 
# valuemultiplier: 1
# End: Header
# Begin: Data Text
-0.7756168 0.6307464 -0.024032291 
-0.819359 0.3282151 -0.47002733 
-0.8959824 -0.23751236 -0.37523806 
-0.6767247 -0.7073333 -0.20426282 
-0.5189014 -0.854784 -0.009262429 
-0.31739408 -0.41814002 -0.8511287 
0.40771627 -0.2310843 -0.88338417 
0.57700807 -0.576844 -0.57819784 
-0.027672568 -0.19321005 -0.9807672 
-0.23699504 -0.6055381 -0.7597086 
0.098906 -0.83824015 -0.5362568 
-0.021083489 -0.2247256 -0.974194 
0.4091099 -0.3859321 -0.82685274 
-0.43185008 -0.21293053 -0.87645096 
0.11492456 -0.6903884 -0.71425223 
-0.6214831 -0.5783659 -0.52844274 
-0.8409813 -0.4718354 -0.26480547 
-0.91736054 -0.39660007 0.03402937 
-0.56761175 -0.66977566 -0.47876662 
-0.3807949 -0.64890504 -0.6587241 
0.23838882 -0.94292367 0.23252088 
-0.31595242 -0.93111813 -0.18218999 
0.24354447 -0.9627721 -0.11728575 
0.28908876 -0.94374853 -0.16051935 
0.012790217 -0.8554283 -0.5177634 
-0.61415094 -0.78758943 -0.050214797 
-0.6302293 -0.7732536 -0.06992832 
-0.52244735 -0.82733893 -0.2062987 
-0.017428659 -0.39597493 -0.91809595 
-0.1479111 -0.4554096 -0.87790924 
-0.30119348 -0.9309422 -0.20646873 
0.63478273 -0.56646556 -0.5255166 
0.38292986 -0.45575067 -0.8035272 
0.3313763 -0.26738104 -0.90481883 
0.058159634 -0.93456656 -0.35100272 
0.6712793 -0.6651155 0.3271171 
0.2137813 -0.4636535 0.859839 
0.42917684 -0.045804553 0.9020583 
0.016706014 -0.21328308 0.97684765 
-0.41993704 -0.7022942 0.57483554 
-0.6281243 -0.5195677 0.57923174 
-0.030388108 -0.1428093 0.9892836 
-0.124507345 -0.30107507 0.9454374 
-0.6740148 -0.7296509 0.11538527 
-0.61017305 -0.33788165 0.7166065 
-0.756937 -0.16525328 0.6322483 
-0.67128307 0.23603614 0.7026137 
-0.038330723 -0.8950262 0.44436362 
-0.089743875 -0.9930865 -0.075665765 
0.49861956 -0.8024496 -0.32780084 
0.71521395 -0.4175186 0.56048846 
0.6473713 -0.15109432 -0.74704814 
0.5157122 -0.53125036 -0.6721711 
-0.83912563 0.028146742 -0.543209 
-0.49328366 -0.6521666 -0.5756302 
-0.64934474 -0.03116805 -0.7598552 
-0.34403387 0.039128467 -0.9381416 
-0.28371996 0.23472482 -0.929735 
0.114307515 0.07124492 -0.99088746 
-0.21538897 0.3082345 -0.92660624 
0.18784915 0.42191663 -0.8869606 
0.9104672 -0.12616928 -0.39386648 
0.38362405 -0.62853974 -0.6765874 
0.93483984 -0.069108665 -0.3482793 
0.43384096 -0.23921779 -0.8686524 
0.57901204 -0.1688496 -0.7976434 
0.31358027 0.4416657 -0.8405944 
0.4566934 0.23144089 -0.8589914 
0.07765115 0.3076201 -0.9483355 
0.5808074 -0.1869354 -0.79228663 
-0.4612042 0.038889565 -0.88644147 
-0.75761855 -0.4360643 -0.48565638 
-0.9716958 -0.15730208 0.17624849 
-0.8589026 0.18290047 0.47836584 
-0.97108436 0.055915166 0.23209648 
-0.71183443 -0.38276598 -0.588882 
-0.18640295 -0.5895323 -0.7859426 
-0.639996 -0.36958843 -0.6736539 
0.22199684 -0.798515 -0.55954564 
0.45878294 -0.8875167 0.04280705 
-0.53862333 -0.52130777 -0.6619087 
0.070193484 -0.04156623 -0.9966671 
0.05277341 -0.46875197 -0.8817521 
0.0034229606 -0.7510422 -0.6602453 
0.90572214 -0.4214093 -0.04562569 
0.9375913 -0.18631634 0.29361334 
0.9397751 -0.28776196 0.18443406 
0.71335876 -0.65386146 -0.2521598 
0.536732 -0.48500866 -0.690424 
0.26881167 -0.280737 -0.92137235 
0.7060861 0.43561596 -0.5582841 
0.48574802 -0.84885263 0.20856227 
-0.13810912 -0.9798903 -0.14401719 
-0.4840833 -0.86734337 -0.11566721 
-0.5799183 -0.38289362 0.71908784 
-0.95568365 -0.24104849 0.16901055 
-0.66495484 -0.70725924 -0.2400405 
0.05311549 -0.96382123 -0.2612036 
-0.29844427 -0.8256053 -0.47886014 
-0.20554373 -0.90212417 -0.37937298 
0.35478535 -0.14013416 -0.9243862 
0.6918105 -0.19754778 -0.69453096 
0.07382509 -0.4869041 -0.8703301 
0.1663834 -0.98559374 -0.030357648 
-0.33819222 -0.8871693 -0.31393754 
0.21144736 -0.7945523 0.5691895 
0.47028306 -0.7491589 0.46647057 
0.35923845 -0.7745321 0.52062273 
0.41938317 -0.88405055 0.20633079 
0.52750516 -0.84576154 0.08016154 
-0.31764087 -0.94292086 -0.10002278 
-0.066813715 -0.99577266 0.06302997 
0.11299417 -0.95919347 0.2591918 
-0.63950473 -0.75874066 -0.12388059 
-0.046461705 -0.92381877 0.3800002 
0.51555145 -0.8433176 0.15173067 
0.48982966 -0.8026091 0.34042004 
-0.14963731 -0.81410474 -0.561108 
-0.48885253 -0.6048336 -0.62864906 
-0.12881275 -0.44890514 -0.88424623 
-0.124729596 -0.20969823 -0.969778 
-0.64543223 -0.43262526 -0.629486 
-0.051953115 -0.63941264 -0.7671066 
0.7985879 -0.12542497 -0.58866465 
0.8346819 -0.16536497 -0.5253196 
0.7576007 -0.01577424 -0.65252763 
0.2596847 -0.9656017 0.013318767 
-0.29364437 -0.91708547 0.26968002 
0.33374685 -0.77803373 -0.53223735 
0.29831836 -0.5531147 -0.7778627 
-0.043809645 -0.9770467 -0.2084718 
0.51787233 -0.8131003 -0.2658502 
0.75202173 -0.47929046 -0.45248663 
0.49046978 -0.82165927 -0.29037124 
0.2434265 -0.90899414 -0.3383392 
0.108152024 -0.8462993 -0.52161354 
0.73337835 -0.44003898 -0.518191 
0.4848973 -0.8634071 -0.13929453 
0.59227794 0.05790478 0.8036503 
-0.10768325 -0.10497203 0.9886279 
-0.09886635 -0.88845235 0.44819415 
0.29172572 -0.95605296 0.029308585 
0.30790123 -0.93131 0.19457291 
-0.14792205 -0.85751295 0.4927378 
0.4348174 -0.8190059 0.37438357 
-0.6285198 -0.7771276 -0.03218206 
-0.56507015 -0.71112925 -0.4183193 
-0.12344169 -0.987715 0.09581855 
-0.16997273 -0.8695808 -0.46361482 
0.1089659 -0.88757265 -0.44759515 
-0.024621692 -0.98767775 0.15455249 
0.11652406 -0.9480882 0.29588982 
-0.5292654 -0.83469343 -0.15220094 
-0.30428883 -0.7985318 -0.5193798 
-0.14240448 -0.97124857 -0.19078068 
0.11619675 -0.6465882 -0.7539378 
0.4566272 -0.42702457 -0.78047526 
0.85668856 -0.5098942 0.07805541 
0.68951565 -0.7242481 -0.005740261 
0.94627565 -0.25059885 0.20435919 
0.40314752 -0.55653256 0.7264596 
0.26084346 -0.6205551 0.7395081 
0.26256654 -0.3505472 0.89898586 
-0.18372442 -0.66355264 0.7252195 
-0.31745267 -0.49430373 -0.8092513 
0.13216442 -0.27630624 -0.9519388 
0.83736795 -0.12620597 -0.5318712 
0.38568953 -0.51003206 -0.7688374 
0.47117788 -0.818382 -0.32900196 
0.64662725 -0.7555813 -0.10473862 
0.2375522 -0.55145866 -0.7996639 
0.39076793 -0.47370163 -0.78924465 
0.37464792 -0.81274605 -0.44618696 
-0.09218135 -0.9376151 -0.33523208 
0.33265856 -0.8769695 -0.34678942 
0.21354873 -0.9594559 -0.18395995 
-0.2008747 -0.9626592 0.18148437 
-0.03041599 -0.9992733 -0.02297632 
0.098291166 -0.75062084 0.65338147 
0.012492514 -0.56375915 0.82584476 
-0.53208923 -0.19136325 0.82477945 
-0.37640065 -0.86776793 0.32450175 
-0.30012703 -0.85609233 0.42074922 
-0.7846415 -0.5701864 0.24336241 
-0.6749859 -0.31413382 -0.66761816 
-0.3885126 -0.84098095 0.37657562 
-0.59693176 -0.6066769 0.5249911 
-0.28124952 0.414389 -0.8655522 
-0.12441186 -0.51548445 -0.8478192 
-0.7961623 -0.25783938 -0.5473981 
-0.43709648 -0.105171464 -0.89324445 
0.017509568 0.15693481 -0.9874538 
-0.368325 -0.31791353 -0.873652 
0.27798098 0.11939661 -0.9531375 
0.48649514 -0.5970738 -0.63782877 
-0.58388424 -0.67566836 -0.45005724 
-0.37221405 -0.6160092 -0.69425464 
-0.23122188 -0.42306027 -0.8761031 
-0.3149396 -0.69008607 -0.651609 
0.23020531 -0.7443346 -0.6268745 
0.28514928 -0.7020026 -0.6525966 
-0.3890612 -0.80880016 -0.44099164 
0.16931522 -0.93741816 -0.30426887 
0.20149443 -0.92973423 -0.3082114 
-0.44954026 -0.53958774 -0.7118699 
-0.2945309 -0.9190847 -0.2617918 
-0.62531155 -0.6344588 0.45436513 
-0.7102711 -0.52019095 -0.47425357 
-0.17196786 -0.7879611 0.59122276 
0.055325344 -0.99707973 0.052642804 
0.4892806 -0.8612895 0.13705865 
0.38399082 -0.75041294 0.5379884 
0.28111637 -0.9010142 0.33037424 
-0.39310196 -0.864983 0.31188995 
-0.7001225 -0.64510864 -0.30604473 
-0.4774349 -0.8280793 0.29383788 
-0.7756224 -0.6101859 0.16150254 
-0.64884853 -0.13735217 0.74841833 
-0.6260592 -0.7458777 0.22741249 
-0.49892184 -0.71527183 0.48934984 
0.13814807 0.703117 0.69752544 
-0.2849346 -0.79398686 0.53702635 
-0.39342093 -0.91804314 -0.049162198 
0.9595748 -0.22177775 0.17329438 
0.2435461 -0.8072815 0.5375704 
0.45426172 -0.36173797 0.81412035 
0.13193488 -0.8848409 0.4468219 
-0.2421468 -0.9616809 0.12858798 
-0.711774 -0.589891 -0.38132194 
-0.4743802 -0.657798 -0.5850344 
-0.63564974 -0.28102666 -0.71900874 
-0.6848698 -0.49236497 -0.53714997 
-0.03432806 -0.76537883 -0.6426639 
0.15121998 -0.7433821 -0.6515486 
0.24140143 -0.9275992 -0.28510565 
0.4667214 -0.59889734 -0.6507636 
0.66136473 0.41670236 -0.6236633 
0.22351678 0.45373893 -0.86264783 
-0.086362906 -0.26512936 -0.96033746 
0.6182685 -0.2048388 -0.7588052 
0.25484854 -0.9627963 0.08986451 
0.10864968 -0.9183726 -0.380509 
0.68332815 -0.6511156 -0.3303198 
0.042507466 -0.69450325 -0.71823287 
0.24066761 -0.5740982 -0.7826176 
-0.18537754 -0.0936288 -0.97819674 
-0.5291436 -0.5568602 -0.6402451 
0.44289047 -0.3549051 -0.823341 
0.6751802 -0.010332633 -0.73758054 
0.77014226 0.37247556 -0.5178253 
0.04526776 -0.6655164 -0.74500936 
-0.37440974 -0.6193899 -0.6900533 
0.7889404 -0.5757125 -0.21477436 
-0.24422772 -0.8444944 -0.47663644 
0.12933633 -0.7602309 -0.6366485 
-0.44389397 -0.675867 -0.58835524 
-0.3832776 0.8737965 -0.29929549 
-0.847375 0.5288858 -0.04728098 
-0.8797917 -0.47448826 -0.028766545 
-0.64260733 -0.31404105 -0.6988807 
-0.32967338 -0.44216904 -0.8341476 
-0.66220456 0.34090492 -0.66728485 
0.2613677 0.8338826 -0.48613465 
-0.11684317 -0.06447518 -0.9910553 
-0.016307484 0.065918274 -0.9976918 
0.11209491 -0.29566482 -0.9486924 
-0.14923668 -0.20847191 -0.9665753 
0.07759113 -0.58577156 -0.8067535 
0.20097896 -0.42130265 -0.8843707 
0.17225079 -0.8317181 -0.5278017 
-0.6467292 -0.5447734 -0.53381956 
-0.767117 -0.61086917 0.1958836 
-0.97811735 -0.04714704 -0.20264189 
-0.6911228 -0.327272 -0.64439315 
-0.80888104 0.14587322 -0.56958973 
-0.20894106 -0.087616 -0.97399545 
0.23972546 -0.42593285 -0.8724179 
0.3625189 -0.59328896 -0.7187408 
-0.673478 -0.697038 -0.24610041 
-0.56764346 -0.8190416 -0.083376594 
0.037827548 -0.92306024 -0.38279107 
-0.59068626 -0.76965356 -0.24232861 
-0.72459686 0.41187716 -0.5525547 
0.072513945 -0.32789278 -0.9419279 
0.38090608 -0.16670655 -0.9094611 
0.46404392 -0.33232123 -0.8211127 
0.17017506 -0.76173127 -0.62514466 
0.4921165 -0.27004862 -0.8275839 
-0.038714465 -0.7427691 -0.66842747 
0.6768792 -0.09733168 -0.72963077 
0.66100967 -0.33558142 -0.67115676 
0.65934205 -0.5601058 -0.50154716 
0.7469315 -0.6343823 0.19912949 
-0.019130558 -0.9712664 0.23722485 
-0.0055265576 -0.25767508 0.9662159 
-0.41824606 -0.9060135 0.06488397 
0.25012758 -0.89390635 0.37197813 
-0.41446424 -0.7025782 0.5784491 
-0.14190735 -0.753367 0.64210635 
-0.4696746 -0.64858013 0.5989571 
-0.3716752 -0.48215005 0.79334044 
-0.57022005 0.40152627 0.7166769 
-0.75934845 -0.4652987 0.45484823 
-0.3845817 -0.92135566 -0.056575373 
-0.13503295 -0.8827631 -0.44999492 
0.39279962 -0.65946555 -0.6409476 
0.31745836 -0.8902496 -0.32661253 
-0.7406264 0.028772185 -0.6713008 
0.11158924 0.1519198 -0.9820735 
0.10045386 0.63760126 -0.76378906 
-0.27561614 0.053055286 -0.9598026 
-0.56797385 0.19464989 -0.7996983 
0.011614685 -0.17621362 -0.9842835 
-0.1448587 0.12518764 -0.9815009 
0.17216043 -0.056110535 -0.9834696 
-0.40724885 -0.057333983 -0.91151583 
0.1209264 0.40328032 -0.90705115 
0.6264533 0.3297985 -0.70625013 
0.70773107 0.0023906333 -0.70647794 
0.9180638 0.08601223 -0.38698947 
0.7129641 0.6139521 -0.33874047 
-0.1906491 0.738048 -0.6472543 
0.016463416 0.5604002 -0.82805836 
-0.3962857 0.37765905 -0.83685803 
-0.34703904 0.21043576 -0.91393703 
-0.8273526 0.37520427 -0.41798255 
-0.31969547 -0.39077634 -0.8631852 
-0.6448213 -0.42929617 -0.63238466 
-0.8840699 -0.46226135 0.068811566 
-0.7031921 0.031748146 -0.71029073 
-0.74463713 -0.08271645 -0.66232437 
-0.5014569 -0.50238883 -0.70437664 
-0.12115321 -0.63550836 -0.76252943 
-0.32229358 -0.85855603 -0.39875856 
0.091277376 -0.8269103 -0.5548765 
-0.10432044 -0.89405787 -0.43563497 
-0.18314725 -0.5564808 -0.81042343 
0.6665432 -0.37271842 -0.64560145 
0.06636863 -0.55583364 -0.82864 
0.15769355 -0.81429434 -0.55862105 
0.9110382 -0.23859233 -0.3362786 
0.92729455 -0.11205091 -0.35716859 
0.7718951 -0.10351146 -0.62726665 
0.66516733 -0.54474187 -0.51069444 
0.892856 0.04708718 -0.44787392 
0.6403898 -0.3160325 -0.70001745 
0.6343603 -0.7686053 -0.08266234 
-0.06384778 -0.9966287 -0.05152429 
0.16708946 -0.9518261 0.25711533 
0.1594657 -0.9398307 -0.30214062 
-0.42459464 -0.9051595 0.020146871 
-0.503194 -0.63126713 -0.5901675 
-0.79830813 -0.4506665 -0.3995046 
-0.19283955 -0.92090636 -0.3387394 
-0.19468792 -0.1420635 -0.9705228 
0.299332 -0.81064 -0.5032528 
0.47847524 -0.49154222 -0.72763157 
0.14938717 -0.8707209 -0.46853876 
0.6601608 -0.37515208 -0.65072936 
0.36018822 -0.7786688 -0.51375026 
-0.27681613 -0.95708793 -0.085765705 
0.56685364 -0.81552833 -0.11657884 
0.56173563 -0.7789426 -0.27875003 
0.3329713 -0.94281036 -0.015451197 
0.5615723 -0.6883944 0.45907483 
0.20490696 -0.9710832 -0.12251708 
-0.0042839283 -0.99998075 -0.004492815 
0.4415163 -0.8959207 -0.048884165 
0.63186055 -0.7347987 0.24662344 
-0.6410325 -0.7671494 0.023644272 
-0.36120012 -0.8779651 -0.31418416 
0.5397189 -0.83729255 0.087433815 
0.2430659 -0.96431094 0.104992494 
-0.8027489 -0.5265392 -0.27991223 
-0.40197587 -0.1117709 -0.9088029 
-0.37083933 -0.53118116 -0.7617905 
-0.5621158 -0.007044043 -0.8270286 
-0.848898 -0.31420848 -0.4250241 
0.34260783 -0.39495566 -0.85242593 
0.06878287 -0.6851209 -0.7251747 
-0.035985056 -0.5687867 -0.8216975 
-0.34098855 0.08277633 -0.9364161 
-0.35198283 -0.5980851 -0.72000164 
0.033142373 -0.7993489 -0.5999525 
0.64017415 -0.6736384 0.36930808 
-0.083026186 -0.9683221 -0.23549746 
-0.303427 -0.47602004 -0.8254314 
-0.6103426 -0.2511803 -0.7512592 
0.66401356 -0.15209603 -0.73208797 
0.3028006 -0.5541338 -0.77540165 
0.26143542 -0.68797493 -0.6770097 
0.19255424 -0.3383158 -0.92112184 
0.49714264 -0.5042378 -0.7061115 
0.8095479 -0.05080782 -0.58485115 
0.53709674 -0.83984715 -0.07863797 
-0.41737142 -0.9082374 -0.0300997 
-0.008420807 -0.8233925 -0.5674098 
-0.25103813 -0.95954704 0.12747288 
-0.4592212 -0.82169384 -0.33754292 
-0.2841157 -0.89461267 -0.3448864 
-0.26858205 -0.8123147 -0.5176953 
-0.8838331 -0.25894445 -0.3895984 
-0.6921349 -0.4712859 -0.5466617 
-0.8343319 -0.52396303 -0.17132764 
-0.2650958 -0.32386342 -0.9082052 
-0.64935213 -0.3421795 -0.6791576 
-0.030230448 -0.5270937 -0.84926933 
-0.63188547 -0.7384063 -0.23553543 
-0.22405349 -0.96789074 -0.113963485 
-0.11029925 -0.43519765 -0.8935532 
-0.38200328 -0.91837436 -0.103257604 
-0.17699808 -0.89955205 -0.39934683 
0.28035554 -0.95985657 0.008726502 
0.8837124 -0.41504505 -0.21631014 
0.7222848 -0.47409013 -0.50353086 
0.94276595 -0.06462806 0.32713252 
0.5352212 -0.259972 0.80371195 
-0.11567373 -0.6558795 0.7459503 
-0.87503743 -0.1312368 0.46592546 
-0.8831366 -0.4457343 -0.14625564 
-0.095160715 -0.74805254 -0.6567815 
-0.35448357 -0.572931 -0.7389801 
-0.10000736 -0.62684596 -0.77269834 
0.009022182 -0.4698371 -0.88270706 
0.6526594 0.054556627 -0.7556846 
-0.2979564 -0.8270427 -0.47667867 
-0.59783804 -0.7452354 -0.2953202 
-0.90443397 -0.12783511 -0.40701053 
0.0721624 -0.8275003 -0.5568086 
-0.5327685 -0.7072049 -0.46477854 
0.15595894 -0.7154604 -0.6810238 
0.43309397 -0.63842994 -0.6362679 
0.55835545 -0.6911408 -0.45887226 
0.63602746 -0.70996577 -0.30235356 
-0.014302158 -0.9657251 0.2591727 
-0.14199178 -0.9229903 0.35766912 
-0.25726908 -0.8785075 0.4025386 
0.0985871 -0.975457 -0.19688663 
-0.3620448 -0.69815606 -0.61765826 
-0.46027702 -0.88582504 -0.05881519 
-0.0016396595 -0.6607323 -0.7506199 
0.12581532 -0.8464774 -0.5173458 
-0.6839273 -0.04769711 -0.7279894 
-0.16078408 0.24880183 -0.95511585 
-0.41633567 -0.07851699 -0.9058144 
-0.4387813 0.12557818 -0.8897759 
-0.2244633 0.017593144 -0.97432375 
0.03484723 0.5327483 -0.8455561 
-0.074888274 0.1731999 -0.98203546 
-0.44608957 -0.17298736 -0.8781113 
0.26744437 -0.32768396 -0.90614396 
0.27109486 -0.7465071 -0.607647 
0.3159502 0.065954335 -0.94648063 
0.06819069 0.19610038 -0.97821 
0.13846914 -0.7924218 -0.59404874 
0.17765737 -0.3656183 -0.9136526 
-0.24945481 -0.72450346 -0.6425473 
-0.25888845 -0.73374003 -0.6281739 
0.18527009 -0.41659027 -0.89001554 
0.26178852 -0.7513322 -0.60577774 
-0.027518574 -0.47409278 -0.88004476 
0.10240375 -0.9665762 -0.23504017 
-0.5681202 -0.54161614 0.61958975 
-0.2646946 -0.9558678 0.12748961 
0.29516423 -0.8385589 -0.457927 
-0.21892296 -0.52832 -0.8203357 
0.268188 -0.9036727 -0.3338428 
0.28594053 -0.95646906 -0.058353636 
0.24002254 -0.91652536 0.31995416 
-0.47023532 -0.6285363 0.6195328 
0.2646584 -0.93523616 -0.23513667 
0.08073284 -0.7750592 0.62670994 
-0.15699315 -0.9114529 -0.38027218 
-0.28035754 -0.90093505 0.33123374 
-0.77027607 -0.60698354 0.19556522 
-0.6346914 -0.7712738 0.047996856 
0.2515821 -0.9675715 -0.022626735 
0.10863794 -0.94058067 -0.32172316 
-0.41509116 -0.7521341 -0.51185334 
0.5652715 -0.816506 0.11741448 
-0.17959803 -0.97488725 0.13167912 
-0.57939357 -0.6608519 -0.4770513 
-0.32073644 -0.9152667 -0.24375208 
-0.04092527 -0.9849878 -0.16770296 
-0.33541363 -0.78555596 -0.51999956 
-0.59362406 -0.26093236 -0.7612653 
-0.46515182 -0.8511554 -0.24324559 
-0.5696146 -0.3131217 -0.7599303 
-0.5596361 -0.26034895 -0.7867819 
-0.29378548 -0.55282 -0.7797949 
0.540221 -0.6478252 -0.53710705 
0.06475005 -0.75368977 -0.654033 
0.45702276 -0.6516288 -0.6054008 
0.4106286 -0.28939742 -0.86465794 
-0.32171673 -0.76441735 -0.558717 
-0.34697914 -0.5462476 -0.76237726 
-0.1888613 -0.9511209 0.24433702 
-0.21337408 -0.86569697 -0.45281395 
-0.35406917 -0.90317726 -0.24270543 
-0.2754268 -0.8999043 -0.33810112 
-0.17102188 -0.7193808 -0.67323315 
-0.39036953 -0.3947666 -0.83172774 
0.09280384 0.07366153 -0.992956 
0.85068727 0.15882568 -0.5011045 
0.5556965 -0.221221 -0.8014129 
0.14850631 -0.5211397 -0.84045184 
0.34366783 0.090219095 -0.93474764 
0.2971585 -0.27056193 -0.9156927 
0.30739957 -0.18266971 -0.93388295 
0.08434932 -0.5932335 -0.8005993 
0.011987372 -0.13831909 -0.99031514 
0.10280824 -0.068778746 -0.9923205 
-0.91351306 0.1737077 0.36785826 
-0.56331635 0.04990875 -0.82473266 
-0.15330473 -0.27569684 -0.948941 
-0.03620519 -0.7620966 -0.6464504 
-0.17034398 -0.2768618 -0.9456906 
-0.7763192 0.08972607 -0.62392133 
-0.38772953 0.19511615 -0.900886 
-0.0793296 -0.47450802 -0.8766692 
0.57841665 -0.47434816 -0.66364753 
0.39640433 -0.055289805 -0.91640973 
-0.46017146 -0.08841647 -0.8834166 
0.45089749 0.14197546 -0.88121194 
-0.0489048 -0.60962063 -0.7911833 
0.21100307 0.32213566 -0.92287946 
0.05753797 0.3564176 -0.93255347 
-0.6656578 -0.7277302 -0.16525294 
-0.7686904 -0.39150816 -0.50580287 
-0.45453927 0.0043222457 -0.8907163 
-0.6798912 0.13750026 -0.72030663 
-0.011836995 -0.017421935 -0.9997782 
-0.116308175 0.114560954 -0.9865841 
0.1642422 -0.74256414 -0.6493251 
-0.3222055 -0.9424247 0.089551136 
-0.060812283 -0.9250967 -0.37483075 
-0.22205463 -0.38284495 -0.8967282 
-0.788796 -0.47812957 -0.38625506 
-0.69515175 -0.67425895 -0.24927683 
0.10781032 -0.47519445 -0.873251 
0.38862535 -0.70001966 -0.5991184 
-0.080280125 -0.71274143 -0.69681764 
-0.5406937 -0.36360636 -0.7585781 
0.006564543 0.078670576 -0.9968791 
0.21509254 -0.82309747 -0.5255909 
0.7808549 -0.26119155 -0.5674898 
0.9321342 -0.17932361 -0.31459305 
0.382372 -0.5129511 -0.7685525 
0.17393802 -0.9824347 0.0675845 
-0.5240524 -0.84286183 -0.1222832 
0.060089156 -0.965334 0.25400704 
-0.27564415 -0.5695277 -0.7743763 
0.26927558 -0.9384328 -0.21641293 
-0.021612376 -0.86188245 0.50664747 
-0.27942348 -0.7870282 0.5500085 
-0.7614193 -0.64737654 -0.033829466 
-0.40977624 -0.8547829 -0.3184803 
0.38330308 -0.11868661 0.91596526 
-0.36132595 -0.8516701 0.37960708 
-0.4968461 -0.8380892 -0.22527888 
-0.099519506 -0.5625908 -0.82072383 
0.39487565 -0.48817444 -0.7783052 
0.031666826 -0.77920943 -0.6259633 
-0.25160488 -0.2669376 -0.93029 
0.521944 0.29936096 -0.7987225 
0.23084031 -0.43613234 -0.86977094 
-0.30024993 -0.25617725 -0.9188162 
0.036480907 0.5099788 -0.85941315 
-0.14475548 -0.13046725 -0.98082834 
0.23562063 -0.0006748604 -0.971845 
0.20377533 0.64400667 -0.7373812 
-0.041096907 0.8478415 -0.5286548 
0.761772 0.5014736 -0.41015586 
0.43767232 0.7749655 -0.4559292 
0.77748704 0.56796056 0.27006415 
0.94530004 0.18290277 0.27010116 
0.731675 0.51667863 -0.44462907 
0.6496737 0.42702946 -0.62894356 
-0.19438504 0.5142993 -0.83529085 
-0.6700233 0.56926507 -0.47645158 
-0.25155786 0.548928 -0.7971177 
-0.73660046 -0.19530971 -0.6475136 
-0.4737229 -0.23646069 -0.84833544 
-0.3473324 -0.50332165 -0.7912191 
0.074144 -0.20782308 -0.97535247 
-0.9139532 -0.3384566 -0.22391257 
-0.50058967 0.11417441 -0.85812247 
-0.2725017 -0.3486532 -0.8967629 
-0.46097314 -0.31551048 -0.8294317 
-0.39636084 -0.1003495 -0.91259414 
0.018868057 -0.6331431 -0.7738047 
0.03500693 -0.43488592 -0.89980495 
-0.25220475 -0.12085278 -0.9600977 
-0.08158427 -0.1465682 -0.9858305 
-0.33929917 -0.85230976 -0.39805055 
0.37890542 -0.5850193 -0.71706563 
0.16488011 -0.23852718 -0.95703673 
0.7949789 -0.034217022 -0.60567147 
0.47375703 0.13472232 -0.8702898 
0.7601642 -0.26514566 -0.59316796 
0.17048036 0.65085125 -0.73981696 
0.53287196 0.024110664 -0.8458523 
0.6673801 0.12674955 -0.7338518 
-0.42182407 0.04514053 -0.9055534 
0.42610633 -0.4294859 -0.7962257 
-0.08155836 -0.7325421 -0.6758183 
-0.27047604 -0.80079114 0.5343935 
0.13624084 -0.82200384 -0.55294514 
-0.6137789 -0.6067656 -0.5050851 
-0.9216038 -0.13344248 -0.36447173 
-0.13890396 -0.67570883 -0.72396356 
0.40292117 -0.63871163 -0.6555166 
0.24869026 -0.92282027 -0.2942038 
0.18989135 -0.7599614 -0.6216109 
0.48609003 -0.28793386 -0.82511246 
0.92337805 -0.17229246 -0.34305748 
0.9217141 -0.25377464 -0.29332843 
0.53976977 -0.8167454 -0.20390058 
0.4734716 -0.8782823 -0.06666967 
0.65197736 -0.7571161 -0.041239973 
0.14439404 -0.9662947 0.2131315 
0.6166813 -0.74307126 -0.2599026 
0.44144738 -0.6769762 -0.5889207 
0.24435797 -0.9696835 0.0017307858 
0.19813651 -0.76644987 -0.61098003 
0.14045365 -0.9205281 -0.36455578 
0.3324269 -0.5968176 -0.7302747 
-0.09563951 -0.9953987 0.0058913943 
0.79191715 -0.37882265 -0.47891617 
-0.43189988 -0.6269014 -0.6484268 
-0.64036614 -0.44410357 -0.62666047 
-0.10429589 -0.27046868 -0.9570628 
0.20902184 -0.42219153 -0.8820795 
-0.7381729 -0.3598487 -0.57062227 
-0.32923132 -0.46905833 -0.81950665 
0.118466504 -0.20511726 -0.9715414 
0.33502683 0.25828394 -0.90611625 
-0.109969534 0.08133496 -0.9906016 
0.2895525 -0.25021276 -0.9238794 
0.11811775 -0.30508617 -0.9449713 
0.1651501 -0.9718348 0.16811515 
-0.40885115 -0.7995108 -0.44002658 
-0.1382725 0.017827487 -0.9902338 
-0.12938446 0.058973324 -0.9898394 
0.16285719 0.2453666 -0.95565313 
0.11593426 -0.45353997 -0.88366324 
0.05969978 -0.85514283 -0.5149435 
0.76191086 -0.44166636 -0.47373277 
0.57702076 0.06308555 -0.81428945 
0.48966438 -0.65565103 -0.57476133 
0.3798092 -0.6391511 -0.66875327 
0.17939924 -0.95208377 -0.24769428 
0.16185956 -0.9826648 -0.09039526 
-0.122365214 -0.9718536 -0.20131424 
0.033883207 -0.29956147 -0.9534752 
-0.38466325 -0.81294346 -0.43721524 
-0.6559711 -0.5819925 -0.48061082 
-0.5938905 -0.42155585 -0.6852626 
-0.28480288 -0.9447072 0.16252889 
-0.35584655 -0.83207995 -0.4254602 
-0.44772902 -0.80448407 -0.39031315 
-0.12238635 -0.5398624 -0.8328087 
0.5352923 -0.5824189 -0.6117601 
0.2178287 -0.70479083 -0.67514485 
0.21886285 -0.89712375 -0.383755 
0.24973683 -0.78810424 -0.5626039 
-0.27703914 -0.53557163 -0.7977547 
0.33767626 -0.92286927 -0.18516813 
0.12363658 -0.794957 -0.5939338 
0.93958056 -0.31082258 0.1434496 
0.59452593 -0.79353815 0.12975451 
0.8853383 -0.16932613 0.43301827 
-0.24851458 -0.16037078 0.9552601 
-0.20798281 -0.62341964 0.7537182 
-0.68061846 0.11257728 0.72393715 
-0.83788097 -0.045941316 0.54391617 
-0.93391454 -0.34526646 0.09270795 
-0.26371336 -0.80598193 -0.5299514 
-0.5215173 -0.75656325 -0.39450216 
-0.37203005 -0.53260285 -0.76021576 
-0.6210878 0.22267331 -0.751443 
-0.6183998 -0.6807763 -0.39258808 
-0.22636537 -0.9086944 -0.35076115 
-0.6433882 -0.5273697 -0.5549171 
-0.5001537 -0.24571346 -0.830344 
-0.11302294 -0.47479084 -0.8728113 
0.59562224 -0.444974 -0.66875434 
0.15664251 -0.966434 -0.20363829 
-0.28407416 -0.53721386 -0.79416823 
0.097118005 -0.9082475 -0.4070069 
-0.55446535 -0.83105433 -0.04378382 
-0.8504845 -0.52598983 0.0033098627 
-0.38803115 -0.78115594 -0.4891088 
-0.12368386 -0.8816167 -0.45547175 
-0.1736064 -0.52063143 -0.8359449 
-0.577441 -0.307289 -0.7563964 
-0.2091491 -0.42610574 -0.88016504 
-0.17894925 -0.94940543 -0.25808254 
-0.52848 -0.5226116 -0.66901875 
-0.17374901 -0.20077956 -0.9641053 
0.015857767 -0.5380548 -0.8427608 
-0.3412246 -0.296011 -0.8921565 
-0.06852698 0.14628522 -0.9868662 
-0.0015444296 0.248581 -0.9686099 
0.17505866 0.2842899 -0.94262075 
-0.16074023 0.0023890594 -0.9869939 
0.12702137 -0.29675832 -0.94646716 
-0.2758283 -0.527199 -0.8037289 
0.12993681 -0.11745663 -0.9845407 
0.6395458 0.32955706 -0.694531 
-0.23793179 -0.35138595 -0.9054923 
0.24233916 0.1378075 -0.96035457 
-0.40200195 -0.88674253 -0.22821492 
-0.66138554 -0.3233692 -0.6767581 
0.6392192 -0.07204525 -0.76564246 
0.63785326 -0.3507301 -0.68566144 
0.56925434 -0.57992274 -0.5827858 
0.21138461 -0.84326696 -0.4941837 
-0.48171952 -0.8715999 -0.09088487 
-0.3638034 -0.93124634 -0.020673174 
-0.28881276 -0.9487929 0.12798186 
0.2442114 -0.86850476 -0.43134698 
-0.1412512 -0.98980665 -0.018195169 
-0.38743246 -0.92176455 -0.015691595 
0.44693676 -0.8927728 -0.05660559 
-0.59307176 -0.75626 -0.27629098 
-0.27949488 -0.8843712 0.37385857 
0.16184281 -0.42525116 -0.89048773 
-0.022839408 -0.7819282 -0.6229501 
-0.43491402 -0.84387845 -0.31419608 
-0.24871013 -0.5025587 -0.8279964 
-0.46444863 -0.219439 -0.8579826 
-0.5526356 -0.7472826 -0.36900237 
0.3020484 -0.50920457 -0.80590177 
0.49531844 -0.32542866 -0.8054539 
0.17418401 -0.9731394 -0.1505311 
0.07509027 -0.97468764 -0.2105841 
-0.5186834 -0.83545566 0.18160795 
0.42744276 -0.6471247 -0.63128626 
-0.2722868 0.6434895 -0.71538895 
-0.52326393 -0.09954271 -0.8463369 
0.030420821 -0.9704923 -0.23920576 
-0.779752 -0.28072503 -0.5596251 
-0.32871366 -0.10836568 -0.938192 
-0.43785784 -0.27805844 -0.85496444 
-0.8705936 -0.19024692 -0.4537321 
0.27626187 -0.38482884 -0.8806737 
0.026381224 -0.9767101 -0.21293582 
0.21078373 -0.91674656 -0.33933192 
-0.09872884 -0.87434334 -0.47515935 
-0.311092 -0.36081806 -0.8792225 
-0.242388 -0.20314285 -0.94867337 
-0.3510675 -0.4663103 -0.81197685 
0.22021541 -0.90345246 -0.3678029 
-0.10267858 -0.032786053 -0.9941741 
0.32261303 -0.6921414 -0.6456479 
-0.12501658 -0.36730093 -0.9216621 
-0.021130415 -0.30214298 -0.9530285 
0.33506402 0.34578243 -0.87645125 
0.64857656 -0.012204631 -0.76105165 
0.3388364 0.25707752 -0.905042 
-0.20086898 -0.67513835 -0.70981675 
0.23638396 -0.5124964 -0.82551205 
0.5368842 -0.22747579 -0.8124101 
0.58713 0.30523744 -0.749739 
0.7019305 -0.48139068 -0.5249349 
0.7504212 -0.030259483 -0.6602669 
0.5636662 -0.4674663 -0.6809962 
-0.9462174 -0.15013473 -0.2865872 
-0.6085265 0.1725973 -0.77453583 
-0.2779027 -0.41102687 -0.8682321 
-0.8348301 -0.5412806 -0.100369565 
-0.74901706 0.27612302 -0.60227036 
-0.3175161 -0.1675005 -0.9333419 
-0.42624536 0.22031114 -0.87736994 
-0.24360879 0.16919318 -0.95500183 
-0.2036213 -0.76750404 -0.6078453 
-0.30772933 -0.5427248 -0.7815066 
0.17158298 -0.083376236 -0.9816353 
0.173592 -0.2964233 -0.93914807 
0.05619519 -0.5196817 -0.85250986 
-0.18674053 -0.3154091 -0.9304005 
-0.17638502 -0.26022545 -0.9493003 
-0.64501977 -0.37782413 -0.6642277 
-0.7476256 -0.08324187 -0.6588831 
-0.5044836 0.020640505 -0.86317456 
-0.93917966 0.23965056 -0.2459864 
-0.3236638 -0.22158605 -0.91985947 
-0.43444368 -0.120640524 -0.8925831 
-0.49509898 -0.6623003 -0.5623481 
-0.8522029 -0.43299502 -0.29370987 
-0.40315363 -0.40683952 -0.81972486 
-0.0746887 0.3465485 -0.93505394 
-0.49260983 -0.59895086 -0.63134265 
-0.6121435 -0.7176537 -0.33204457 
0.15522607 -0.49686232 -0.8538342 
0.36136708 -0.5383608 -0.7613026 
0.57611454 -0.50114584 -0.64571273 
-0.53655046 0.26851022 -0.80000997 
0.119840674 -0.5230889 -0.8438106 
-0.14148855 -0.2020925 -0.96909225 
-0.541552 -0.6022344 -0.58654505 
0.3815682 -0.90276396 0.19855276 
-0.12197244 -0.74088293 -0.66046596 
-0.06446344 -0.57031405 -0.8188935 
0.35103858 -0.4946443 -0.79504657 
0.046741627 -0.9984136 -0.031392448 
-0.12588933 -0.97419155 -0.18735766 
-0.033046193 -0.71274114 -0.70064837 
0.11757359 -0.99290615 0.017715022 
-0.28844765 -0.93825144 0.1910034 
-0.26214084 -0.9293816 -0.2598693 
-0.7081598 -0.44321918 -0.5496058 
-0.5454183 -0.3903632 -0.7417112 
-0.32906833 -0.33102268 -0.88438576 
-0.3585873 -0.27850577 -0.8909825 
-0.14736675 -0.46409824 -0.87343913 
0.116608 -0.32941258 -0.93695784 
-0.27872375 -0.06408701 -0.9582307 
0.11956919 -0.88871884 -0.4425857 
0.32079574 -0.72383165 -0.6108666 
-0.31051025 -0.26489606 -0.9129149 
-0.53138286 0.3486922 -0.7720402 
0.08785778 0.6753347 -0.73225963 
-0.2976567 0.5099314 -0.8070753 
0.56322885 0.060539566 -0.8240803 
0.5164645 -0.2444839 -0.82066566 
0.65737647 0.49086472 -0.5717587 
0.78133017 -0.0042192973 -0.6241038 
0.33735812 0.38468543 -0.8591895 
0.813352 0.578865 0.058086593 
0.7192741 0.25304374 0.6470036 
0.2619742 0.8974363 -0.3549334 
0.24320148 0.9699696 -0.0034654033 
0.23861413 0.50700504 -0.8282568 
-0.45941815 0.85649806 -0.23525746 
-0.69978935 0.51931995 -0.49051175 
-0.6893415 0.72394 0.026818229 
-0.89634466 -0.26796532 -0.35321525 
-0.4822566 -0.38187423 -0.78841656 