# OOMMF: rectangular mesh v1.0
# Segment count: 1
# Begin: Segment
# Begin: Header
# Desc: Time (s) :  5.620000000000009e-07
# Title: m
# meshtype: rectangular
# meshunit: m
# xbase: 2e-09
# ybase: 2e-09
# zbase: 5e-10
# xstepsize: 4e-09
# ystepsize: 4e-09
# zstepsize: 1e-09
# xmin: 0
# ymin: 0
# zmin: 0
# xmax: 1.024e-06
# ymax: 1.024e-06
# zmax: 1e-09
# xnodes: 256
# ynodes: 256
# znodes: 1
# ValueRangeMinMag: 1e-08
# ValueRangeMaxMag: 1
# valueunit: 
# valuemultiplier: 1
# End: Header
# Begin: Data Text
-0.45734972 -0.5543329 -0.6953749 
-0.3477524 -0.0550299 -0.9359701 
-0.032168772 0.36116055 -0.9319486 
0.12008442 -0.6283541 -0.76860327 
0.011410099 -0.47605887 -0.87933946 
0.78044194 -0.60970354 -0.13846323 
-0.57245874 -0.7001177 -0.4267625 
-0.5121547 0.03293276 -0.8582617 
-0.7122119 -0.43428984 -0.5514949 
-0.072100505 -0.42660645 -0.90155894 
0.3184977 -0.66172326 -0.6787354 
0.42552805 -0.61080873 -0.66771144 
0.3915534 -0.8242832 -0.40895376 
0.48881495 -0.84995204 0.19657433 
-0.002648267 -0.8892604 0.45739356 
0.2995448 -0.9123623 0.27904862 
0.4980074 -0.8346833 -0.23514366 
0.29249147 -0.8890003 -0.35231692 
0.33963063 -0.89842355 -0.27836353 
0.81372726 -0.4456084 0.37320396 
-0.267343 0.0891561 0.95946807 
-0.9744872 -0.20752785 0.085481465 
-0.5892387 -0.7763309 0.2238487 
0.26734906 -0.93410563 -0.23658244 
-0.112342834 -0.7731867 -0.62414867 
-0.22545001 -0.9437013 -0.24207443 
0.44406804 -0.7293139 -0.52048516 
-0.30833113 -0.8680858 0.38904893 
-0.51898557 -0.77204686 -0.36687553 
-0.9121104 -0.37890303 -0.1564839 
-0.8564291 -3.564615e-05 -0.5162648 
-0.2176078 -0.96158403 0.16734144 
-0.24084382 -0.96491456 0.10456724 
-0.31680107 -0.50814193 -0.80089265 
0.0034527315 -0.9701794 0.24236386 
0.43552682 -0.16602157 -0.88473344 
-0.4966878 -0.7432718 -0.44816107 
0.16171756 -0.97886914 -0.12515081 
-0.25922492 -0.76750654 -0.58629024 
0.09052636 -0.5053971 -0.8581252 
-0.65616685 -0.49836385 -0.566638 
-0.7425136 -0.48957518 -0.45715395 
-0.60663533 -0.68149346 -0.40934122 
-0.449649 -0.5008361 -0.7395804 
-0.077749915 -0.69431627 -0.71545786 
-0.24539322 -0.08878387 -0.96534944 
-0.37126985 -0.30428544 -0.87725085 
0.3907759 -0.87428 0.28797346 
-0.14625473 -0.6086104 0.77987367 
-0.18727233 -0.85415316 0.48513052 
-0.87858844 -0.47386843 -0.059424434 
-0.93879414 -0.24519667 0.24195917 
-0.5118371 -0.82114303 0.2524814 
0.2510808 -0.61115533 0.75063145 
0.5575089 -0.79378575 0.24308029 
-0.10841289 -0.9937662 0.025988214 
0.41745892 -0.6150995 -0.6688653 
-0.38450387 -0.3059002 -0.870966 
-0.14106028 0.059030212 -0.9882396 
0.41465166 -0.08473462 -0.90602654 
0.76396406 0.3818249 -0.5201624 
-0.12513468 -0.97857684 -0.16348939 
-0.08282401 -0.9385693 -0.33500418 
-0.06655997 -0.57800114 0.813317 
-0.2747663 -0.7935133 0.542992 
-0.99563104 -0.049581904 0.07912321 
-0.85619676 -0.41008174 0.3142612 
-0.7370299 -0.5965729 -0.3176284 
-0.6141672 -0.45575106 -0.6442746 
-0.58324844 0.074219406 -0.808896 
-0.80254453 0.21343908 -0.55710506 
-0.6649326 -0.2512648 -0.70337087 
-0.4252456 -0.20773512 -0.8809157 
0.6506196 0.10180633 -0.7525488 
0.5029318 -0.25235957 -0.8266646 
0.5003317 -0.53751093 -0.67878586 
0.6358986 0.16693717 -0.75350183 
0.50640225 -0.859662 -0.06736437 
0.59413195 -0.6608817 -0.45852226 
0.29908013 -0.9072582 -0.2956919 
0.45083347 -0.89052325 -0.060971193 
0.57516515 -0.79871494 -0.17674695 
0.7523058 -0.370028 0.5450828 
-0.46219352 -0.5701466 0.67919815 
-0.53887945 -0.29846552 0.7877356 
-0.7989858 -0.23529616 0.5534053 
-0.76271886 -0.23566057 -0.60226595 
-0.046096586 -0.14362764 -0.9885577 
0.19328098 0.34357232 -0.9190216 
0.43809885 -0.01235191 -0.8988419 
0.22317298 0.38181135 -0.89689124 
-0.17152226 -0.9637157 -0.20452963 
-0.23757808 -0.6023417 0.7620637 
0.9101965 -0.3925025 0.1322275 
0.18938553 -0.9750688 -0.11564643 
0.0038226817 -0.30065975 0.95372385 
-0.3161879 -0.8286609 0.4618945 
0.033998556 -0.838843 0.5433108 
0.5492571 -0.7927101 0.26443788 
0.91718847 -0.29148263 -0.2716677 
0.81914157 -0.57290304 0.028093087 
0.30302736 -0.51566523 0.8014137 
0.48114622 -0.7448861 0.4622154 
0.3377864 -0.15831053 0.92781365 
0.30544883 -0.46731627 0.8296485 
-0.5283317 -0.25056306 0.8112237 
-0.5972611 -0.63660926 0.48786053 
-0.5411609 -0.5402191 -0.64444417 
-0.7416708 -0.28064305 -0.6092323 
0.5011669 -0.5263366 -0.68687814 
-0.71572036 -0.67522526 -0.1783683 
0.010298051 -0.49886742 -0.8666172 
-0.5824148 -0.08134806 -0.8088112 
-0.017121803 -0.9773713 -0.21083724 
-0.20541403 -0.8595567 -0.46793967 
0.0097336555 -0.83758634 0.5462182 
-0.116238356 -0.8011167 0.5871123 
-0.4464762 -0.8879144 -0.11075645 
-0.95237684 -0.30283493 -0.035627272 
0.07289617 -0.5213225 -0.85024065 
0.3459599 -0.23891136 -0.907322 
0.9085698 -0.1603174 0.38574526 
0.93898517 0.16668686 0.30086955 
0.33329976 -0.8785501 0.34214184 
0.549254 -0.4193582 -0.72281307 
0.35515037 -0.28998992 -0.8886923 
0.29952455 -0.16584012 -0.93956494 
-0.19855748 0.08966386 -0.9759792 
0.7270242 -0.36097947 -0.5840631 
0.22419494 -0.08637616 -0.97070897 
0.21486515 0.15297595 -0.96458876 
0.7423561 0.61876595 0.256975 
0.28913683 -0.32121956 -0.901786 
0.48556402 0.7054785 -0.51626337 
-0.27102193 0.874702 -0.40180066 
-0.2488116 0.96849704 0.0103075495 
0.5092574 0.7695762 -0.38523945 
0.96587425 0.22726212 -0.12425384 
0.5680683 -0.8227364 0.020081382 
0.9991683 0.023307491 0.033460855 
0.93885654 0.050750427 0.34054786 
0.9416683 0.121831864 0.31371623 
0.66230255 0.5396311 0.51976305 
0.3263948 -0.5096258 0.79608303 
-0.23654896 -0.76636475 0.5972686 
0.25013375 -0.3599816 -0.89880276 
-0.34873578 0.30400717 -0.8865456 
0.15024495 -0.64815146 -0.7465428 
0.88402283 -0.45382464 0.11201335 
0.86912936 0.46136984 0.17819102 
0.67620426 -0.4429862 -0.58865196 
0.11961051 -0.9926824 -0.016589575 
0.17567748 -0.77032983 -0.6129678 
-0.43643472 -0.55245954 -0.7101501 
-0.062163316 -0.6900615 -0.72107625 
0.08339689 -0.79646975 -0.5988998 
-0.5026444 -0.2692214 -0.8215038 
-0.09275716 0.5216126 -0.84812534 
0.3122408 0.47947574 -0.8201272 
0.032746278 0.45922717 -0.88771516 
0.44784173 -0.3183058 -0.8355353 
-0.38794348 -0.5791581 -0.7169908 
0.17476489 0.04905488 -0.9833874 
0.48046178 -0.11267743 -0.86974734 
0.38943434 -0.91569835 0.09918354 
0.08036873 -0.81751025 -0.57027894 
-0.70921034 -0.1561849 -0.6874788 
-0.24696645 -0.101901375 -0.9636513 
-0.589596 -0.38623604 -0.7093648 
-0.33477995 -0.34961942 -0.87503636 
-0.10495667 -0.40311527 -0.9091107 
-0.16228129 -0.05221474 -0.9853622 
0.7455294 -0.47164178 -0.47089276 
0.54994583 -0.23249465 -0.8021881 
0.5169474 0.12814108 -0.8463719 
-0.6223071 0.23118238 -0.747856 
0.6066728 -0.35238633 -0.7125812 
0.16994624 -0.52389795 -0.8346552 
0.3592492 0.103315875 -0.9275052 
0.80977327 -0.2870955 -0.5117065 
0.50969243 0.74348783 0.43294287 
0.4196963 0.60651004 0.6752781 
0.7947043 0.5231221 0.30787736 
-0.11193583 -0.7043559 -0.7009659 
-0.52821606 -0.39724 0.7504586 
0.23434776 -0.95753986 -0.16792436 
-0.119106986 -0.991504 0.05228278 
-0.8668432 -0.47880894 0.13901421 
-0.7487462 -0.5914525 -0.2992712 
-0.3475285 -0.9113755 0.22049657 
-0.6104764 -0.7803385 -0.13561161 
-0.60756606 -0.64650863 -0.4614003 
-0.13974296 -0.990055 -0.016221281 
0.0955858 -0.99541146 0.0043955883 
-0.15243594 -0.9883104 0.0024356986 
0.44766968 -0.8933231 -0.03956827 
0.51184934 -0.8543187 -0.09027619 
0.006045813 -0.112384476 -0.9936465 
0.027731301 -0.21332987 -0.9765866 
0.63786674 -0.5790807 -0.5077318 
0.55829424 -0.16994606 -0.81205046 
-0.08413849 0.9576416 -0.2753968 
0.20357256 0.90969414 -0.36195967 
-0.2015014 0.58750737 -0.7837298 
-0.66295034 0.6128075 -0.43007433 
-0.23085551 0.9338596 -0.2731523 
-0.74886066 0.13379814 0.64908075 
-0.86561054 -0.4764153 0.15410052 
-0.9052801 0.18871352 -0.38059837 
0.35204664 -0.4540514 -0.8184746 
0.20881407 -0.06288774 -0.9759313 
-0.7883108 0.0061679436 -0.6152464 
-0.6927987 -0.22594176 -0.6848215 
-0.7989747 -0.5919585 -0.10594633 
-0.34018436 -0.7447262 -0.5741582 
-0.257673 -0.8013308 -0.53988296 
-0.528918 -0.80855423 -0.25784844 
-0.3211337 -0.81421405 -0.48366186 
-0.43233764 -0.89977765 -0.059030592 
-0.4347998 -0.8495095 0.29880235 
-0.4502101 -0.8273632 0.33582917 
-0.340111 -0.9332893 0.11530638 
0.44345835 -0.89368737 -0.068320796 
-0.19426692 -0.5731543 0.7960871 
-0.45663705 -0.73765016 -0.49734795 
0.44799176 -0.40512162 -0.79698175 
0.14891611 -0.43602914 -0.8875261 
-0.29202253 -0.49675018 -0.81728953 
0.22425702 -0.6171253 -0.75423163 
0.49338108 -0.53204864 -0.688113 
0.17576198 -0.020741532 -0.98421425 
0.06906823 0.61493826 -0.7855448 
0.25787333 -0.33292964 -0.9070057 
0.91978794 -0.3377347 0.19981366 
0.3243845 -0.88218457 -0.3413579 
-0.10681629 -0.99422187 -0.010639422 
-0.8087697 -0.5570463 0.1886563 
-0.07129979 -0.94165623 0.3289374 
-0.18960606 -0.7344472 -0.65164167 
0.47779474 -0.8013329 -0.35996944 
0.59800273 -0.6814745 -0.421883 
0.3193432 -0.9450973 0.06936188 
0.014563417 -0.9831766 0.18207614 
-0.38777956 -0.7309219 0.5615873 
-0.35588187 -0.36566335 0.86002237 
-0.42898643 0.053917285 0.9017004 
-0.646554 -0.021964604 0.76255196 
-0.6470439 -0.6571532 -0.38663173 
-0.7536807 -0.5372921 -0.37852693 
-0.026617674 -0.6255598 -0.779722 
-0.8153521 0.27048993 -0.5118949 
-0.18851127 -0.09240674 -0.9777139 
-0.06158525 -0.37001938 -0.9269806 
0.24945325 -0.78260654 -0.57035077 
-0.4538589 -0.89089996 -0.017588526 
-0.35633424 -0.5935092 -0.72164595 
-0.21945435 0.033136066 -0.97505987 
-0.079243965 0.14341673 -0.9864847 
-0.24334599 0.5220627 -0.8174554 
0.10773022 -0.6321705 -0.7673036 
-0.1671438 -0.6479951 -0.74307823 
0.16018996 -0.77120394 -0.61610365 
0.21665141 -0.29464856 -0.9307226 
-0.51869744 0.16560696 -0.83876544 
-0.13093388 -0.6071312 -0.78373975 
-0.3606333 -0.35519683 -0.8624262 
0.14470832 -0.06997173 -0.9869972 
0.22665802 -0.16238002 -0.9603431 
0.28057 -0.47345617 -0.834937 
0.63957435 -0.766669 -0.056243304 
-0.2431071 -0.9674074 0.07086548 
0.40975058 -0.90695745 0.09763457 
0.33052853 -0.86544853 -0.37649658 
-0.15768166 -0.969013 -0.19013287 
0.5188422 -0.8187691 0.24580494 
0.011529018 -0.86630756 0.49937797 
-0.7115002 -0.4611007 0.5302392 
-0.56099886 -0.71262306 0.42124674 
-0.45342207 -0.87891364 -0.14805238 
-0.14548306 -0.9533612 -0.26445642 
-0.48367321 -0.7425762 -0.4632935 
-0.0027440933 -0.91282195 -0.40834874 
0.46741933 -0.8087362 -0.35702264 
-0.17303294 -0.85945916 -0.4810297 
-0.5742495 -0.789829 -0.21542415 
-0.20776065 -0.741941 -0.63746303 
-0.40868708 -0.8156343 -0.40953106 
0.2903683 -0.9019378 -0.31967866 
0.19422057 -0.9747888 -0.109841466 
-0.058158223 -0.9546752 -0.2919125 
0.26327682 -0.9535994 0.14605993 
0.41152725 -0.9070896 0.088509224 
-0.45106405 -0.56016123 -0.6948098 
-0.4935424 -0.81338656 -0.30792603 
-0.04724468 -0.37546986 -0.9256298 
-0.39168808 -0.55471176 -0.7340813 
-0.15084481 -0.6034366 -0.7830135 
-0.46512753 -0.27243158 -0.84228116 
-0.64085704 -0.6294215 -0.43946654 
0.5482466 -0.49098194 -0.6770247 
0.27572522 -0.58260334 -0.7645581 
0.58481723 -0.59259003 -0.5539188 
0.87875664 -0.41996667 0.22674818 
0.77047724 -0.5930713 -0.23373368 
0.6156392 -0.74568045 0.25485128 
0.19800328 -0.54505086 0.81468666 
-0.5329478 -0.39931196 0.7460005 
-0.95862436 -0.1891027 0.21279013 
-0.81368154 -0.30166575 0.49691063 
-0.125708 -0.73778754 0.66322476 
-0.34171337 -0.86738485 0.36176744 
0.50688726 -0.85770905 -0.08602645 
0.68732965 -0.41712826 -0.5946277 
-0.023581203 -0.40430644 -0.91431963 
0.45397526 -0.05433152 -0.88935626 
0.6150075 -0.010660894 -0.7884493 
0.78223604 -0.6048859 -0.14906351 
0.6700573 -0.51886255 0.5308531 
0.4819986 -0.8414335 -0.2442684 
0.68868107 -0.21968867 0.69098145 
0.18735799 -0.32770494 0.92601645 
-0.28845915 -0.56753886 0.7711621 
-0.6419218 -0.56269574 0.5208743 
-0.6447968 -0.70747554 -0.28933632 
-0.06361451 -0.4260164 -0.90247625 
-0.40436593 -0.5197383 -0.75256914 
-0.8375176 -0.09911535 -0.53734577 
-0.5350275 0.1705182 -0.82744735 
-0.0906515 0.23487207 -0.96779007 
0.22773284 -0.8730158 -0.43125522 
0.11344647 -0.12446322 -0.9857174 
0.91027063 0.05041144 -0.41093343 
0.8028936 0.5952629 0.032003086 
0.69790727 -0.54269063 -0.46734598 
0.9743667 -0.17262699 -0.14425491 
0.82870865 0.12334544 -0.54591936 
0.7074022 -0.64635646 -0.28601646 
0.6267935 -0.76782197 -0.13258727 
-0.14387858 -0.7430315 0.6536078 
-0.45936283 -0.6703953 0.5827144 
-0.70244044 -0.6795269 0.21170904 
-0.9679381 0.040153477 -0.24795865 
-0.8125206 0.294541 -0.5030466 
0.14486192 -0.3297191 -0.9328989 
0.35335273 -0.005634753 -0.93547326 
0.4193389 -0.5179953 -0.745544 
0.12670648 -0.92786294 -0.35073626 
-0.47116408 -0.5637496 -0.67837375 
-0.5785755 -0.3744626 -0.7245883 
0.24860615 -0.8552501 -0.4546893 
0.45293897 -0.788395 -0.41626891 
-0.1392923 -0.9582573 -0.24968101 
-0.069092736 -0.8823173 -0.46555594 
0.22217362 -0.93312997 -0.2826792 
0.47514978 -0.71366686 -0.5146963 
0.39724138 -0.84609824 -0.3554111 
0.5471512 -0.8324152 -0.08780934 
0.43302673 -0.9005457 -0.03879758 
0.4125834 -0.90187794 -0.12802772 
0.6029987 -0.69684744 0.38832492 
0.017625626 -0.8557467 0.5170948 
0.23295082 -0.5940754 0.7699406 
-0.28714362 -0.95782775 -0.01071023 
-0.42202505 -0.5334604 -0.7330177 
-0.20478004 -0.8110977 -0.54789215 
-0.1587776 -0.76408297 -0.6252735 
-0.2764517 -0.9542017 0.11433957 
-0.7098524 -0.13636148 -0.6910248 
-0.24678403 -0.61448723 -0.74933517 
-0.1865671 -0.9815046 0.042913128 
-0.06813265 -0.560973 -0.82502574 
0.27153522 -0.92226684 0.27512285 
-0.30067813 -0.92197996 0.24401948 
-0.50127697 -0.74320066 -0.44314128 
-0.6473522 -0.6572078 0.3860222 
-0.47332707 -0.34085453 -0.8122684 
-0.22827993 -0.025218682 -0.9732689 
0.7404267 -0.46155846 -0.4886023 
0.49662593 -0.597019 0.6300246 
0.44687766 -0.872499 -0.19760069 
-0.18981327 -0.048347153 -0.98062915 
0.7205004 -0.46458632 -0.5148191 
0.47826675 -0.81028205 -0.33867976 
-0.016652944 -0.53729504 -0.8432299 
0.41218668 -0.1594347 -0.8970411 
0.41620627 -0.016653085 -0.9091178 
0.35577485 0.3967317 -0.84618455 
0.2580484 0.8240249 -0.50437504 
0.11879196 0.2648675 -0.95693976 
0.09938703 0.5234317 -0.8462514 
0.56256723 0.64020276 -0.5231238 
0.3685837 0.63712645 -0.67691654 
0.8811474 0.44998696 -0.14522728 
0.9635059 -0.16081153 0.21399993 
0.9128186 -0.4004456 0.080035314 
0.97541326 -0.20238517 -0.08723059 
0.9305851 -0.25483292 0.26281482 
0.63456535 -0.15776473 0.75659585 
-0.124163814 -0.5067003 0.85313445 
-0.10833604 -0.776263 0.6210306 
-0.9553746 -0.19613273 0.220888 
-0.47856334 -0.7799749 -0.4032573 
0.10316784 -0.27590036 -0.9556336 
-0.060791384 0.21224281 -0.9753243 
0.640229 -0.6668295 -0.38137287 
0.80912095 -0.5124412 -0.28762352 
0.80762047 -0.5849413 0.07478633 
0.14656942 -0.5925961 -0.79205257 
0.31086043 -0.45965958 -0.8319128 
0.29739696 -0.41149712 -0.861525 
0.22275473 -0.5210025 -0.8239762 
0.10282799 -0.6096235 -0.7859935 
0.31161833 -0.48452523 -0.8173918 
0.47027528 0.41375697 -0.7795168 
-0.055007834 0.032780875 -0.99794775 
0.11585654 -0.28656703 -0.95102924 
-0.20911059 -0.6351705 -0.7435262 
-0.26116398 -0.46929374 -0.8435382 
-0.2889675 0.029786622 -0.95687544 
-0.22382805 -0.043521173 -0.9736565 
0.6269254 -0.4032324 -0.66660947 
0.3117548 -0.31740803 -0.8955787 
-0.6376255 -0.118648864 -0.76115453 
-0.29286468 0.21554008 -0.9315433 
-0.26535547 0.11925208 -0.95674735 
-0.65696496 -0.3283607 -0.6786577 
-0.98172456 -0.15865213 -0.105102725 
-0.32246205 -0.4574101 -0.8287306 
0.17742501 -0.06911963 -0.9817041 
0.1893408 -0.37572518 -0.9071828 
-0.5329642 0.2544984 -0.80695707 
0.6975108 -0.44550085 -0.56125563 
-0.19020858 0.30322596 -0.9337423 
0.36009762 -0.24321337 -0.90065366 
0.4632966 0.19280514 -0.8649754 
0.7035222 0.70951647 -0.0405343 
0.8946183 0.2604769 0.3630566 
0.8455664 -0.35072193 0.40250695 
0.65973675 0.16632913 0.7328589 
0.4413879 -0.79326206 -0.41941872 
-0.24731876 -0.556144 0.79343385 
-0.597134 -0.79490435 -0.10750954 
-0.20194302 -0.6216987 -0.756776 
-0.72684145 -0.53655684 -0.42872864 
-0.6510571 -0.734157 -0.19271266 
-0.6603382 -0.7384783 -0.13639396 
-0.7490984 -0.59552324 0.29017863 
-0.50688857 -0.8609207 -0.04335366 
-0.09704022 -0.8810435 -0.46297467 
0.08958167 -0.8273353 -0.5545193 
0.68932086 -0.40024415 -0.60385543 
0.2346937 -0.56748027 -0.78923064 
0.73079497 -0.3165744 -0.6047475 
0.2104819 -0.13372234 -0.9684088 
0.42574915 0.030713659 -0.9043198 
0.668107 0.0038792451 -0.74405515 
0.49528715 0.14423296 -0.8566724 
0.20029216 0.9725146 0.118737064 
0.12366807 0.9922949 -0.0075642625 
0.20246692 0.96721274 0.15331912 
0.6360357 0.75871205 -0.14076446 
-0.1735246 -0.031513024 -0.98432523 
-0.85824007 0.22846623 -0.45959476 
-0.61265796 0.052270483 -0.7886178 
-0.6770195 0.40022328 -0.61762935 
-0.3998786 -0.23786797 -0.88516444 
-0.08390232 -0.016609136 -0.9963356 
-0.37711397 -0.47102833 -0.7974443 
-0.19127227 -0.37314373 -0.90784293 
-0.7316748 -0.5154487 -0.44605464 
-0.45217767 0.20133267 -0.86890775 
0.08509063 -0.67941874 -0.72880024 
-0.17545573 -0.872329 -0.45635253 
-0.30458337 -0.7717891 -0.55818516 
0.21885605 -0.9748434 0.042219333 
-0.0073913475 -0.91012704 0.41426322 
-0.27896357 -0.7998184 0.53147894 
0.008389704 -0.96368223 0.26691997 
0.19318898 -0.97970915 0.05336702 
-0.3481552 -0.93725413 0.018508924 
-0.37889442 -0.9178665 -0.11815303 
0.27234748 -0.9191547 -0.28457248 
0.32750517 -0.58448625 -0.74237204 
-0.55668455 -0.43066585 -0.7103727 
-0.21368113 0.13341126 -0.9677509 
-0.09640784 -0.15420099 -0.98332477 
-0.5152077 -0.7120841 -0.47696677 
-0.06846867 -0.2780387 -0.9581266 
0.58440936 -0.78519946 -0.20476213 
0.94148934 -0.21429196 0.26014796 
0.25437808 -0.9045662 -0.34212828 
0.07449308 -0.9837978 0.16307294 
-0.6065914 -0.7938522 -0.042961538 
0.42523512 -0.8845845 -0.19153474 
0.20991652 -0.863962 -0.45771688 
-0.43108952 0.27737877 -0.8586169 
0.50924575 0.6222762 -0.5945092 
0.5832623 -0.4978006 -0.641872 
0.38414842 -0.922161 0.045267522 
-0.3400072 -0.7907539 0.50902206 
0.2876981 -0.6985582 0.65516895 
-0.19663882 -0.6508204 0.7333254 
-0.962221 -0.15586932 0.22323902 
-0.6931189 0.045454048 -0.71938884 
-0.5219846 -0.85098654 -0.05791376 
-0.30007616 -0.93465644 -0.19071372 
-0.634357 0.020175174 -0.772777 
-0.9256375 -0.14571817 -0.34923002 
-0.34069628 -0.3058126 -0.88904715 
-0.38157645 0.08639246 -0.92029124 
-0.029120307 -0.12938292 -0.991167 
-0.0144089265 -0.27575374 -0.96112037 
-0.4410505 -0.38668698 -0.8099059 
-0.45872042 0.25703585 -0.8505929 
0.18282801 0.087514065 -0.97924227 
-0.14619482 -0.3222423 -0.9353005 
0.11754655 -0.030868744 -0.99258757 
-0.70419234 -0.3321975 -0.6275014 
0.06743263 -0.22531135 -0.9719505 
-0.4321706 -0.53316426 -0.7272995 
-0.41435057 -0.016663741 -0.90996486 
-0.4391245 0.5027601 -0.7445817 
0.3700594 0.5585856 -0.74231946 
0.7484667 -0.021702893 -0.6628172 
0.62164795 -0.5163886 -0.58897936 
0.041215815 -0.8104416 -0.58436793 
-0.23142943 -0.8004248 -0.5529563 
0.24303187 -0.96030474 -0.13693193 
0.2374884 -0.96919984 0.065199204 
0.29331672 -0.9505079 -0.10247109 
0.7906396 -0.504757 0.34656805 
0.065603346 -0.84843063 0.5252253 
-0.81496334 -0.5742196 0.078145705 
-0.70807576 -0.69455975 0.12734029 
-0.65009594 -0.6484935 -0.3960195 
-0.40939006 -0.72368133 -0.55559444 
-0.18217847 -0.78917056 -0.58653295 
-0.13690639 -0.6685135 -0.7309901 
-0.029330658 -0.6195627 -0.7843991 
0.4950118 -0.17224254 -0.8516431 
-0.53191394 -0.43741012 -0.72507936 
-0.053073794 -0.7905569 -0.6100845 
-0.38256487 -0.4878058 -0.7846589 
0.066200264 -0.83477587 -0.5465957 
0.48690468 -0.72282714 -0.49035174 
-0.5495585 -0.82690823 -0.11919851 
-0.37901855 -0.67882854 -0.6289173 
-0.28057244 -0.95056933 -0.13303037 
-0.48355454 -0.84001696 -0.24606203 
-0.15579112 -0.8631469 -0.48031932 
-0.18391967 -0.52015096 -0.8340363 
-0.08667683 -0.61441946 -0.78420407 
-0.5129588 -0.5298482 -0.6753771 
-0.5105883 -0.11544047 -0.85204065 
-0.3209321 -0.18816131 -0.928223 
0.25346383 -0.8566773 -0.4492885 
0.33953902 -0.6633066 -0.6668865 
0.6397852 -0.4671656 -0.61027145 
0.8614965 -0.49801466 -0.099020846 
0.9405444 -0.2217445 -0.2573044 
0.53317916 -0.8323259 -0.15150446 
0.35864952 -0.82775503 0.43149984 
0.3957906 -0.82179534 0.40988082 
-0.4947858 -0.86606485 0.07154572 
-0.02038512 -0.8493488 -0.52743834 
0.23462655 -0.9703999 0.05722248 
-0.33899578 -0.6956686 -0.633346 
0.4056844 -0.7075572 -0.57860434 
-0.09563294 -0.63523096 -0.76637846 
0.038197864 -0.4268397 -0.9035202 
0.48753873 -0.15069477 -0.85999835 
0.65508544 -0.26203012 -0.708663 
0.3381045 -0.93795043 0.07703481 
0.44968382 -0.85578865 -0.2557543 
0.41320708 -0.67157614 -0.61501664 
0.5664702 -0.8215712 0.06428528 
-0.21678731 -0.31552765 0.92382115 
-0.9308197 -0.36464366 -0.024690868 
-0.4608156 -0.6681144 -0.584185 
-0.67226595 -0.6425375 -0.36770108 
-0.19531131 -0.01511057 -0.980625 
-0.48522916 -0.36129394 -0.79625326 
-0.5062694 -0.5703175 -0.6468611 
-0.39915875 -0.08471469 -0.91295993 
0.34791857 -0.020666216 -0.93729705 
0.51316845 -0.12436254 -0.84923035 
0.44096327 0.13808995 -0.8868385 
0.8728553 0.21969517 -0.43572667 
0.9414038 0.26643094 -0.20681725 
0.97092587 -0.08206521 -0.2248742 
0.9808747 0.062370896 0.1843767 
0.7369485 -0.5710236 -0.36171687 
0.6032739 -0.7848185 0.1418476 
0.7854237 -0.59875953 0.15683351 
0.5483044 -0.41584444 0.72555894 
-0.26174 -0.96512073 -0.0058533642 
-0.7048427 -0.70664555 0.062039837 
-0.8511042 0.18188563 -0.49248275 
-0.6206597 0.35716465 -0.6980079 
0.016017314 -0.069497816 -0.9974535 
0.1920058 -0.14073737 -0.9712501 
-0.38919654 -0.4632706 -0.7961824 
-0.0065549267 -0.9327016 -0.36058947 
0.40847015 -0.6955691 -0.5910464 
0.7556697 -0.470074 -0.45606333 
0.4404001 -0.78878814 -0.42879024 
0.3245977 -0.84526235 -0.42446202 
0.24549845 -0.84228253 -0.4798861 
0.30034587 -0.71406776 -0.6323762 
0.021027798 -0.03835937 -0.9990428 
-0.16346434 -0.28348595 -0.9449419 
0.4938833 -0.25984782 -0.8297943 
0.9966445 -0.041953936 -0.07028225 
-0.039262846 -0.93682504 -0.34758782 
0.4570992 -0.8848999 0.08951209 
0.79062486 -0.58658856 -0.17557438 
0.26038328 -0.96465284 -0.04056469 
0.6417828 -0.4550388 0.6172963 
0.2994186 -0.8948466 0.33105603 
-0.18979639 -0.96152276 0.1986239 
-0.050807375 -0.9967574 -0.06239645 
0.2295577 -0.96418554 -0.1328511 
-0.73779666 -0.66222835 -0.13080415 
-0.76893705 -0.28813332 -0.5707146 
0.028279554 -0.95564723 -0.29315314 
-0.23908329 -0.69631076 -0.67675006 
-0.66190094 -0.64123887 -0.38820076 
-0.7263001 -0.16479434 -0.6673313 
-0.8641518 -0.04949731 -0.50079113 
-0.68611073 -0.028480228 -0.7269395 
-0.86427903 -0.3299182 -0.37970504 
-0.7534199 -0.12894018 -0.64477354 
-0.05288635 -0.87706673 -0.4774486 
0.4832553 -0.8740727 0.0496117 
0.34242317 -0.89365077 -0.29006 
0.36460873 -0.03402435 -0.9305391 
-0.70201105 -0.01786131 -0.7119421 
-0.107982084 -0.3364672 -0.9354837 
0.49644038 -0.46773648 -0.7312795 
0.7149338 -0.32615313 -0.61846083 
0.7631498 -0.030248955 -0.64551324 
0.70889175 -0.24087158 -0.6629129 
0.94436437 0.263886 0.19631673 
0.94769746 0.31669062 0.039705396 
0.5508194 0.7730195 -0.31470454 
0.20545712 0.8469678 -0.49033964 
0.233426 0.75578314 -0.6118041 
0.7667453 0.5488094 -0.33303165 
0.88977814 0.4562842 -0.009980516 
0.85693157 0.056741808 0.5122975 
0.9458617 -0.14471865 0.2905208 
0.8031593 -0.5951887 -0.026183406 
0.23478481 -0.94089293 0.244124 
0.09248143 -0.8265727 0.5551799 
-0.0010313793 -0.9447395 0.32782063 
-0.8069456 -0.5373778 -0.24507955 
-0.81640697 -0.44468164 -0.36842635 
-0.4504024 -0.0055528055 -0.89280844 
-0.30971262 -0.47341228 -0.82459635 
0.5208903 0.13103195 -0.84350693 
0.36636022 -0.13300508 -0.9209179 
0.79110086 -0.53861445 -0.2899204 
0.8072491 -0.44794208 0.3843134 
0.29416525 -0.66356874 -0.68785423 
0.47873497 -0.7848723 -0.39343128 
0.30165604 -0.71324277 -0.6326835 
0.52084595 -0.41980144 -0.7432943 
0.5581034 -0.6403653 -0.5276865 
0.14015043 -0.116087556 -0.9833014 
-0.15198292 -0.12478674 -0.9804741 
-0.027076524 0.44655207 -0.8943479 
0.057875954 0.2425596 -0.9684086 
0.1444668 -0.25462976 -0.9561868 
0.08506796 -0.30216274 -0.94945306 
0.5460967 -0.5921294 -0.5925886 
0.5232139 -0.4398578 -0.7299125 
0.38118905 -0.6951432 -0.60948414 
0.12209669 -0.3972254 -0.9095628 
0.6208703 0.13385434 -0.7724009 
0.18213803 0.57358575 -0.79863966 
-0.18383354 -0.63263345 -0.7523165 
-0.2793765 -0.8155174 -0.5068336 
0.31774253 -0.7322372 -0.60238564 
0.12132177 -0.28500682 -0.9508166 
0.24924368 -0.17514873 -0.95247084 
-0.3104147 -0.30040425 -0.9018869 
-0.16295347 -0.39024162 -0.9061775 
0.5750567 -0.3616666 -0.7338305 
0.03001241 0.00081074185 -0.9995492 
0.31596118 -0.33342093 -0.8882562 
0.16558903 0.36961544 -0.91431105 
0.9630498 0.1306624 -0.23550488 
0.8095062 -0.1591989 0.56511563 
0.46565753 -0.122158274 0.8764933 
0.46704543 -0.36544314 0.8051832 
-0.060301937 -0.8491185 0.5247489 
-0.576842 -0.7574223 0.3058836 
-0.7031822 -0.7056306 -0.087294586 
-0.62724304 0.14080417 -0.76598984 
-0.804397 -0.37819144 -0.45816663 
-0.57622796 -0.71743405 -0.39147148 
0.10312561 -0.8094123 -0.57811487 
-0.4566654 -0.58341724 -0.6716257 
0.4243423 -0.62832654 -0.6520272 
-0.0007581509 -0.8827388 -0.4698635 
-0.37177202 -0.7222079 -0.5832679 
0.22073877 -0.54794043 -0.8068678 
-0.37719408 -0.53919584 -0.75298905 
0.25900793 0.018960746 -0.9656891 
0.5143495 -0.45577103 -0.72644156 
0.89751124 -0.009417872 -0.44089115 
0.6190763 -0.43957528 -0.6507827 
0.83034825 0.5154667 -0.21169765 
-0.08647766 0.8351755 0.5431424 
0.28892145 0.9161457 0.27785164 
-0.1608434 0.93686354 -0.31050938 
-0.60647535 0.76900345 -0.20204307 
0.01690205 0.53456455 -0.8449586 
0.025984777 0.95691633 -0.28919896 
-0.28004354 0.8379715 -0.46837968 
-0.4480944 0.7442922 -0.49521768 
-0.6893118 -0.08230612 -0.7197743 
-0.24647251 -0.12572546 -0.96096015 
-0.338756 -0.78706163 -0.515537 
-0.058430012 -0.75620216 -0.65172416 
-0.19319333 -0.09216346 -0.9768226 
-0.86901426 -0.48060778 -0.11760292 
-0.5848362 -0.13684994 -0.7995241 
0.22877647 -0.9307554 -0.28522938 
0.14822052 -0.96397716 -0.22085929 
0.5013703 -0.7553471 0.42199352 
-0.19792895 -0.92875385 -0.31343356 
-0.10352853 -0.9796558 -0.1719195 
0.019436397 -0.936409 -0.35037187 
-0.11691264 -0.46089366 -0.8797207 
-0.5529127 -0.57577235 -0.602307 
-0.47857025 -0.48058885 -0.73485035 
0.15912695 -0.62579376 -0.7635842 
0.39612642 -0.2678437 -0.87826174 
-0.2365805 -0.56203574 -0.79255635 
-0.059965346 0.30491942 -0.95048845 
-0.16902006 -0.1044749 -0.98005986 
-0.106019735 -0.21407019 -0.97104776 
-0.25406942 0.012173671 -0.9671094 
0.14703453 -0.88946307 -0.4327081 
0.52555346 -0.665362 -0.5301765 
0.07535696 -0.610475 -0.7884426 
0.19296125 -0.38107786 -0.90418226 
-0.3142637 -0.91306746 -0.25989646 
0.27175418 -0.5995195 -0.7528122 
0.5237887 -0.4264525 -0.737417 
0.14342824 -0.22854938 -0.962909 
0.70934635 -0.42196774 -0.5645982 
0.40749344 -0.8771978 -0.25391555 
0.40067402 -0.91616446 -0.010152739 
-0.20900394 -0.94095695 -0.26630354 
-0.51761353 -0.7552372 0.4021106 
-0.48218223 -0.8168414 0.31665516 
-0.6123424 -0.690122 -0.38570508 
-0.6522583 -0.5679958 -0.50193626 
-0.7949395 -0.5668853 0.21613064 
-0.82739913 0.16918272 -0.53552604 
-0.70751315 0.48860967 -0.51057404 
-0.87786484 0.3519492 -0.32478493 
0.06320548 0.10950618 -0.99197453 
0.05645582 0.36175734 -0.93056136 
-0.008535578 -0.18369664 -0.982946 
0.020215228 -0.32612363 -0.94511104 
-0.9448536 0.22913791 -0.23398197 
-0.9288241 0.3628183 -0.07515812 
-0.47084707 0.19410573 -0.8605963 
-0.34789503 0.029590717 -0.93706644 
-0.45037398 -0.71331924 -0.5369721 
-0.68056333 -0.2359345 -0.6936632 
-0.40023366 0.42897907 -0.80980855 
-0.6239319 -0.22800687 -0.74747705 
-0.032881632 -0.4947288 -0.86842513 
-0.59007114 0.26368442 -0.763077 
0.19864942 -0.022159118 -0.97982013 
0.7042381 -0.2987286 -0.6440574 
0.3956414 -0.5472624 -0.73754454 
0.22420226 -0.51319367 -0.82847184 
0.6549336 -0.08922098 -0.750401 
0.56207967 -0.77828616 -0.27988774 
0.5269859 -0.63706225 -0.5625279 
0.5837176 -0.63373977 -0.5075901 
0.5587127 -0.7958681 0.23331106 
0.071836196 -0.9961656 0.049938213 
-0.7023722 -0.7099291 0.051710438 
-0.82499605 -0.40394258 -0.3952366 
-0.42777804 -0.4001308 -0.8104945 
-0.54924995 -0.7395749 -0.38904196 
0.5469414 -0.7990234 -0.24983372 
-0.004073662 -0.9238661 -0.38269442 
0.39478192 -0.6995648 -0.59561425 
0.083479 -0.88870174 -0.4508221 
0.02855962 -0.7886394 -0.61419237 
-0.035518665 -0.11209227 -0.9930628 
-0.0371049 -0.54552567 -0.8372724 
-0.027427636 -0.49823406 -0.86660874 
-0.09607366 -0.5591843 -0.82345784 
-0.2352351 -0.88571155 -0.4002244 
0.4804188 -0.69458234 -0.5354935 
-0.039385907 -0.99711967 -0.06481594 
-0.0635762 -0.5576158 -0.82766104 
0.07116523 -0.7718909 -0.6317595 
-0.1532128 -0.6795139 -0.7174865 
-0.07821112 -0.67505795 -0.7336074 
-0.5337843 -0.38195017 -0.75444573 
-0.65120226 -0.22631457 -0.72437376 
-0.5792261 -0.21361235 -0.78668106 
-0.28157604 -0.8673844 -0.41031623 
0.23058298 -0.81891984 -0.5255492 
0.050882585 -0.9012456 -0.43031088 
0.89440095 -0.33389226 -0.2975951 
0.92007095 -0.26972833 -0.28410566 
0.37948036 -0.9170197 0.12275786 
0.67803687 -0.7059116 0.20482871 
0.39647177 -0.906329 0.14621268 
-0.52314234 -0.8183875 0.2378321 
-0.34449422 -0.7808142 -0.5212034 
-0.32399786 -0.5661863 -0.7579305 
0.0080770785 -0.7889451 -0.61441076 
-0.23753941 -0.27313238 -0.9321876 
0.37677747 0.2631494 -0.8881392 
0.6084438 -0.27924863 -0.7428435 
0.89809346 0.08629361 -0.4312558 
0.52664196 -0.13133815 -0.83988017 
0.23459788 -0.9712821 -0.03968402 
0.47437683 -0.66112536 -0.5812745 
-0.17177345 -0.6437982 -0.7456661 
0.04843198 -0.9631074 -0.26472348 
-0.13095172 -0.6711437 0.72966975 
-0.8036937 -0.39923728 0.44123232 
-0.60540515 0.04461862 -0.7946659 
-0.70839 0.24479346 -0.662012 
-0.83480775 -0.11057656 -0.5393228 
0.0086929705 -0.7004797 -0.7136195 
-0.2425919 -0.29783827 -0.9232777 
0.675267 -0.03537452 -0.7367247 
-0.3105164 0.06815804 -0.9481214 