# OOMMF: rectangular mesh v1.0
# Segment count: 1
# Begin: Segment
# Begin: Header
# Desc: Time (s) :  5.80000000000001e-07
# Title: m
# meshtype: rectangular
# meshunit: m
# xbase: 2e-09
# ybase: 2e-09
# zbase: 5e-10
# xstepsize: 4e-09
# ystepsize: 4e-09
# zstepsize: 1e-09
# xmin: 0
# ymin: 0
# zmin: 0
# xmax: 1.024e-06
# ymax: 1.024e-06
# zmax: 1e-09
# xnodes: 256
# ynodes: 256
# znodes: 1
# ValueRangeMinMag: 1e-08
# ValueRangeMaxMag: 1
# valueunit: 
# valuemultiplier: 1
# End: Header
# Begin: Data Text
-0.3536882 -0.7493095 -0.5598572 
-0.34967643 -0.601646 -0.7181564 
-0.6053889 -0.1617814 -0.7793146 
-0.9189579 0.28622735 -0.27127528 
-0.70540744 -0.12618032 -0.69748044 
0.061677665 -0.13779971 -0.98853785 
0.29602143 -0.7630337 -0.57458764 
-0.45426863 -0.87977266 -0.14014333 
-0.54021287 -0.48683754 -0.6864105 
-0.13146594 -0.06270018 -0.98933583 
0.24367334 -0.6637886 -0.70711243 
0.16807875 -0.98420656 -0.055561785 
0.9817352 0.18524681 0.043355785 
0.5584367 -0.09572015 -0.82400614 
0.099985294 -0.9483811 -0.30095863 
-0.7804201 0.098425485 -0.6174601 
-0.5622031 -0.7361553 -0.37683296 
-0.52164817 -0.8530483 0.013849679 
-0.38218194 -0.78626525 -0.48551416 
0.32700053 -0.8092906 -0.48797476 
-0.33583778 -0.8883057 0.3132506 
-0.7511704 -0.5953558 0.28512222 
-0.93128896 -0.20780118 -0.29919833 
-0.057177763 -0.9927654 -0.10558204 
0.004711736 -0.6799251 -0.7332665 
0.26838344 -0.4266764 -0.86366516 
0.45935723 -0.30850384 -0.8329564 
0.8848265 -0.21170841 -0.41504425 
-0.011160497 -0.5417814 -0.84044534 
0.17509902 -0.13923489 -0.97465587 
0.19779289 -0.025880216 -0.97990215 
0.17926729 -0.45335856 -0.8731147 
-0.531412 -0.6067726 -0.5911246 
0.5922476 -0.75584203 -0.27918738 
0.6953131 -0.49712104 -0.5190476 
0.7641819 -0.45677307 -0.45539492 
0.19751826 -0.6824939 -0.7036964 
0.04386574 -0.42834523 -0.90254986 
0.10100525 -0.9938649 0.04506212 
0.25359058 -0.7925826 -0.5545311 
0.71477646 -0.65502155 0.2450336 
0.2916682 -0.9553305 0.047678757 
0.44030955 -0.8016155 -0.40440094 
0.9267212 -0.3691186 0.07028079 
-0.09776536 -0.9227801 0.3727182 
0.18355536 -0.98184776 -0.04777619 
0.1887831 -0.6859796 -0.7027041 
0.005748677 -0.87215656 -0.48919335 
-0.11036791 -0.9270565 -0.35830906 
-0.11671586 -0.89229995 -0.43609422 
0.74383837 -0.4829355 -0.46203664 
0.27427527 -0.9584694 0.078164354 
-0.42773977 -0.8994726 0.089374006 
0.30782303 -0.9339706 -0.1815053 
-0.12066114 -0.98690265 -0.10707042 
0.19020684 0.6611549 -0.725738 
-0.42685536 0.259485 -0.8662922 
0.50363964 -0.22425573 -0.8343 
0.38063416 -0.5848581 -0.7162811 
-0.0038169767 -0.9832196 -0.18238635 
-0.3932248 -0.5564025 0.7319771 
0.0062070144 -0.778378 -0.62776536 
0.74930054 -0.47227183 -0.4642285 
0.4759038 -0.8731731 0.10528263 
0.5801461 -0.8041233 -0.12967841 
0.33393776 -0.8225449 -0.46033204 
0.6681583 -0.3670088 -0.64720094 
0.865993 -0.3272873 -0.37807298 
0.7821526 -0.6226511 -0.023304965 
0.15277371 -0.8146451 0.5594762 
0.07405726 -0.89492357 -0.44003108 
-0.103435345 -0.9943766 0.022721106 
-0.47871065 -0.76378864 0.43297008 
-0.58247274 -0.80484754 -0.11378132 
-0.7051692 -0.6874927 -0.17346531 
-0.6582012 -0.48009282 0.5798983 
-0.56558007 0.82430714 0.02523581 
-0.8364809 -0.2570672 0.483959 
-0.27682114 -0.41210967 0.86806446 
-0.6701558 -0.73771155 0.08168829 
-0.45865783 -0.8260558 -0.32751292 
-0.7325733 -0.14175715 -0.6657637 
-0.9904692 -0.13202025 0.039260283 
-0.3442305 -0.7592095 -0.55236423 
-0.47804365 -0.33425713 -0.8122479 
-0.13086717 -0.61230564 -0.779715 
0.42572856 -0.75738496 -0.49509943 
0.025216646 -0.21667923 0.97591716 
0.1424122 -0.6877877 0.71180546 
0.5085028 -0.09897331 0.85535324 
0.5089931 -0.30527073 0.8048204 
0.067866266 -0.03729432 0.99699724 
-0.77716374 0.5799426 0.24430111 
-0.7787962 -0.5760124 0.24836764 
-0.5396358 -0.8164131 -0.20557937 
0.13232996 -0.83858395 -0.5284562 
0.59654856 -0.58098656 -0.5537008 
0.9653058 -0.0028766994 -0.26110616 
0.6348616 0.19405706 -0.7478587 
0.18690763 -0.5472212 -0.81585205 
0.8180181 -0.49230695 0.29745653 
0.2873996 -0.88286096 0.37142727 
-0.5092949 -0.8520979 -0.12061482 
-0.47543117 -0.5498232 -0.6867748 
-0.40745294 -0.08838485 -0.9089391 
0.74608463 -0.6305408 -0.21395366 
0.30210003 -0.8639989 -0.4027922 
0.06328889 -0.38434878 -0.92101604 
0.007634396 -0.27102107 -0.9625432 
0.24011403 -0.52774453 -0.81475824 
0.2834045 -0.65501344 0.70045656 
0.31492072 -0.7825028 0.5371353 
-0.54989785 -0.16272087 0.819228 
-0.53260577 -0.76883686 0.3538658 
-0.75991714 -0.58415437 -0.28511333 
-0.77914613 -0.029372515 -0.6261538 
-0.042725924 0.020833516 -0.99886966 
-0.581047 -0.18646516 -0.79222167 
0.13013424 -0.058567464 -0.98976517 
0.33315995 -0.085356 -0.9389989 
0.20966752 -0.87044513 -0.4453819 
0.43400922 -0.7395735 -0.5144581 
-0.048269954 -0.18769531 -0.9810406 
0.09056952 -0.6349625 -0.76721567 
0.9291325 -0.30814353 -0.20435363 
0.87924445 -0.37221462 -0.29729706 
0.14243282 -0.7618287 -0.63192564 
0.65996295 -0.3802929 -0.64794 
0.61184645 -0.7045703 -0.35947835 
0.38884982 -0.7704165 0.50522697 
0.52283555 -0.8492836 0.07321459 
0.51960236 -0.8489255 -0.09663886 
0.6411219 -0.76280427 0.084216505 
0.3680149 -0.92190975 0.12102688 
0.40692914 -0.46437404 0.7866165 
0.9110555 0.0061690193 0.41223785 
0.75178057 0.6356646 -0.17537577 
0.7027459 0.1699149 -0.69085246 
0.91093224 -0.12372729 -0.39356565 
0.905644 -0.41623896 0.08095745 
0.51584536 -0.5153011 -0.6843745 
0.29805708 -0.74210906 0.60036343 
0.17162217 -0.9850908 -0.011915047 
-0.117893726 -0.9304063 0.3470525 
0.07987433 -0.95878243 0.27268377 
0.6754598 -0.5370545 -0.50529855 
0.32890224 -0.936523 -0.12144105 
0.15193233 -0.9797155 -0.13066761 
0.43201882 -0.8662564 0.25091773 
-0.2397975 -0.9617732 -0.1322475 
-0.5097935 -0.052589964 -0.8586879 
-0.6454962 -0.37259662 -0.66671324 
-0.15252565 -0.64872617 0.7455806 
-0.44281057 -0.71189356 0.54509306 
0.32974958 -0.10266787 0.93846923 
-0.47457787 -0.8546727 0.21050066 
-0.3142186 -0.52990973 -0.78769433 
-0.58197415 -0.41164458 -0.70132375 
0.052025147 -0.8919934 0.44904485 
-0.7685305 -0.26568714 -0.58204067 
-0.7109701 -0.5165118 -0.47721806 
0.041421235 -0.9658101 -0.25592014 
0.58622426 -0.080339625 -0.8061555 
0.82511276 -0.44742677 -0.34496117 
0.8961536 -0.33499342 -0.29101205 
0.7062518 -0.51318103 0.48770252 
0.3849305 -0.8662423 -0.3185164 
0.69430745 -0.6003677 -0.39685735 
0.80748045 0.49308383 -0.32379586 
0.47029632 -0.21131179 -0.8568365 
0.92616594 -0.36523518 -0.093914814 
0.8226952 -0.44406596 -0.3549341 
-0.231495 -0.55894864 -0.79623276 
-0.40977874 -0.5938416 -0.6924115 
-0.13121568 -0.71631604 -0.6853275 
-0.7351748 0.10233075 -0.67010933 
-0.18735397 0.13815184 -0.972529 
0.019200519 -0.7863378 -0.6174984 
0.4239051 -0.24546453 -0.8718095 
0.49467507 -0.6244382 -0.6044613 
-0.455327 -0.88507795 0.0965117 
-0.28243145 -0.9587406 -0.032389823 
0.015929734 -0.9907474 -0.13478097 
0.1921469 -0.9034464 -0.3832287 
0.6437301 -0.74315625 0.1825663 
-0.26635933 -0.96310014 0.03861228 
-0.87228984 0.4097317 -0.26689065 
-0.84032255 -0.45075804 -0.3011234 
-0.6653104 -0.72755516 0.1674087 
-0.007180974 -0.27711463 -0.96081 
-0.25809085 -0.53484774 -0.8045664 
-0.71709365 0.026091877 -0.6964883 
0.4037376 0.25719842 -0.8779777 
0.42155507 -0.2939918 -0.85782295 
-0.24593629 -0.28256422 -0.9271854 
0.01935435 -0.88226247 -0.4703598 
0.39506263 -0.8955225 0.20485362 
-0.15187785 -0.09182471 -0.98412466 
0.048175357 0.18008189 -0.9824713 
0.921453 0.042022333 -0.3862107 
0.8922334 -0.44446683 -0.07980537 
0.573399 -0.77848756 0.25528574 
0.34769642 -0.6063321 0.7151704 
0.60698396 -0.7804946 0.14966232 
-0.3276179 -0.9447763 -0.0080164 
-0.54671127 -0.7825052 -0.2979807 
-0.66311616 -0.64164203 -0.38545114 
-0.29774237 -0.42755195 -0.8535508 
-0.20862243 -0.04688959 -0.97687167 
0.09620826 -0.68683946 -0.72041345 
-0.2970082 -0.82439977 -0.4818207 
-0.24396436 -0.87045443 -0.42754012 
0.14595698 -0.9553032 -0.25708446 
0.28679344 -0.84494114 0.45146877 
-0.13387786 -0.9704804 -0.20061055 
-0.42920074 -0.90023524 0.07323482 
-0.44837624 -0.885591 -0.12119172 
-0.6860946 -0.37459895 0.62365854 
-0.9291877 -0.36733553 -0.040923826 
-0.86831015 -0.14971507 -0.47288784 
-0.33146402 -0.49680376 -0.80207086 
-0.88215876 -0.43070596 -0.19049494 
-0.07548121 -0.81402147 -0.5759094 
-0.58751863 -0.51389325 -0.6250886 
-0.9747832 0.1735927 -0.14022616 
-0.68124074 -0.38399792 -0.6232629 
-0.91049737 -0.37474006 -0.17482716 
-0.17366269 -0.98470294 0.014191437 
-0.11087719 -0.37023336 0.922298 
-0.61018497 -0.3736256 0.69862604 
-0.8146744 -0.5788748 0.034781568 
-0.69656706 -0.05421864 0.7154402 
-0.8213317 -0.5648385 0.079823054 
0.24017985 -0.79132444 -0.5622451 
0.044565264 -0.5025363 -0.8634068 
-0.17981352 -0.47710544 -0.8602544 
0.40211836 -0.7856918 -0.47009504 
0.5989919 -0.79814047 -0.06465689 
-0.26505688 -0.3088509 -0.913431 
-0.20544921 0.41059178 -0.8883722 
0.63020813 -0.10775918 -0.76891214 
0.9767228 -0.1804832 0.11592409 
-0.017062131 -0.7990785 0.6009845 
-0.382034 -0.924109 -0.008526875 
-0.9725665 -0.022968171 -0.23148853 
-0.48256508 -0.8677831 -0.118673936 
-0.4522163 -0.38789678 0.8031417 
-0.71597004 -0.66564703 0.2104779 
-0.24201523 -0.89056927 -0.38511682 
0.12789258 -0.45237738 -0.8826087 
-0.053691007 -0.13777475 -0.9890073 
-0.1711627 -0.6572455 -0.7339835 
0.15444219 -0.16748905 -0.9737017 
0.40360624 -0.32656217 -0.8546691 
-0.048711874 -0.2801853 -0.95870924 
-0.7343991 0.19904211 -0.64887613 
-0.45136797 0.16580406 -0.87679875 
-0.8483094 -0.29076812 -0.4425214 
-0.882741 -0.40230855 -0.24272682 
-0.805533 -0.5911813 -0.040266056 
-0.8588695 0.4135 -0.30225995 
-0.18760678 0.3789733 -0.9061915 
-0.6280829 -0.1402058 -0.76541114 
-0.2596353 -0.27058202 -0.9270248 
-0.13463077 -0.48288402 -0.8652732 
0.8125006 -0.14880295 -0.56364936 
0.17923616 -0.96392775 0.19676833 
0.027715009 -0.9973398 0.06741882 
0.73759824 -0.48790216 0.46679813 
0.36069724 -0.8144543 -0.45449066 
-0.07483246 -0.7364796 -0.67230797 
-0.30418298 -0.13364698 -0.943192 
-0.23180427 -0.8804868 -0.41353348 
0.042786 -0.99523443 -0.08762294 
0.44895813 -0.7018174 -0.55307233 
-0.120436125 -0.9770239 -0.17583972 
-0.026910895 -0.7136948 -0.6999397 
-0.3324361 -0.6004702 -0.7272701 
-0.41639525 -0.5626023 -0.7142084 
-0.40457004 -0.6538835 -0.6393431 
-0.16240948 -0.3151685 -0.9350359 
0.51204664 -0.62177557 -0.5926242 
0.3922435 -0.67978233 -0.6197105 
0.7261801 -0.6479358 0.22987321 
0.4302047 -0.70486355 0.5639959 
0.74877137 0.1379986 -0.64830387 
0.6005319 -0.6915492 -0.40139914 
0.42195666 -0.72695416 -0.5417475 
0.05017828 -0.9938007 -0.09920858 
-0.093172066 -0.7913032 -0.6042832 
-0.089123346 -0.31870207 -0.94365567 
0.14889103 -0.38860846 -0.9092938 
0.23693885 -0.91452944 -0.3278659 
0.30282283 -0.95269924 -0.025741296 
0.14817601 -0.9866472 -0.067611136 
-0.2342248 -0.8341437 -0.49934268 
0.3130394 -0.94605684 -0.08356382 
0.4934462 -0.7693452 -0.40573272 
0.65515685 -0.7534841 -0.05505703 
0.75823534 -0.6449472 -0.09551069 
0.58865184 -0.7841827 0.19633286 
0.08229227 -0.99304587 -0.08418954 
0.6660796 -0.65426934 -0.3581475 
0.16216348 -0.8394256 -0.5187174 
0.03746685 -0.9969995 0.06773766 
-0.48710477 -0.6410613 -0.5931016 
0.30292782 -0.6010157 -0.73960453 
0.38069507 -0.49191192 -0.78300315 
-0.3204036 -0.7715147 -0.54964226 
-0.086310126 -0.8070967 -0.5840767 
-0.78709066 -0.45031506 -0.4215502 
-0.2671577 -0.28287995 -0.921198 
-0.39276555 0.14075147 -0.9088037 
0.11319133 0.34391668 -0.932153 
-0.50055045 -0.6199412 -0.60425353 
-0.68853724 -0.60015285 -0.40710333 
-0.46409196 -0.37363935 -0.8031266 
-0.50588393 -0.66068596 -0.55459493 
0.2831741 -0.46342704 -0.83967125 
0.26073778 -0.8590383 -0.44053268 
0.40500024 -0.79363894 -0.45399573 
0.16751738 -0.9279369 -0.33297297 
-0.45510408 -0.8617163 -0.22433332 
-0.19202511 -0.6756668 -0.7117589 
0.5567784 -0.78468645 -0.2725162 
-0.41021153 -0.83425915 -0.36842692 
-0.19988284 -0.70390075 -0.68159413 
-0.18368019 -0.7922333 -0.58191746 
-0.34901032 -0.92969054 0.11776026 
-0.8018756 -0.51303107 0.30625904 
-0.6419646 -0.54498744 0.53932387 
-0.4644798 -0.4070112 0.7865115 
-0.60789526 -0.21409845 0.7646079 
-0.9581044 -0.19333859 0.21132043 
-0.7931073 -0.54287267 0.27617058 
-0.5252688 -0.81556034 0.2428048 
-0.58611333 -0.7628087 -0.27311927 
-0.5822853 -0.19514729 -0.7892157 
-0.685895 -0.48376995 -0.54361266 
-0.13738899 -0.58107764 -0.8021678 
-0.5993066 -0.59135807 -0.5395622 
0.17188373 -0.8129856 -0.55633676 
0.7257558 -0.608875 0.32023415 
0.44173867 -0.7458017 0.498645 
0.7347693 -0.5118234 0.44514158 
0.84930545 -0.4841027 0.21053469 
0.59692734 -0.3505513 0.7216589 
0.42336753 -0.16561294 0.890692 
-0.5300689 -0.72272635 0.44350174 
-0.85878855 -0.5098386 -0.05046689 
-0.0007887112 -0.9901184 -0.14023194 
-0.058947757 -0.99535954 0.076056205 
-0.5111472 -0.4268232 -0.7460232 
0.41112733 -0.42335677 -0.80730623 
0.4109909 -0.4090314 -0.81472695 
0.30630398 -0.7518754 -0.5838334 
0.35563114 -0.93417513 0.029040413 
0.022988567 -0.9995741 -0.01798 
-0.59041554 -0.6308786 0.50339013 
-0.5163434 -0.81885034 -0.2507464 
-0.60037076 -0.44307208 -0.6657644 
-0.29575568 -0.87227476 -0.3894423 
-0.09345502 -0.84574735 -0.52533585 
-0.5001808 -0.81353027 -0.29662704 
-0.21921222 -0.048897024 -0.9744512 
0.3307054 -0.4030903 -0.8533184 
0.108079486 -0.8298605 -0.5474033 
0.48822162 -0.7432965 0.45732936 
0.09291305 -0.6158176 0.78239125 
-0.6290672 -0.6438424 0.4355934 
-0.93045545 -0.35437086 -0.09313492 
-0.72718114 -0.31153974 -0.61167854 
-0.5370588 -0.62503576 -0.5664788 
-0.035708126 -0.7560826 -0.65350133 
-0.32148048 -0.5994344 -0.7330271 
0.02303051 -0.86962074 -0.4931829 
0.32540303 -0.32165986 -0.8891839 
0.59787375 -0.45276397 -0.661477 
0.75341713 -0.5578508 -0.3480881 
0.7624542 -0.4974529 -0.41376835 
0.7374635 -0.5296653 -0.41904947 
0.80068386 -0.58939475 -0.107327454 
-0.15899527 -0.79517066 -0.58517015 
-0.26921776 -0.7058236 -0.65523654 
0.34173837 -0.51144236 -0.7884426 
0.59921426 -0.7607305 -0.24946247 
-0.22875787 -0.94406164 -0.23752396 
-0.26740512 -0.88428 -0.38281 
0.35774308 -0.7216766 -0.59262365 
-0.019775728 -0.96526706 -0.26051593 
-0.0729976 -0.42178467 0.9037528 
0.419679 -0.68525404 0.5952281 
0.704608 -0.6445656 0.29675367 
0.9934855 -0.113760754 0.006720349 
0.9063169 -0.3044607 -0.29307577 
0.80580604 -0.49214074 0.32935432 
-0.07342315 -0.9846516 -0.15833624 
-0.054986358 -0.9804998 0.18867052 
0.44021273 -0.8844617 0.15472686 
0.4435701 -0.39299467 -0.8054818 
0.28971025 -0.82006705 -0.49351603 
0.06918969 -0.997568 0.008423838 
-0.7091562 -0.6811852 -0.1818907 
-0.8105003 -0.54877025 -0.20479375 
-0.14609198 -0.8142462 -0.5618366 
-0.29000992 -0.73520094 -0.6126777 
-0.43007192 -0.56678975 -0.7027002 
-0.4645123 -0.26810187 -0.84400815 
-0.5993362 -0.71601367 -0.35793948 
-0.36236158 -0.9315146 0.031220464 
-0.26574665 -0.7243685 -0.636136 
-0.116257116 -0.7861989 -0.6069395 
-0.62484115 -0.7461332 -0.22991058 
-0.19776897 -0.6556096 -0.72874105 
0.19602212 -0.9413251 -0.27474076 
-0.10063459 -0.9449801 -0.31126395 
-0.5398659 -0.44168067 -0.7165634 
-0.32834816 -0.858121 -0.39473513 
-0.097914465 -0.6256004 -0.7739748 
0.53689146 -0.6236787 -0.5681308 
0.22118554 -0.92769307 -0.3007701 
-0.120296925 -0.9562064 0.26682955 
0.141266 -0.6449216 -0.75107926 
0.54184943 -0.7456234 -0.38787228 
0.13569216 0.3714111 -0.9184996 
0.6085314 -0.27985832 -0.7425422 
0.802391 0.097470686 -0.5887854 
0.5508733 -0.6880418 -0.47237408 
-0.46041247 -0.84336936 -0.27703547 
-0.6242516 -0.3067834 -0.7184664 
0.13623852 -0.0154556185 -0.9905555 
-0.33460358 0.28268328 -0.8989609 
0.4042221 0.26479217 -0.87549394 
-0.2242041 0.3271834 -0.917978 
-0.2733573 0.2912039 -0.91677487 
0.2632873 -0.5448471 -0.796129 
0.20000316 -0.91528946 0.3496341 
-0.003507665 -0.93241304 -0.36137757 
0.07696844 -0.94648397 -0.31343892 
-0.5179836 -0.8106293 -0.27308106 
0.42961836 -0.8455791 -0.31689796 
-0.71583176 -0.3976687 0.5739726 
-0.4403375 0.35493904 -0.8246947 
-0.7921374 0.049008265 -0.60837215 
-0.80297977 -0.27009025 -0.53129536 
-0.08542278 0.03878458 -0.9955896 
-0.0983315 -0.119353175 -0.9879706 
-0.55097365 0.21408239 -0.8065958 
0.14309877 -0.27412423 -0.95098835 
-0.014430006 -0.5849963 -0.8109077 
-0.28233978 -0.2162889 -0.9346141 
0.11520291 -0.89875835 -0.4230388 
0.050196234 -0.40473917 -0.91305345 
0.18620506 -0.55643517 -0.80975777 
0.36765456 -0.45464605 -0.8112504 
0.84557205 0.017616304 -0.5335707 
0.51657856 -0.80955625 -0.2788645 
0.39146018 -0.69411826 -0.60411817 
-0.028147725 -0.98794204 -0.15224424 
0.3394473 -0.8643534 0.37103763 
-0.49244577 -0.8636277 0.10790914 
0.014862964 -0.7693528 -0.63865125 
-0.59285045 -0.16973564 -0.7872219 
-0.77488965 -0.099194154 -0.62426484 
-0.5114198 -0.19681014 -0.8364901 
-0.031156499 -0.7250078 -0.6880356 
-0.3847567 -0.54114246 -0.7477481 
-0.20632643 -0.88710254 -0.41289034 
-0.12978756 -0.95117927 -0.28002355 
-0.11279793 -0.99133885 0.067260206 
0.39268366 -0.43543983 -0.81005675 
0.27094904 -0.7596082 -0.5912546 
-0.25875643 -0.32845306 -0.9083852 
-0.74710274 -0.24320695 -0.6186178 
-0.6675818 -0.6471364 -0.36816996 
-0.7004992 0.09731085 -0.70698774 
-0.54576665 0.2810802 -0.78938764 
-0.21446574 -0.5001551 -0.83895737 
0.032887638 -0.5610941 -0.8270984 
-0.07085555 -0.6492939 -0.7572299 
-0.7927248 -0.23040664 -0.5643583 
-0.5037166 -0.8519064 -0.14326595 
-0.34532326 -0.8514774 0.39463687 
0.031187506 -0.8884995 0.4578165 
-0.057516623 -0.827156 0.55902135 
-0.76768243 -0.6385272 -0.05428425 
-0.6391424 -0.52403784 0.56292224 
-0.41159216 0.097429305 0.90614545 
-0.61665183 -0.6927515 0.37394643 
-0.5126143 -0.82273096 -0.24564247 
-0.5446506 -0.8324634 0.10178643 
-0.13003549 -0.82567126 -0.5489606 
-0.027998509 -0.85236937 -0.52219015 
-0.08060104 -0.7113606 -0.6981903 
-0.18136089 -0.70327663 -0.6873939 
0.1054179 0.0043858197 -0.9944184 
0.46869338 -0.15816914 -0.8690852 
0.25678176 -0.77009726 -0.5839635 
-0.4627855 -0.88555884 -0.040190723 
0.05879718 -0.9481905 -0.3122143 
-0.51496905 -0.72671145 -0.45463997 
-0.61870265 -0.7837163 0.054734673 
-0.5855286 -0.7957877 -0.15452613 
0.123829804 -0.7785466 -0.61524916 
0.3563718 -0.69939077 -0.61955774 
-0.06879347 -0.5886778 -0.80543524 
0.29419848 -0.29006422 -0.91066456 
0.18809454 0.1933967 -0.96292174 
-0.19249551 -0.055418942 -0.97973174 
0.3633662 -0.06562662 -0.9293322 
0.4420381 0.06889113 -0.894347 
-0.723945 -0.68957245 0.019837473 
-0.21527183 0.37025028 -0.90364426 
-0.040183127 0.5139612 -0.85687184 
-0.05262387 0.6390535 -0.76736003 
-0.8319472 0.21206965 -0.51272845 
-0.71047306 0.008678686 -0.7036709 
-0.79447734 -0.28211173 -0.5377907 
-0.68938106 0.19011793 -0.69900566 
0.38218614 -0.33857694 -0.85982525 
0.3340437 -0.6868564 -0.645479 
0.5376752 -0.5739394 -0.6176562 
0.36689374 -0.8157022 0.4472347 
-0.11311204 -0.71372664 0.69123083 
0.3717882 -0.9125548 -0.17034481 
-0.03179843 -0.8262992 -0.56233305 
-0.3734028 -0.6629913 -0.6488551 
0.04565732 -0.89423996 -0.44525298 
-0.043346323 -0.5548699 -0.8308072 
-0.2608303 -0.84426236 -0.46817586 
-0.44279888 -0.060705047 -0.8945636 
-0.522098 -0.46767473 -0.7132279 
-0.22190239 -0.28917846 -0.931201 
-0.41567448 -0.14749205 -0.89747477 
0.5323047 -0.43118075 -0.72851557 
0.49154115 -0.6962086 -0.5231452 
0.3189615 -0.8756742 -0.36257204 
0.48565063 -0.1777569 -0.8558891 
0.037244245 -0.41265804 -0.91012436 
0.3956178 -0.85618436 -0.33231765 
0.12242012 -0.7501235 -0.64986783 
0.9197764 0.00061640766 -0.39244238 
0.30995417 -0.58855885 -0.74667734 
0.39634433 -0.8144058 -0.42385677 
0.30451387 0.058649812 -0.9507005 
0.16332152 -0.7420578 -0.65013576 
-0.15831219 -0.39801386 -0.9036163 
0.013079475 -0.77047133 -0.63734055 
0.42443854 -0.71229446 -0.5590068 
0.29322717 -0.7135099 -0.6363345 
0.6974078 -0.7026064 -0.14130364 
0.48298988 -0.6122581 -0.625988 
0.7576488 -0.6404835 -0.12549569 
0.25329983 -0.28872764 -0.92329603 
0.31829566 -0.82931864 -0.45925856 
0.36811087 -0.74517256 -0.5560687 
0.6331631 -0.51995325 -0.5733701 
0.78555113 -0.33933192 -0.51745844 
0.34310466 -0.92886376 -0.13961186 
0.08905962 -0.9959538 0.01202068 
0.62761426 -0.33876237 -0.7009568 
-0.43784672 -0.5066221 -0.7427142 
0.2601221 -0.57251954 -0.77753323 
0.6186156 -0.71897745 -0.31683776 
0.12117779 -0.42330042 -0.89784896 
0.5240881 -0.14808924 -0.83869016 
-0.13016176 -0.56507003 -0.8147109 
0.0113339145 0.0261781 -0.9995931 
-0.40977842 -0.67814016 -0.6100883 
-0.720127 -0.5957207 -0.3557163 
-0.2772278 -0.1825301 -0.9433068 
-0.5773464 -0.20536855 -0.79025 
-0.120721534 -0.18217583 -0.97582704 
0.423863 -0.71805626 -0.5520284 
0.8514045 -0.04899885 -0.522216 
-0.047759395 -0.5462005 -0.8362919 
0.12667136 -0.95509255 -0.26786676 
-0.13138746 -0.44750622 -0.88457656 
-0.38571632 -0.6900751 -0.61238813 
0.088449374 -0.9596365 -0.2669729 
-0.17093869 -0.9682317 -0.18250324 
-0.07172423 -0.8093711 -0.58290136 
-0.1941659 -0.67134225 -0.7152617 
0.17011774 -0.53657377 -0.82652795 
-0.2894625 -0.51287425 -0.8081902 
0.2695123 -0.9511986 0.15028149 
0.47978953 -0.8567826 -0.1890124 
0.07656467 -0.9967674 -0.024343405 
0.38210437 -0.46550563 0.7983112 
-0.85460407 0.15778422 0.49472842 
-0.9787422 -0.061090875 0.19578473 
-0.21499123 -0.25563237 -0.9425661 
-0.5830502 -0.7150522 -0.3856849 
-0.42256016 -0.2886262 -0.8591496 
-0.7068423 -0.02752151 -0.70683557 
-0.33019477 -0.47437406 -0.8160519 
0.11774732 -0.87311345 -0.4730839 
0.23424271 -0.58038896 -0.7799225 
0.5681891 -0.7591516 -0.31756917 
0.6253776 -0.7709746 -0.12042096 
0.42440057 -0.9023966 -0.07459563 
-0.48132867 -0.86927944 -0.11258725 
-0.401573 -0.8893082 -0.21879238 
0.10500776 -0.68305314 -0.7227806 
-0.24679424 -0.73457265 -0.6320568 
-0.57368463 -0.7968926 -0.18933623 
-0.5293158 -0.70645076 -0.46984273 
-0.13074797 -0.8170411 -0.5615594 
-0.32834762 -0.6083747 -0.7225429 
0.09863295 -0.45953855 -0.8826642 
0.21518594 -0.63726103 -0.73999554 
0.24819379 -0.90112096 -0.35550117 
0.07365889 -0.80798113 -0.58458614 
0.3656843 -0.40051666 -0.8401557 
-0.80786943 -0.06065887 -0.5862317 
-0.123956874 -0.02546206 -0.99196094 
-0.28367063 -0.8089891 -0.5148473 
-0.39326575 -0.90355176 -0.1701069 
-0.5888849 -0.49955532 -0.63534176 
-0.22624743 -0.49315313 -0.8400072 
0.38406366 -0.8042839 -0.45345613 
-0.06614111 -0.4499047 -0.890624 
-0.36980018 -0.5003386 -0.7828852 
0.5369763 -0.8317205 -0.14105892 
-0.3691726 -0.78388065 -0.49924225 
-0.2700061 -0.9498728 0.15760212 
-0.5420176 -0.7694034 -0.33798724 
-0.40309283 -0.91312605 -0.06096654 
-0.24305104 -0.471382 -0.84777665 
0.29199442 -0.70215267 -0.6494005 
0.28845114 -0.06770762 -0.9550978 
0.22435816 0.236913 -0.94527024 
0.3454784 -0.43622407 -0.8308751 
0.108699836 -0.6296245 -0.76925766 
0.42975548 -0.50027376 -0.75168896 
0.51584876 -0.83456314 0.1934023 
0.4094562 -0.62838066 -0.6614253 
0.16564447 -0.8910584 -0.42258358 
-0.34575877 -0.58171374 -0.73624724 
0.24499017 -0.2038621 -0.94785035 
0.20207691 -0.66719383 -0.7169501 
0.66992366 -0.6650629 -0.32999033 
-0.30121446 -0.9080638 -0.29101565 
0.031891584 -0.9190212 -0.39291596 
0.026970867 -0.9975093 0.06517521 
-0.6011539 -0.4960557 -0.6265324 
-0.26399443 -0.89357203 -0.36309233 
-0.34748998 -0.46158162 0.81620663 
-0.014114612 -0.9011145 0.43335152 
0.7294555 -0.6632255 0.16741222 
-0.014483122 -0.7891937 0.61397356 
0.6245091 -0.7588003 -0.18496059 
0.36820868 -0.92389774 -0.104093745 
-0.04742449 -0.99030656 -0.1305528 
0.49575123 -0.652835 0.5727453 
0.18833077 -0.9814427 -0.03608078 
0.37611803 -0.746304 -0.54915 
0.36435002 -0.73443085 -0.572591 
-0.6696102 -0.5652208 -0.4818171 
-0.90410924 -0.14559932 -0.40173045 
-0.94965744 0.25294957 0.18484396 
-0.61303204 -0.67524606 -0.41016412 
-0.8103201 -0.5398669 -0.22787105 
0.0018625715 -0.91369605 -0.40639398 
0.6237743 -0.33107585 -0.7080215 
0.5517441 -0.5631494 -0.6151759 
-0.0113508925 -0.831372 -0.55560035 
-0.7336543 -0.38655567 -0.5588615 
0.5154111 -0.22149357 -0.82782364 
-0.11411257 -0.3591425 -0.92628026 
0.078550346 -0.8569973 -0.5092991 
-0.53985465 -0.8406671 -0.04284756 
-0.7335742 -0.6768919 -0.060713813 
-0.92063916 -0.3314332 -0.20633894 
-0.01031771 -0.71638715 -0.69762677 
0.20590822 -0.7711046 -0.60249436 
0.21341778 -0.7135646 -0.66729194 
0.3230264 -0.94427466 -0.0632416 
0.45837146 -0.8213427 -0.33954644 
0.59081733 -0.27414063 -0.75880295 
0.54966736 -0.24607342 -0.7983192 
0.93385035 -0.14999314 -0.32469326 
0.91931427 0.35977167 -0.15945476 
0.49313787 -0.8637412 -0.10376084 
0.31411424 0.21170369 -0.9254803 
-0.5200309 -0.3914935 -0.75914484 
-0.27922395 0.22142121 -0.9343482 
-0.2684794 0.2551471 -0.92888045 
0.6172779 0.23962379 -0.7493653 
0.063447185 0.4435355 -0.8940083 
0.52966344 0.11518591 -0.8403505 
0.55847204 -0.1937324 -0.8065835 
0.2806429 -0.6962682 -0.66064376 
-0.095678836 -0.48866937 -0.86720693 
-0.017922772 -0.4856507 -0.87396926 
-0.08371522 -0.43258548 -0.897698 
-0.24443036 -0.5700391 -0.7844165 
-0.32462004 -0.89453685 -0.30728763 
-0.62708366 -0.51396006 -0.58533007 
-0.51718956 -0.22429854 -0.8259571 
0.09393483 0.28914443 -0.9526656 
0.07928792 0.9433708 -0.32212585 
0.3618934 0.72770846 -0.5826437 
-0.10862393 0.5156747 -0.84987086 
0.3408956 -0.16644771 -0.9252488 
-0.25606984 -0.94486374 -0.2041098 
-0.33486488 -0.3823523 -0.8612039 
-0.19247438 -0.5689368 -0.7995403 
-0.033157103 -0.34595898 -0.9376636 
0.23113787 -0.96702665 -0.106934205 
0.49440038 -0.6635181 -0.56152654 
0.9546597 0.2976006 0.007670368 
0.88255835 -0.44531354 0.15095286 
0.36478826 -0.5292359 -0.7660541 
0.41347662 -0.88415676 -0.21749443 
0.09924772 -0.991399 -0.085311376 
-0.037565827 -0.99515694 -0.09083791 
-0.1752027 -0.8142657 -0.5534215 
-0.22472648 -0.18749622 -0.956213 
-0.5075164 -0.5658543 -0.649797 
0.10656225 -0.14119312 -0.98423016 
0.19687995 0.04354282 -0.97946024 
-0.62706286 -0.083041474 -0.7745298 
-0.107130386 -0.48925278 -0.8655373 
0.18957081 -0.7122527 -0.6758395 
-0.28468356 -0.955911 0.07203815 
0.4411987 -0.45794764 -0.7717693 
0.15968129 -0.6157646 -0.77158016 
-0.48725107 -0.7248067 -0.4870747 
-0.5153687 -0.58479613 -0.62642527 
-0.9510451 -0.27987137 -0.13109295 
-0.78439915 -0.26014048 -0.5630675 
-0.5982999 -0.0040647523 -0.80126196 
-0.004578734 -0.36303055 -0.931766 
0.26528695 -0.48188004 -0.8351136 
-0.25478673 -0.40886354 -0.8763073 
-0.09247179 -0.875316 -0.4746273 
-0.29942727 -0.8634949 -0.4058572 
0.022405067 -0.9888805 -0.14701481 
-0.29509318 -0.7846795 0.54515904 
0.277457 -0.95577884 -0.09749136 
0.5019333 -0.86084664 -0.08370181 
0.35420653 -0.65486056 0.6676043 
-0.88936603 -0.3889154 0.24036 
-0.79230845 -0.6101207 -0.00018650001 
-0.67215353 -0.68005174 -0.29281268 
-0.55962497 -0.82039076 -0.11738441 
0.008207978 -0.9879824 -0.15434854 
0.2358387 -0.75677913 -0.60964364 
0.36491504 -0.7315467 -0.57591367 
-0.015156661 -0.42498764 -0.90507233 
0.66443866 -0.46605247 -0.584223 
0.8475056 -0.48639864 0.21248673 
0.44419107 -0.7895534 -0.4234381 
0.52773887 -0.7471496 0.40405345 
0.33249527 -0.93230563 0.14231367 
-0.057637475 -0.79907966 -0.59845614 
-0.48554143 -0.7889035 -0.3766706 
0.33209684 -0.68873245 -0.64448375 
0.71393675 -0.6545564 -0.2486971 
0.31456923 -0.76429427 -0.5629393 
0.39415434 -0.56667095 -0.7235513 
0.5531008 -0.33475175 -0.762903 
0.06178345 0.2071345 -0.9763596 
-0.057608094 0.9115258 -0.40718815 
-0.19985834 0.4177529 -0.88630646 
-0.04770387 -0.032050904 -0.99834716 
0.25481305 -0.07732933 -0.9638935 
0.08460365 0.8601402 -0.502992 
-0.26302695 0.8656492 -0.425991 
-0.26748207 0.76875335 -0.5809232 
-0.31366327 0.8385838 -0.44541284 
-0.34435397 0.5471296 -0.76293486 
-0.30461207 0.36326826 -0.8804815 
-0.1515688 -0.38462552 -0.9105439 
0.041517965 0.010602989 -0.99908155 
0.017378157 -0.48764628 -0.87286836 
0.6695735 -0.06942478 -0.7394942 
0.11995637 -0.61478305 -0.7795205 
0.06911233 -0.30413938 -0.9501173 
0.4312658 -0.5487053 -0.716193 
-0.754469 -0.49152562 -0.43494722 
-0.7999286 -0.01693847 -0.59985614 
-0.48823664 -0.8084203 -0.32875794 
-0.8449571 -0.38164094 -0.37469673 
-0.54370505 -0.55632156 -0.6284037 
-0.5392757 0.044122618 -0.8409726 
0.26269296 -0.46284178 -0.84662265 
-0.34262756 -0.62757325 -0.6991125 
-0.56356466 0.1277586 -0.8161328 
0.36846957 -0.10424004 -0.9237772 
0.74101377 -0.3422986 -0.57769394 
0.77950436 0.07106146 -0.62235296 
0.48386 -0.41906813 -0.7682848 
0.73412156 -0.36130682 -0.57491136 
0.32302517 -0.3471893 -0.88040584 
0.30409282 -0.57990116 -0.7558057 
0.64197487 -0.43450963 -0.6317196 
0.04674801 -0.19124383 -0.9804287 
0.54405576 -0.5518131 -0.6320647 
-0.43178272 -0.5064518 -0.74637145 
-0.6433639 -0.40331456 -0.6507075 
-0.13934666 0.101567596 -0.9850211 
-0.26217192 -0.23734488 -0.93537873 
0.5757553 -0.57034415 -0.58584416 
0.70848626 -0.65508324 -0.26251334 
0.48199365 -0.74415517 -0.46250978 
-0.09938648 -0.6784531 -0.72789 
-0.6167689 -0.77682215 -0.12705782 
-0.21007444 -0.07006769 -0.9751714 
-0.46521237 -0.3078135 -0.8299568 
0.3513587 0.4759785 -0.8062205 
-0.12285286 0.12509191 -0.9845097 
0.9190343 -0.15024547 -0.36442044 
0.06824264 -0.16906488 -0.9832396 
0.31244865 -0.9203366 -0.23527949 
0.6507241 -0.14024703 -0.7462499 
0.24761385 -0.054465447 -0.96732676 
-0.22653024 0.17545357 -0.95807105 
0.18491927 -0.4954709 -0.8487129 
-0.1457707 -0.25177285 -0.95674515 
0.31281883 -0.11534034 -0.94278365 
-0.24368347 -0.2898797 -0.92552054 
0.0026920827 0.306672 -0.9518115 
-0.5910144 -0.7622812 -0.26387388 
-0.045382436 -0.70586395 -0.7068922 
-0.6712738 0.0976608 -0.73474747 
-0.47400615 -0.2974639 -0.8287541 
-0.14398623 -0.45675462 -0.8778628 
0.24612449 -0.07646752 -0.96621716 
-0.49714646 -0.19291767 -0.8459482 
-0.42353824 -0.25752088 -0.8685036 
0.10295807 -0.72613513 -0.67979956 
-0.3309012 -0.59771717 -0.7302319 
-0.20071277 -0.48461783 -0.8513871 
-0.502982 -0.40536624 -0.76333964 
-0.23030736 -0.6068702 -0.7607017 
-0.5879231 -0.3203269 -0.7427901 
0.3968749 -0.2375609 -0.8865976 