# OOMMF: rectangular mesh v1.0
# Segment count: 1
# Begin: Segment
# Begin: Header
# Desc: Time (s) :  5.83000000000001e-07
# Title: m
# meshtype: rectangular
# meshunit: m
# xbase: 2e-09
# ybase: 2e-09
# zbase: 5e-10
# xstepsize: 4e-09
# ystepsize: 4e-09
# zstepsize: 1e-09
# xmin: 0
# ymin: 0
# zmin: 0
# xmax: 1.024e-06
# ymax: 1.024e-06
# zmax: 1e-09
# xnodes: 256
# ynodes: 256
# znodes: 1
# ValueRangeMinMag: 1e-08
# ValueRangeMaxMag: 1
# valueunit: 
# valuemultiplier: 1
# End: Header
# Begin: Data Text
-0.6119495 0.6569274 -0.44041368 
-0.32394856 0.7825387 -0.53168654 
-0.38274017 -0.07002277 -0.92119855 
-0.51413393 -0.0001004675 -0.85771 
0.3102786 -0.88112324 -0.35686004 
-0.25010508 -0.967622 -0.033990975 
0.74434084 -0.66728896 -0.026120016 
-0.35612097 -0.9197096 0.16526388 
-0.16750936 -0.9656317 -0.19873637 
-0.11799808 -0.8686081 0.48124477 
-0.39765704 -0.82908416 0.39305 
-0.3912053 -0.79767835 0.45898557 
-0.24478047 -0.95793897 -0.14978522 
-0.7330505 -0.29862687 0.6111129 
-0.93585986 -0.33803275 0.099500634 
-0.8485174 -0.076009035 0.5236802 
-0.78902996 -0.45917052 0.40815955 
-0.14052635 -0.47471574 -0.86884826 
-0.23007947 -0.35023868 -0.9079628 
-0.24538334 -0.6367968 -0.73094255 
-0.70471907 -0.7029643 -0.09598112 
-0.2803822 -0.10716311 -0.9538879 
-0.42778122 -0.8300997 -0.35768408 
0.014738234 -0.9762046 -0.21635051 
0.46952167 -0.60527706 -0.6427979 
0.32609004 -0.9404282 -0.09623038 
0.3628428 -0.92594427 -0.10474958 
0.061156284 -0.9655177 0.2530527 
-0.17485775 -0.9845928 0.0013834428 
-0.12518916 -0.8854061 -0.44764262 
-0.14717701 -0.9329494 -0.32854912 
0.067869335 -0.8763147 0.47693422 
-0.08686656 -0.9771981 -0.19374767 
-0.5027287 -0.5039189 -0.7023744 
-0.27661356 -0.95781964 -0.077887885 
-0.37769958 -0.74781364 -0.5460016 
-0.4745389 -0.58553916 -0.65723413 
-0.15613829 0.1888499 -0.96951365 
0.8286317 0.50000924 -0.25171497 
0.85382223 -0.2357386 -0.46412814 
0.73820984 -0.42820725 -0.521234 
0.60593396 -0.5412755 -0.5829793 
0.23644356 0.7665715 -0.59704506 
0.08732636 0.27852842 -0.9564498 
0.26647258 -0.50158167 -0.8230482 
0.055520248 -0.82690525 -0.55959386 
0.7392035 -0.60851383 -0.28859845 
0.31513867 -0.33979088 0.886132 
-0.25531706 -0.75798684 0.6002242 
0.2032823 -0.84155315 0.5004644 
0.072956994 -0.99614036 0.048802447 
-0.865568 -0.16929592 -0.47130775 
-0.06516116 -0.9670768 -0.2460014 
0.49125728 -0.8644158 -0.107012935 
0.47604302 -0.8793648 0.010028065 
-0.11064097 -0.8215228 0.55933803 
-0.50239736 -0.6256891 0.5967496 
-0.9249726 -0.06826768 0.37385184 
-0.8462908 -0.31108555 -0.4324554 
-0.56782955 -0.52005404 -0.63805443 
0.38396448 -0.65328294 -0.652528 
0.15228608 -0.73485637 -0.66090477 
-0.12695771 -0.48900092 -0.86299473 
-0.037419304 -0.93670744 -0.3481079 
0.11141245 -0.9688522 -0.221162 
-0.4750825 -0.8796155 -0.023943868 
-0.32612833 -0.943031 -0.06582532 
-0.9541575 -0.29893073 0.014963744 
-0.871646 -0.24711442 -0.42328215 
-0.23970118 -0.94677824 -0.21483564 
-0.18180415 -0.9790768 0.09141108 
0.15178205 -0.5358022 -0.8305891 
0.3970213 -0.8135501 -0.42486513 
-0.15352434 -0.7418925 -0.65270656 
0.2339651 -0.26338804 -0.93588835 
0.026983652 -0.7082744 -0.7054213 
0.42848548 -0.78891844 -0.44046342 
-0.6067509 -0.44398713 -0.6593397 
-0.23051254 0.21299091 -0.94947296 
0.19099137 0.22661088 -0.9550758 
0.34245875 0.20646249 -0.91656715 
0.097453974 -0.8098001 -0.5785555 
0.9015651 0.2452542 -0.35641372 
0.9230579 0.03355279 -0.38319513 
0.26268712 -0.3660519 0.8927494 
0.45073202 -0.6047815 0.65656686 
0.13321483 -0.5199334 0.8437554 
0.14324363 -0.97220224 0.18521409 
-0.75007993 -0.6613468 0.000772282 
0.48349947 -0.78909546 -0.37888855 
0.7493684 -0.6346772 -0.18876421 
0.9467485 0.064221665 -0.31550446 
0.8974846 -0.13824862 -0.41881844 
0.9819343 -0.13845745 0.12897532 
0.53342164 -0.4075497 0.7411914 
0.09558998 -0.64935285 0.75445575 
0.27812645 -0.8386246 -0.46835303 
0.6592634 -0.70078313 -0.2725342 
0.54950845 -0.8347614 -0.034843218 
-0.24530028 -0.93046635 -0.27213997 
-0.31678596 -0.53738123 -0.78158057 
0.13030359 -0.6158484 -0.7770146 
0.22593626 -0.63748336 -0.73659205 
0.43711665 -0.8760889 -0.20346294 
-0.22491343 -0.96918225 0.10049805 
0.39075395 -0.902353 -0.181853 
0.32971057 -0.8748821 -0.3547848 
-0.110523224 -0.85660076 -0.50400376 
-0.29231706 -0.85072446 -0.43682814 
-0.35526922 -0.4033103 -0.843282 
0.14334989 -0.4368391 -0.88804424 
0.32575652 -0.44504288 -0.8341581 
0.6579601 -0.09898652 -0.74651873 
0.5903068 -0.46879765 -0.65708953 
0.44103643 0.18004094 -0.87924516 
0.5575168 -0.57190347 -0.60174876 
-0.27670997 -0.49034303 -0.8264353 
-0.016490178 -0.5432527 -0.8394074 
0.39631543 -0.4767654 -0.7846203 
-0.72144336 -0.43696928 -0.537194 
-0.59758615 -0.50020206 -0.6266488 
-0.17663397 -0.86278623 -0.47370914 
0.46531346 -0.23554075 -0.85323155 
0.7502446 -0.65213126 0.10889428 
0.8212805 -0.54474837 0.16955125 
0.3358208 -0.94073105 -0.04742811 
0.22815676 -0.35524482 -0.90650195 
0.53583074 -0.69415015 -0.48066738 
-0.6543026 -0.7427911 0.14194918 
-0.38827986 -0.2805387 -0.87780225 
-0.1310908 -0.053719696 -0.9899138 
-0.4121799 -0.04145391 -0.910159 
-0.3079273 0.2742653 -0.91102105 
-0.010839711 -0.15400514 -0.98801064 
-0.36546102 -0.09374742 -0.9260938 
-0.19863681 -0.7449553 -0.63685554 
-0.5154164 -0.003754067 -0.8569317 
0.052480627 -0.67539275 -0.7355885 
-0.8245155 -0.44645774 -0.34763432 
-0.93743694 -0.30349383 -0.1705975 
-0.6633733 0.3030978 -0.6841547 
-0.44108003 -0.89622176 -0.04727467 
-0.27648208 -0.935788 0.21876633 
-0.11065563 -0.96869826 0.22221433 
0.52418286 -0.84254986 -0.123862565 
0.20743424 -0.9182256 -0.33739147 
-0.15274869 -0.8399758 -0.5206808 
-0.11758763 -0.7951215 -0.59494126 
-0.33326355 0.14900124 -0.93098557 
-0.60763115 0.6985873 -0.37783623 
-0.5992282 -0.010157679 -0.8005139 
-0.535817 0.21325634 -0.816959 
-0.30701318 0.62146366 -0.7207815 
0.13781442 0.05077409 -0.9891559 
-0.08491136 0.101577 -0.99119735 
-0.22204636 -0.27328765 -0.9359537 
0.32244763 -0.43845472 -0.83891904 
0.23941676 -0.97032106 -0.03400999 
0.6003006 -0.7941977 -0.09428346 
0.588416 0.017750835 0.8083635 
0.36871403 0.16068937 0.9155485 
0.73742706 -0.6051763 0.29993838 
0.16137008 -0.48606002 0.85889775 
-0.5078585 -0.7825265 0.3601836 
-0.7093629 -0.69281083 0.12968224 
-0.63978976 0.00025359457 -0.7685499 
-0.15481226 -0.91342974 -0.37640312 
0.1622948 -0.89499444 0.41550618 
-0.72573096 -0.5218337 -0.448335 
-0.47708505 -0.38486186 -0.79010844 
0.32306552 -0.88012594 -0.34786078 
-0.78152144 -0.58773917 -0.20925325 
0.4042611 -0.54128224 -0.7372833 
0.5472475 -0.4645884 -0.69618803 
-0.192 -0.94541097 -0.26331398 
0.01474821 -0.9249698 0.3797544 
-0.27917627 -0.7298427 -0.62401146 
-0.3590177 -0.45182446 -0.81667686 
-0.24223639 -0.053411897 -0.96874595 
0.5662127 0.33019078 -0.7552333 
0.7020633 -0.33738548 -0.62711895 
0.8960425 -0.40034208 -0.19192176 
0.7781487 -0.45569944 0.4322299 
0.36709943 -0.06609604 0.92783046 
0.05650637 -0.13105112 0.989764 
0.4009774 -0.72326773 0.5622285 
0.4427616 -0.10028182 0.89101386 
0.14505473 -0.2523029 0.95671445 
0.5597507 -0.7933894 0.2391914 
0.21637237 -0.9687083 0.12160286 
-0.43012673 -0.885057 0.1779469 
-0.6898422 -0.7219581 0.05379913 
-0.14563666 -0.48290047 -0.8634796 
0.22752404 -0.45569962 -0.8605642 
0.63356084 -0.66462153 -0.39607942 
-0.039840624 -0.638942 -0.7682226 
0.40328667 -0.9134619 0.054288466 
-0.7752623 -0.554477 0.30252874 
-0.26069906 -0.24086784 0.9348897 
-0.6952857 -0.61322194 0.37488225 
-0.9182361 0.26336473 -0.2957727 
-0.70086575 0.26670486 -0.6615556 
-0.038074728 -0.37077922 -0.9279403 
-0.3642137 -0.5420509 -0.7573171 
-0.6753181 -0.5314457 -0.5113814 
-0.16415228 0.1251469 -0.9784643 
-0.18753485 -0.47682232 -0.8587614 
0.27577707 -0.16093218 -0.94765395 
-0.331181 -0.86570686 -0.3753277 
-0.4720469 -0.87677765 -0.09182986 
0.7517127 0.049061798 -0.65766335 
0.47058806 -0.7689913 -0.43266535 
0.43889418 -0.8627232 0.25115886 
0.6130608 -0.7098147 0.3468712 
0.59276146 -0.026104862 0.80495495 
-0.43072098 -0.52612054 0.7332643 
-0.6997919 -0.544871 -0.46196005 
-0.78929 -0.5348655 -0.3015631 
0.27390864 -0.95376724 0.12370202 
0.3564021 -0.8820453 0.30817792 
0.068070374 -0.9812938 0.18008024 
-0.7293009 -0.6637344 -0.1660632 
-0.0976468 -0.36150226 -0.92724395 
-0.053592928 -0.87489337 -0.4813412 
-0.16323234 -0.52986884 -0.8322224 
0.28811213 -0.93953806 -0.18509401 
0.39967844 -0.4373981 0.80556816 
0.82895374 -0.3182805 -0.45992762 
0.6148174 -0.69280744 -0.37685224 
-0.10300599 -0.638156 0.7629854 
0.019933678 -0.84165794 0.53964305 
-0.26055878 -0.7457571 -0.6131522 
0.010156366 -0.9904952 -0.13717158 
0.5083457 0.03164378 -0.8605715 
0.15830125 -0.5686794 -0.80718315 
0.35103574 -0.6550978 -0.66904473 
-0.39324695 -0.9157253 -0.08248628 
-0.12225858 -0.9322776 -0.34045765 
0.47095305 -0.70541966 -0.5297041 
0.022154544 -0.62453157 -0.78068537 
0.64975023 -0.42702538 -0.6288672 
-0.07494807 -0.72172695 -0.6881084 
-0.17246604 -0.9830074 0.06286516 
-0.8386398 -0.5276707 -0.13508101 
-0.7606058 -0.6469567 0.054092664 
-0.7897631 -0.6133685 -0.0072985846 
-0.87775165 -0.47911593 0.00018424577 
-0.5953434 -0.8030593 -0.025730595 
-0.8832007 -0.19633034 -0.42592373 
-0.28782463 0.3218267 -0.90198934 
0.20715645 0.51263326 -0.8332428 
-0.5005374 -0.22126625 -0.8369609 
0.51042706 -0.39956087 -0.76145613 
0.0629638 0.0061107706 -0.99799716 
0.054061547 0.16291966 -0.98515713 
0.36003277 -0.42683217 -0.8295726 
-0.33449423 0.87884086 0.34022412 
-0.5378962 0.8341327 -0.12202668 
-0.96147424 0.24354136 -0.1274952 
-0.24848065 -0.49310857 -0.8337275 
-0.4885281 -0.112184234 -0.8653063 
-0.45414945 -0.51161253 -0.72938395 
-0.46514753 -0.63017076 -0.62170947 
-0.44228417 -0.78835243 -0.4276508 
-0.62687683 -0.23436353 -0.7430338 
-0.64623165 -0.64849246 -0.40229627 
0.015015433 -0.78144693 0.62379104 
-0.55156094 -0.8284845 0.0969225 
0.12270394 -0.9768128 0.17544417 
-0.44041145 -0.8578528 -0.26481372 
-0.8487158 -0.364348 -0.3833172 
-0.7123035 -0.3758666 -0.5927463 
-0.6062841 -0.20540178 -0.7682642 
-0.22685581 0.09348909 -0.96943086 
-0.6285136 -0.51582086 -0.58215076 
-0.38284668 -0.92055255 -0.077533394 
0.04948274 -0.99278617 -0.1092116 
0.07804439 -0.96301603 -0.257894 
0.056639854 -0.9877083 -0.14568569 
0.43233046 -0.8506522 0.29913422 
0.16476633 -0.9693583 -0.18219924 
-0.06774691 -0.99534523 -0.06854438 
0.1423885 -0.93720055 -0.3184034 
-0.101969056 -0.9936181 0.04822428 
-0.019210806 -0.5692668 -0.82192844 
0.007015473 -0.9146099 -0.4042767 
-0.48815468 -0.8608321 -0.1437814 
-0.9510954 0.26301378 -0.16199213 
-0.45369762 -0.5256856 -0.71959233 
0.1588708 -0.5551696 -0.8164233 
-0.339041 -0.8850802 0.31887984 
-0.6605849 -0.4139786 -0.6262982 
-0.097413875 -0.3570018 -0.9290104 
-0.18236081 0.18479168 -0.96571046 
0.78116816 0.23651083 -0.5777879 
0.5879253 0.2331783 -0.77457845 
0.27809826 0.05519105 -0.9589658 
-0.07888455 -0.094678104 -0.9923776 
0.2491914 0.39003152 -0.88644177 
-0.011219899 0.37124377 -0.92846763 
-0.20867465 -0.4429815 -0.8719073 
-0.111871876 -0.5505887 -0.8272465 
-0.40630752 -0.8389337 -0.36208364 
0.22354552 -0.8856449 -0.40701422 
0.3670899 -0.92980385 0.02664411 
0.2082239 -0.90562886 0.36943096 
0.045113474 -0.82874036 -0.557812 
0.22504115 -0.503423 -0.83421934 
0.42507368 -0.9039118 0.047494374 
0.17703721 -0.9464401 0.27001676 
0.18470448 -0.88004 0.43750882 
0.17809685 -0.8965833 0.40548727 
-0.2171214 -0.7354455 0.64185536 
-0.14338642 -0.9789131 0.1454972 
-0.87483597 -0.44720668 0.18619442 
-0.7592237 -0.22988059 -0.60887957 
0.040608577 -0.52479964 -0.8502567 
-0.32695803 -0.44938305 -0.8313564 
-0.04731134 -0.38718608 -0.920787 
0.49054652 -0.70326066 -0.51457626 
-0.3718524 -0.775098 -0.5108315 
0.29855135 -0.93954664 0.16768833 
-0.31925946 -0.94202334 0.10327389 
-0.53766924 -0.83045286 0.14580792 
-0.54918814 -0.15567513 -0.821071 
-0.08228402 -0.7970387 -0.5982966 
-0.11077708 -0.94295055 -0.31396312 
-0.46225777 -0.83368754 -0.30213055 
-0.16801135 -0.5141717 -0.8410706 
-0.3656237 -0.31749606 -0.87493753 
0.327062 0.17665917 -0.9283437 
0.1831954 -0.26203808 -0.9475102 
0.4857333 -0.74469537 -0.45770293 
-0.01470494 -0.3548658 -0.93480164 
-0.12625894 0.28689072 -0.9496065 
-0.07052124 0.33311728 -0.94024456 
0.099112734 -0.11906429 -0.9879273 
0.5405898 -0.44979474 -0.7109482 
0.31542173 -0.32298845 -0.8922936 
0.7025066 -0.2987365 -0.645942 
0.16697498 -0.74623585 0.64440006 
0.123606384 -0.9367563 0.32742798 
0.46962097 -0.82719594 0.3085498 
-0.04677096 -0.9363727 -0.3478773 
-0.18023041 -0.97723454 -0.11193636 
-0.028203405 -0.9994039 -0.019912632 
0.34812206 -0.89639306 -0.27439144 
0.59798616 -0.6415213 -0.48048207 
0.78026503 -0.6143393 -0.117362306 
0.7397063 -0.6691563 0.071165845 
0.48898888 -0.69895107 0.5218787 
-0.11756704 -0.73034513 0.6728848 
-0.38898826 -0.8909483 -0.23430617 
-0.29805803 -0.8423578 -0.44899324 
-0.054066654 -0.9343707 0.35217658 
0.0068057254 -0.5977491 -0.80165434 
-0.1175887 -0.70476156 -0.6996314 
-0.17893943 -0.1497383 -0.9723987 
-0.21131432 -0.25238276 -0.9442718 
0.07871623 0.02281421 -0.99663603 
0.7442418 -0.56124544 -0.36208808 
0.48285455 -0.7966181 -0.3636637 
0.26821554 -0.32304892 -0.9075792 
-0.42787275 -0.56727415 -0.70365113 
-0.08563081 -0.43046108 -0.89853805 
-0.3362011 -0.5317623 -0.7773016 
0.070846766 0.20788226 -0.97558486 
0.4321457 0.5709897 -0.69801205 
-0.12706433 -0.3413858 -0.93129504 
0.55695206 -0.57962704 -0.5948419 
0.116141535 -0.24328315 -0.96297693 
0.3823291 0.377742 -0.8432885 
-0.9543384 -0.040704027 -0.29594195 
-0.30548087 0.08183587 -0.94867504 
0.29350394 0.47196266 -0.8313283 
-0.16182919 -0.12604079 -0.97873646 
0.5606093 -0.09578719 -0.82252175 
0.3774732 -0.77411544 -0.50819236 
0.38696826 -0.7337586 -0.55843884 
0.082010426 -0.9111124 -0.40391642 
-0.37725234 -0.61800486 -0.68974686 
0.40111905 -0.6846926 -0.6085224 
-0.43271026 -0.1482557 -0.88925934 
0.07019026 -0.31683677 -0.9458794 
0.2273691 -0.47236353 -0.85157263 
-0.0016732271 -0.16151722 -0.98686856 
-0.19307445 -0.34677184 -0.9178625 
-0.25509506 0.22654109 -0.9400031 
-0.09434822 0.8999074 -0.4257524 
-0.4092224 -0.05639232 -0.9106905 
-0.54028374 -0.34778175 -0.7662516 
-0.03727886 -0.36253753 -0.9312233 
-0.39687875 -0.17798467 -0.9004492 
-0.35028484 -0.1655743 -0.9218925 
-0.7091706 -0.41778108 -0.5679227 
-0.84810424 -0.3095168 -0.43002155 
-0.6335219 -0.18265459 -0.75185597 
-0.1564757 -0.98377603 -0.08775044 
-0.70913184 -0.70314205 0.052186634 
-0.38787708 -0.73326147 -0.5584613 
-0.20983402 -0.7422398 -0.63643533 
-0.3810864 -0.9222869 -0.064499386 
-0.15606818 -0.9547436 -0.25319472 
0.22674765 -0.26227728 -0.9379745 
-0.07213954 -0.3509037 -0.9336287 
-0.97338814 0.2131319 -0.084204726 
-0.63677657 0.546165 -0.5442605 
-0.50679654 0.5479839 -0.6654855 
-0.43877053 0.7745813 -0.4555262 
-0.52480704 0.23760349 -0.8173874 
0.445379 0.6527556 -0.61281955 
-0.03228344 0.030642096 -0.99900895 
0.620707 -0.19702627 -0.7588831 
0.6755778 -0.69960195 0.23270544 
0.23556495 -0.9718118 -0.009545703 
0.41333035 -0.8542902 0.3151925 
0.4346888 -0.8408737 0.32245478 
0.71756643 -0.49768728 -0.48724312 
0.2819034 -0.923909 -0.25869417 
0.06306458 -0.91457695 -0.3994648 
-0.558773 -0.76868856 -0.3112728 
-0.23374109 -0.65336335 -0.72005665 
-0.28813362 -0.8379355 -0.46351182 
-0.015366544 -0.7790594 -0.6267618 
-0.7547492 -0.121595025 -0.644646 
-0.65466344 -0.6073236 -0.4500821 
0.3813972 -0.90126103 -0.20558397 
0.80488276 -0.5798616 0.12619168 
0.7124767 -0.688415 -0.13587457 
0.52116764 -0.46818444 -0.71357393 
-0.3370049 -0.7335527 -0.5901934 
0.4938152 -0.81365395 -0.30677956 
-0.2963611 -0.91521156 -0.27305308 
-0.15389049 -0.21999387 -0.9632863 
0.16413864 0.15677941 -0.9738987 
0.4760745 0.6935853 -0.540641 
0.9770098 0.07101942 -0.20101789 
0.76632035 -0.3537736 -0.5362811 
0.68684393 -0.70285976 0.18502331 
0.95089144 -0.29462555 0.094874635 
0.27531913 -0.8473874 0.4540199 
0.45663327 -0.79086745 -0.40744895 
-0.101365104 -0.8287107 0.55042154 
-0.5253412 -0.85069376 0.01834927 
-0.48121604 -0.853577 -0.19959301 
-0.22073026 -0.67674977 -0.70234466 
0.26852292 -0.95802605 -0.100407675 
-0.77123666 -0.33440894 -0.54163164 
-0.09373918 -0.12013525 -0.9883221 
0.19140463 0.06184224 -0.97956103 
0.42318508 -0.75327736 -0.5034756 
0.42265496 -0.7457033 -0.5150627 
-0.16190508 -0.94991916 -0.2672835 
-0.4609526 -0.87222487 0.16354387 
-0.3976201 -0.86119086 0.31662047 
-0.112661086 -0.98823696 0.10341809 
-0.38407314 0.043713864 -0.92226726 
-0.28657293 -0.6102458 -0.73856354 
-0.6818796 -0.057952333 -0.7291652 
-0.16151622 -0.2726534 -0.94845814 
0.15946062 -0.16181545 -0.97385216 
-0.010697887 -0.26933455 -0.96298736 
0.114862755 -0.20524259 -0.9719476 
0.20451844 -0.45277774 -0.8678506 
-0.13237436 -0.7040078 -0.69774646 
0.4051724 -0.7590054 -0.5096528 
0.16780198 -0.88390905 -0.43651715 
0.5235178 -0.7116754 -0.46845198 
0.32428503 -0.9145379 0.24178468 
0.19603546 -0.90686864 -0.37304094 
-0.005742272 -0.9941126 -0.10820027 
0.055311944 -0.9651854 0.25565195 
0.4452128 -0.71957606 -0.5329127 
0.37467417 -0.6658293 -0.6452059 
0.018461669 -0.21247175 -0.9769928 
0.3294164 0.031744573 -0.943651 
-0.21538992 -0.8171354 -0.5346934 
0.53722453 -0.52922714 -0.6567409 
0.41112167 0.061650064 -0.90949345 
0.6703412 -0.5635972 -0.48270166 
0.26477876 -0.75670284 -0.59773993 
0.44301462 -0.79093117 -0.42209697 
0.57774997 -0.7645922 0.28566378 
0.6295056 -0.716787 -0.29989868 
0.5939367 -0.66014993 -0.45982754 
0.6756067 -0.63546944 0.3738105 
-0.081477664 -0.98444206 0.15567727 
-0.05913394 -0.7156107 -0.69599175 
0.47688368 -0.6216265 -0.6214198 
0.7279704 -0.47780213 -0.49169523 
0.3267614 -0.13308014 -0.9356905 
0.23826528 -0.67206836 -0.701109 
-0.017795444 -0.99678653 -0.07810222 
-0.36529064 -0.45603433 -0.81153905 
0.36025396 -0.6660085 -0.65318435 
-0.28798395 -0.44296914 -0.84902513 
0.39234057 -0.46480727 -0.79374 
-0.7059118 -0.633783 -0.31623995 
-0.17835082 -0.98219424 -0.059038837 
-0.5934209 -0.79879826 0.098857805 
-0.79546666 -0.5925497 -0.12695578 
-0.6318814 -0.64344025 0.4321003 
-0.3922043 -0.90228194 -0.17906155 
-0.42985997 -0.726486 -0.5361329 
-0.72644484 -0.4842524 -0.4876244 
-0.6216076 -0.43934742 -0.6485198 
-0.20486762 0.43447655 -0.87707436 
-0.11556694 -0.4453281 -0.88787794 
-0.51888025 -0.6437357 -0.56246567 
0.44274777 0.2100761 -0.87168956 
0.5168862 0.16438727 -0.8401224 
0.6215472 -0.301559 -0.7230085 
-0.24846661 0.6592453 0.7096901 
-0.30002046 0.94958186 -0.09100615 
-0.7519479 0.5121268 -0.4150912 
-0.3055687 0.71557605 -0.62815505 
-0.5911654 0.1277989 -0.79636115 
0.24583614 -0.5147877 -0.821315 
0.20151092 -0.49800745 -0.84343463 
-0.47716352 -0.8191825 -0.31820586 
-0.626315 -0.7686463 -0.13004738 
-0.37567586 -0.46279323 -0.802926 
0.18070565 -0.98083454 0.0728644 
0.3790921 -0.86401975 -0.3312992 
0.6283631 -0.65966666 -0.41231042 
0.2018525 -0.95859253 -0.2008878 
-0.27333456 -0.9386031 -0.21050526 
-0.13574402 -0.77882296 -0.6123794 
-0.23663293 -0.86478394 -0.44289225 
-0.30946368 0.45164645 -0.83680815 
-0.5838038 -0.4086771 -0.7015385 
-0.5918828 -0.70907027 -0.38326773 
-0.046243906 -0.49428776 -0.8680675 
0.07855818 -0.652107 -0.7540458 
-0.115348496 -0.31464505 -0.9421748 
0.43675584 -0.30621335 -0.8458593 
0.22415328 -0.91229975 -0.34273085 
-0.13597147 -0.9415624 -0.30817536 
0.2617762 -0.7988165 -0.54163224 
0.37636507 -0.6470399 -0.66309035 
0.0071192766 -0.5507636 -0.83463097 
0.36919728 -0.6841168 -0.6290292 
0.56143624 -0.77135754 0.29966158 
-0.37593886 -0.51900196 0.7676633 
-0.61138064 -0.7304465 0.30440372 
-0.084648885 -0.9427342 -0.32262516 
-0.79241693 -0.29916003 -0.5315814 
-0.57986045 -0.13634375 -0.8032263 
-0.3700097 -0.10484904 -0.9230924 
-0.2985918 0.5623968 -0.77107257 
-0.80644876 0.42852485 -0.4074396 
0.060077544 0.07054775 -0.9956976 
0.18817247 0.3865883 -0.9028514 
-0.30679524 -0.13614872 -0.9419874 
0.10402694 0.36714953 -0.9243266 
-0.79324627 0.065883406 -0.60532624 
-0.08861302 -0.7102875 -0.69831187 
0.17687142 -0.97633964 -0.12440818 
-0.27807456 -0.8175976 -0.5041913 
-0.27842763 -0.72675276 -0.6279399 
0.74929255 -0.31914115 -0.58026683 
0.09886022 -0.65686977 -0.74749506 
0.27556264 -0.6417193 -0.7157245 
0.56856596 -0.7749349 -0.27605948 
0.40296164 -0.8835846 0.23853776 
0.34359378 -0.9365978 0.06876038 
-0.17193261 -0.8083337 0.5630595 
0.8351901 -0.5238995 0.16729277 
0.5161145 -0.7343016 0.44093892 
-0.16788009 -0.9676548 -0.18830946 
-0.4740442 -0.8584712 -0.19572783 
-0.75560594 -0.51313686 -0.4071242 
-0.6959533 -0.4614173 -0.550221 
-0.4079482 0.09074097 -0.9084847 
0.040306326 0.039131887 -0.99842083 
0.18899244 -0.060882356 -0.9800894 
0.5517835 -0.5610216 -0.61708164 
-0.19710353 -0.9602971 -0.19743279 
-0.13483912 -0.96713775 0.21555309 
-0.52821887 -0.84668434 -0.06411301 
-0.5791059 -0.462263 -0.67152756 
-0.39026803 -0.49010065 -0.77941793 
0.35508046 -0.29017356 -0.88866043 
0.6411956 -0.183127 -0.7452065 
0.18159287 -0.8316903 -0.52470493 
0.024819408 -0.55321056 -0.8326717 
-0.376603 -0.81264335 -0.44472575 
0.28238434 -0.40683436 -0.8687606 
0.22257212 0.0119779445 -0.9748427 
0.12494384 0.07360738 -0.9894297 
0.12132331 0.041666646 -0.9917382 
0.22854564 0.414736 -0.880773 
0.3015005 0.17988479 -0.93634343 
0.27030164 0.5862246 -0.7637262 
-0.0071132863 0.7907068 -0.61215377 
0.49733466 0.41013482 -0.76449186 
0.42507958 -0.82944757 0.36238664 
0.3083694 -0.7785251 0.54663247 
-0.21629623 -0.9258376 0.30990466 
0.5005483 -0.80065763 -0.32923996 
-0.3795255 -0.8856925 -0.26741225 
0.1297376 -0.77100253 -0.6234767 
0.09028464 -0.9561798 -0.27851197 
0.31630993 -0.90854955 0.27292064 
0.8442305 -0.50289965 -0.1853833 
0.565089 -0.59896344 0.56737745 
0.24954703 -0.90673405 0.3399408 
-0.033428457 -0.9804151 0.19408493 
-0.2602671 -0.8939926 0.36474398 
-0.6679821 -0.73767656 0.098149866 
-0.5204291 -0.6181092 -0.5891474 
-0.7853814 0.2055047 -0.58390397 
-0.6360841 -0.07285887 -0.7681723 
-0.39243695 -0.12959877 -0.91060287 
-0.12669833 -0.38464993 -0.914326 
0.9596985 0.09909025 -0.26298296 
0.57509434 -0.7803106 -0.24572763 
-0.15895368 -0.31123275 -0.9369461 
-0.0092493715 0.020117259 -0.9997549 
-0.012247122 -0.1666436 -0.9859411 
-0.4578176 0.02867764 -0.8885836 
0.11399398 0.04176754 -0.99260306 
0.7006024 -0.15527543 -0.6964524 
0.011132976 0.22790392 -0.97362006 
0.59361404 0.0585866 -0.80261445 
0.5440016 -0.06262187 -0.83674425 
0.27763724 -0.6056759 -0.74570394 
-0.1386969 0.5441798 -0.8274247 
0.13284986 0.10450283 -0.98561156 
0.2769592 -0.016245158 -0.9607443 
-0.30636412 0.56395936 -0.7668709 
-0.14554396 0.21240124 -0.96628296 
0.2408159 0.021255402 -0.97033805 
-0.03410262 -0.38451222 -0.92248976 
0.8226669 -0.09075109 -0.56123394 
0.12975833 -0.68954504 -0.712524 
0.17389901 -0.57599384 -0.79874295 
0.032051347 -0.46356842 -0.8854813 
-0.36234695 -0.127211 -0.9233212 
-0.2672058 -0.24427089 -0.93216574 
0.1604351 -0.32339153 -0.9325655 
-0.020214643 -0.7952198 -0.6059842 
-0.033031825 -0.5720193 -0.81957483 
0.25510547 -0.17171673 -0.9515433 
0.25068069 0.10304873 -0.9625696 
-0.25459647 0.48735103 -0.8352663 
-0.41562954 -0.5447515 -0.7283529 
-0.3712578 -0.86634535 -0.33408603 
-0.36032793 0.52110344 -0.77370226 
-0.2506772 0.6345707 -0.731082 
-0.057958566 -0.024863396 -0.9980094 
-0.22940688 -0.34023845 -0.9119267 
-0.42241868 -0.0022648894 -0.9063981 
0.72042036 -0.20136854 -0.66366047 
0.05959588 -0.7601365 -0.6470247 
-0.18957703 -0.8716788 -0.45192543 
0.15482493 -0.42758727 -0.89061695 
-0.3021769 -0.736638 -0.60502374 
-0.46958977 -0.70451164 -0.5321173 
-0.16135244 -0.30960378 -0.93707573 
-0.9784049 -0.20325959 -0.037544157 
-0.88657147 0.36933932 -0.27853107 
-0.48058578 0.8549538 -0.19517028 
-0.28500372 0.70345175 -0.651098 
-0.22742712 0.63905513 -0.734769 
-0.09751738 0.32347247 -0.9411992 
-0.056879662 -0.46869123 -0.88152903 
-0.6346983 -0.6278739 -0.4504803 
-0.1802557 0.30438286 -0.93533903 
-0.39744157 -0.65295887 -0.6447364 
0.5209483 -0.80756456 -0.27650023 
0.89711916 -0.2772842 -0.3439342 
0.20796922 -0.9776615 -0.030445 
0.6069512 -0.59936607 -0.52189136 
0.77924263 -0.62656176 -0.014189989 
0.08415138 -0.8367246 0.5411197 
-0.4131528 -0.8550502 0.31335893 
-0.22141285 -0.32097867 -0.9208416 
0.08861958 -0.691922 -0.71651274 
-0.07829613 -0.8409116 -0.53547883 
0.007277553 0.36165953 -0.9322819 
-0.09820397 -0.7840408 -0.6128915 
-0.0567442 -0.41691914 -0.90717065 
0.40736735 -0.9110596 -0.06342195 
0.5617043 -0.7063342 -0.43079048 
0.22424765 -0.58088034 -0.7824904 
0.1142314 -0.3436196 -0.9321356 
0.037457716 -0.5905363 -0.8061413 
-0.18344235 -0.8696454 -0.45832923 
0.22621357 0.008573859 -0.97404003 
0.08166481 0.1752369 -0.98113346 
0.42863908 0.02013775 -0.9032514 
0.5631942 0.19004597 -0.80417335 
0.47808725 -0.24094635 -0.8446168 
0.87375814 -0.4374678 -0.21252947 
0.8260447 -0.4759146 0.3019198 
0.27687684 -0.878591 0.38912344 
0.72510064 -0.6844511 -0.075867146 
0.20080024 -0.935656 0.29021892 
-0.4479385 -0.8648864 -0.226545 
-0.22981244 -0.46123853 -0.85699785 
-0.7489104 -0.58757424 -0.30641428 
-0.7591422 -0.004647728 -0.65090823 
-0.45862532 -0.20271023 -0.86520034 
-0.18656269 0.36917898 -0.91044015 
0.25260168 -0.6131026 -0.74853027 
0.43601057 -0.6423473 -0.63030535 
0.36028627 -0.699805 -0.61681986 
0.22041059 -0.82878613 -0.51432765 
-0.42081577 -0.7833134 -0.45753056 
-0.33932248 -0.9404883 0.01849476 
-0.50821877 -0.6438133 -0.5720298 
-0.10910512 -0.2515187 -0.96168315 
-0.7140605 -0.23952259 -0.6578347 
-0.45612997 -0.6713664 -0.5841341 
-0.49267304 -0.12676208 -0.86093247 
-0.19545753 -0.18575715 -0.9629594 
0.19581479 -0.4106027 -0.8905404 
0.41177958 -0.13551478 -0.90115106 
0.66603035 -0.21287216 -0.71490496 
-0.2543708 -0.48531166 -0.8365215 
-0.2836782 -0.93300617 -0.2214186 
0.23314564 -0.86206937 0.44997746 
0.19647896 -0.9672249 0.16084796 
0.03299286 -0.95034564 0.30944273 
-0.2807976 -0.79861253 -0.53232586 
0.37029117 -0.78196794 -0.5014085 
-0.17253742 -0.69336617 -0.6996244 
0.14992373 -0.48596728 -0.86102194 
0.643567 0.05367319 -0.7635055 
0.2864209 -0.36806 -0.8845875 
0.21412699 -0.06333333 -0.9747505 
0.6971346 -0.5412581 -0.4701522 
0.47320706 -0.86060506 -0.18823943 
0.6324378 -0.68935204 -0.35329333 
0.39728644 -0.47728452 -0.7838132 
0.15779229 -0.8376866 -0.5228603 
0.679404 -0.57351905 -0.45769653 
0.89411473 -0.37027445 -0.251904 
0.43095604 -0.7944741 -0.4278874 
0.8763424 -0.48168516 -0.0018934595 
0.6193465 -0.7207614 0.3113083 
0.32255992 -0.9370446 -0.13380001 
0.5511219 -0.7660568 -0.33078945 
0.9464354 0.053381328 -0.3184502 
0.7143637 -0.6140497 -0.3356002 
0.58930904 -0.44208887 -0.6762191 
0.7436433 -0.25227493 -0.61915433 
0.471678 -0.38899934 -0.79132766 
-0.09687145 -0.32001325 -0.94244766 
-0.23344278 -0.899647 -0.3689713 
0.13724673 -0.5575769 -0.818701 
0.06314868 -0.4604139 -0.8854555 
-0.69500744 -0.29230046 -0.6569057 
-0.44425422 -0.35653505 -0.82190084 
-0.4482178 0.18063843 -0.8754831 
-0.94497937 -0.3270073 -0.008960199 
-0.303813 -0.8962448 0.32317623 
-0.05929607 -0.88845456 -0.4551181 
-0.89298666 -0.26805562 -0.36155388 
-0.5108243 0.5338445 -0.6738462 
-0.15435673 -0.32830846 -0.93187314 
0.14555596 0.55406594 -0.81964904 
0.32556036 0.36269832 -0.87318987 
0.063719876 -0.3382565 -0.9388942 
0.6583972 -0.44956836 -0.6036567 
0.41381544 -0.31464913 -0.85425574 
0.41612163 -0.7027564 -0.5770409 
-0.7642594 -0.60005903 -0.23629805 
-0.9788854 -0.08105094 -0.18765454 
-0.98547137 0.15586793 0.06746399 
-0.58455473 -0.060047876 -0.80912924 
-0.14595318 -0.7542761 -0.6401292 
0.24501105 -0.5925982 -0.76733106 
0.7513309 -0.54940045 -0.3655971 
0.23046285 -0.9588229 -0.16596863 
0.45516354 -0.6155787 -0.64334214 
0.46649483 -0.7200247 -0.5137578 
-0.05293238 -0.9673855 -0.24771671 
0.9107594 0.057157584 -0.40896264 
0.40476972 -0.6628246 -0.6299406 
0.28042576 -0.64201003 -0.7135717 
-0.5039578 -0.76663035 -0.39787516 
-0.080948554 -0.9744171 -0.20966308 
0.02313707 -0.9283689 -0.37093934 
-0.16556782 -0.24328586 -0.9557193 
-0.50653774 -0.20120122 -0.8384137 
-0.08859533 -0.6284448 -0.7727924 
-0.40768176 -0.6281949 -0.66269654 
0.072896 -0.12689543 -0.989234 
-0.7666283 -0.21201955 -0.60607654 
-0.032209247 -0.10880294 -0.9935414 
0.385562 -0.74433255 -0.54526234 
0.32927784 -0.7224689 -0.6079596 
0.09519673 -0.9277771 -0.36078694 
0.09866611 -0.26296058 -0.95974827 
0.37697324 -0.5395257 -0.75286335 
0.26973456 -0.9581445 0.09592965 
0.3898247 -0.8845014 -0.25630853 
-0.16787297 -0.9381401 0.30283967 
-0.26619312 -0.57861525 -0.77093816 
-0.328139 -0.86312634 -0.38384598 
-0.11761916 -0.8040113 -0.5828651 
-0.8768766 -0.2639264 -0.4017839 
-0.59119636 -0.39741695 -0.70181674 
-0.05037194 0.5114233 -0.8578514 
-0.31905878 0.105238825 -0.94187385 
0.5470587 -0.09349044 -0.83185726 
-0.3306033 0.057710603 -0.9420037 
-0.26376885 0.21200007 -0.9410006 
0.80485535 0.17051388 -0.5684478 
0.52475005 -0.19639166 -0.8282921 
0.6577422 0.38389996 -0.6480711 
0.6003433 -0.16656952 -0.78220373 
0.28319874 -0.19475187 -0.9390795 
0.4645444 -0.1495621 -0.87282854 
0.32597068 -0.25884333 -0.9092543 
-0.19795145 -0.6544248 -0.72975576 
0.8356271 -0.322665 -0.44453883 
0.564355 -0.6037653 -0.56300163 
0.58404887 -0.8072378 -0.08517048 
-0.014116987 -0.9677833 -0.2513886 
0.048696313 -0.97843564 0.20072977 
0.42740464 -0.6351687 -0.64333975 
0.32040104 -0.87765896 -0.3564518 
0.04447294 -0.22887966 -0.9724384 
0.48755842 -0.5596144 -0.67016315 
-0.44378603 -0.8735118 -0.20007822 
-0.4750993 -0.68226576 -0.55569255 
-0.55790055 0.020036729 -0.82966596 
-0.6055113 0.29908788 -0.7374975 
-0.19509113 -0.020501107 -0.9805709 
0.043825917 -0.21428692 -0.97578716 
-0.20397358 -0.848325 -0.48860967 
0.17543449 -0.98259264 -0.06110956 
-0.17441052 -0.8739418 -0.4536593 
0.52717084 -0.8484866 0.04649222 
-0.5249993 -0.39695 -0.75286555 
0.5256908 -0.831134 -0.18128893 
0.16289654 -0.8555545 -0.49141768 