# OOMMF: rectangular mesh v1.0
# Segment count: 1
# Begin: Segment
# Begin: Header
# Desc: Time (s) :  5.86000000000001e-07
# Title: m
# meshtype: rectangular
# meshunit: m
# xbase: 2e-09
# ybase: 2e-09
# zbase: 5e-10
# xstepsize: 4e-09
# ystepsize: 4e-09
# zstepsize: 1e-09
# xmin: 0
# ymin: 0
# zmin: 0
# xmax: 1.024e-06
# ymax: 1.024e-06
# zmax: 1e-09
# xnodes: 256
# ynodes: 256
# znodes: 1
# ValueRangeMinMag: 1e-08
# ValueRangeMaxMag: 1
# valueunit: 
# valuemultiplier: 1
# End: Header
# Begin: Data Text
0.47832566 -0.41271782 0.77515703 
0.51977855 -0.7296155 0.4444003 
0.027790457 -0.85602593 0.51618534 
-0.5480547 -0.5739864 0.6084206 
-0.84459335 -0.12919895 0.5195862 
-0.56297386 -0.7093518 -0.42412314 
-0.733505 -0.45199466 -0.5076134 
-0.3932475 -0.87908477 -0.2693818 
0.71416986 -0.18779013 -0.67431176 
0.5964609 -0.77240276 -0.21823941 
0.5283184 -0.37040487 -0.76398957 
0.8051457 0.4477632 -0.38890696 
0.7869957 -0.121486135 -0.60487926 
0.32391167 0.3588119 -0.87540585 
-0.0007345935 0.23443356 -0.9721319 
-0.1481481 0.6512093 -0.7442974 
-0.20378457 0.29084286 -0.9348168 
-0.67708534 0.23678628 -0.6967696 
0.76082134 0.013046372 -0.64883024 
0.6283952 0.03769521 -0.7769805 
0.348357 -0.31062844 -0.8843967 
0.813483 -0.44130084 -0.37881267 
0.42730615 -0.81324214 -0.3950275 
-0.055623632 -0.98569816 -0.15907656 
0.65200794 -0.75481504 -0.07169481 
0.19259383 -0.5060783 0.8407095 
0.46264374 0.121905684 0.8781229 
0.79729265 -0.07955969 0.5983265 
-0.12264102 -0.36823595 0.92160815 
0.15591414 -0.8062978 0.5705917 
0.043126497 -0.8274666 0.55985624 
-0.29900336 -0.17567745 0.9379417 
-0.3706793 -0.4550651 0.8096374 
-0.10008012 -0.96142054 0.25623164 
-0.52083516 -0.8463697 0.11130615 
-0.20713404 -0.522516 -0.82708687 
0.06834257 -0.32257617 -0.944073 
0.78206104 -0.29804522 -0.54731125 
0.2739244 -0.9246899 -0.26441294 
0.55136675 -0.7230918 -0.41609275 
0.38286325 -0.006438416 0.92378265 
0.9118989 -0.25000992 -0.32547718 
0.70121175 0.09961858 0.7059592 
0.22931299 -0.27993903 0.9322283 
-0.21465783 -0.69085705 0.6903902 
-0.45515817 -0.76671225 0.45275092 
-0.3672414 -0.62517935 0.6886833 
-0.3734878 -0.775249 0.50940734 
-0.74002445 -0.53778815 0.40391555 
-0.7773893 -0.628881 -0.013219461 
-0.7721893 -0.6290226 -0.08974564 
-0.536856 -0.61183405 0.58089995 
-0.48450083 -0.6779101 0.5528986 
-0.09889707 -0.98944247 0.10593897 
-0.4205758 -0.64001316 0.6430391 
-0.7246475 -0.4011239 -0.5603442 
-0.21152066 -0.5981807 -0.77294177 
0.4399305 -0.74450165 -0.5021737 
0.53289 -0.7029955 -0.47098368 
0.58068824 -0.68074256 -0.44653195 
0.34937844 -0.93607044 -0.04131519 
0.5014891 -0.7243642 0.4730806 
-0.4858522 -0.66461027 0.5676627 
-0.25596145 -0.96517074 0.054121528 
-0.29055133 -0.8610984 -0.41724023 
0.24418052 -0.6864315 -0.6849728 
0.6742928 -0.73697454 0.046880215 
0.4781017 -0.4482201 0.7553262 
0.53752977 -0.717911 0.44234106 
-0.23550853 -0.9658256 -0.10824316 
0.09736387 -0.98029315 -0.17188866 
-0.2990947 -0.9015538 -0.3126389 
-0.13081917 -0.9905108 -0.04212806 
0.26165345 -0.52385736 -0.8106239 
0.17305785 -0.110283986 -0.9787178 
0.67165554 -0.04090798 -0.7397334 
-0.087540045 -0.6423549 -0.7613915 
-0.11939422 -0.9808646 -0.15378456 
0.61602014 -0.6622221 -0.42659244 
0.8281478 -0.42346683 0.3672155 
0.37004614 -0.8581557 0.3558576 
0.2929055 -0.9268441 -0.23487514 
0.5154128 -0.5385339 0.6665815 
-0.10425569 -0.49473375 0.8627684 
-0.63044786 -0.42948753 0.64658797 
-0.99935764 -0.003548498 0.035662826 
-0.27417308 -0.35594347 0.89338315 
-0.88414246 -0.4483126 0.13156043 
-0.38909674 -0.43451384 -0.8122818 
-0.18322077 -0.635384 -0.7501449 
0.88844454 -0.44690454 -0.10460794 
0.36699697 -0.89915603 0.23839416 
0.7973146 -0.5873785 0.13883814 
0.9506847 0.03507703 0.30816892 
-0.21576974 -0.8211229 -0.52839446 
0.17163707 -0.59059644 -0.7885027 
0.20364913 -0.8672338 -0.45434862 
0.19084497 -0.97103393 0.14377564 
0.09665849 -0.6437729 0.7590874 
-0.5419223 -0.05724517 0.8384768 
-0.6152089 -0.54036605 0.57404053 
-0.52477866 -0.7022133 -0.48114845 
-0.46662247 -0.8314944 -0.3014644 
-0.38831562 -0.2692399 -0.8813177 
-0.61599123 0.058717523 -0.78556156 
-0.08353193 -0.4892617 -0.86812764 
0.34689498 -0.38004684 -0.85745454 
0.12269698 -0.9426439 -0.31043208 
0.31918272 -0.9137855 -0.2512343 
0.62778753 -0.6783272 -0.3817788 
0.74159133 0.34322324 -0.5764027 
0.9871953 0.14976835 -0.054907713 
0.6316257 0.13323312 0.76373947 
0.49931663 0.69165796 0.52181625 
0.6663717 -0.5384382 0.5157839 
0.69037616 -0.5094175 -0.51368725 
-0.14576524 -0.9859504 -0.081574306 
0.39355358 -0.47949085 -0.78434956 
-0.23501717 -0.7133785 -0.6601955 
0.26130307 -0.32356077 -0.9094115 
-0.45988902 0.48016024 -0.7469593 
0.039510075 -0.37369126 -0.9267113 
0.28573892 -0.6945226 -0.6602966 
0.39088354 -0.14204818 -0.9094133 
0.71075976 -0.5872217 -0.3872873 
0.95305234 -0.29401746 0.07242232 
0.9560424 0.2391778 -0.16963787 
0.70978934 -0.56990474 -0.41401425 
0.75857824 -0.5249932 -0.38592902 
0.41530964 -0.7739339 0.4780631 
0.20390444 -0.7070534 0.67712516 
0.033882257 -0.99941957 -0.0035585286 
-0.13854137 -0.6982856 -0.7022845 
0.016311562 -0.55338323 -0.832767 
-0.47658405 -0.7552537 0.44995514 
-0.6146593 -0.7785463 0.12672646 
0.28520933 -0.93913496 -0.19152364 
-0.19495915 -0.1234628 -0.9730097 
0.6500273 -0.7489971 0.12832795 
0.6730149 -0.1647874 0.7210382 
0.89163 -0.4436028 0.090624 
0.68431205 0.4605016 0.5653808 
-0.6474481 0.113183394 0.7536581 
-0.73131025 -0.2862816 -0.6190544 
-0.24515814 -0.6209177 -0.74455273 
0.45350134 -0.6129572 -0.64700854 
-0.18668397 -0.7996141 -0.57075953 
0.6523462 -0.351106 -0.6716912 
0.6085877 -0.40743187 -0.68089676 
0.08546143 -0.82632804 -0.55666715 
-0.50053024 -0.53585565 -0.6799473 
-0.1654979 -0.27553153 -0.9469387 
-0.09125857 0.22155133 -0.9708691 
0.972538 0.056224227 -0.22585109 
0.3958821 -0.5770892 -0.71431464 
0.80720675 -0.2606683 -0.5295934 
0.72313017 -0.20288078 -0.6602441 
0.5406494 -0.40159172 -0.73920393 
0.050056357 -0.39357287 -0.91792965 
0.3167549 -0.38907453 -0.8650361 
0.19318879 -0.6339304 -0.7488728 
-0.236485 -0.6544291 -0.7181904 
-0.15778406 -0.8584886 -0.4879565 
-0.06286994 -0.4272493 -0.9019453 
-0.360765 -0.90249515 -0.23526855 
-0.1516136 -0.8196895 -0.55237895 
-0.52496564 -0.80826926 -0.26666808 
0.21723577 -0.5754406 -0.78846484 
-0.43865076 -0.61462873 -0.6556043 
-0.2770958 0.033678968 -0.96025187 
-0.13610147 -0.57813793 -0.8045079 
-0.37985775 -0.8813247 -0.28102472 
-0.20007701 -0.6095476 -0.7670861 
0.2131067 0.04954249 -0.9757721 
0.34467575 -0.85658765 -0.38400045 
0.50609714 -0.7923112 -0.3407473 
0.82822746 -0.55437803 0.08188043 
0.24659534 -0.48659313 0.8381038 
-0.26803982 -0.9222465 0.27859682 
0.50103736 -0.5881179 -0.63488495 
-0.44908577 -0.8788321 0.16117112 
0.004641891 -0.573387 0.81927145 
0.8584439 -0.3434354 0.38095436 
0.60292953 -0.18848081 0.77521026 
0.7869001 -0.25328025 0.56270534 
0.5251593 -0.82633513 -0.20341562 
0.43564022 -0.6262861 0.6465163 
0.04165004 -0.72877485 -0.68348557 
0.7481218 -0.63464105 0.19376391 
0.21231335 -0.7432464 0.6344352 
0.29907125 -0.82325387 0.48250335 
0.10589428 -0.92423517 0.36684582 
-0.5105626 -0.85967743 -0.016747523 
0.16227505 -0.58257645 -0.7964117 
0.2890534 -0.95634836 -0.04296664 
0.55072457 -0.25986302 0.7932048 
0.3298918 -0.3410405 0.8802629 
0.37801844 0.33240747 0.86406446 
0.7992174 0.07642811 0.5961629 
0.33147866 -0.56787795 0.75341666 
-0.7509772 -0.5778754 0.31952074 
-0.63934904 -0.7509125 0.16541855 
-0.51821136 -0.49211216 -0.6994875 
-0.057109296 -0.9567205 -0.28534982 
0.37457496 -0.927056 -0.016148496 
0.9736283 3.658054e-05 0.22814026 
0.62922823 0.29013196 -0.7210377 
0.48903134 -0.45945552 -0.7414506 
0.5938225 -0.39313975 -0.7020086 
0.14697407 -0.97494966 -0.16694893 
-0.57372767 -0.5447089 -0.6116608 
-0.39620072 -0.21185452 -0.8933883 
-0.44591147 -0.13932727 -0.88416684 
-0.7293971 -0.078852326 -0.67953086 
0.17231932 0.26051483 -0.9499675 
0.36093965 0.34193403 -0.86764264 
0.4951539 -0.058947027 -0.8668032 
0.72770244 -0.108552516 -0.67724854 
0.27671784 -0.38413247 -0.88083464 
0.59070426 -0.30854273 -0.7455669 
0.34219617 -0.8735594 -0.34611523 
-0.16271493 -0.9864469 -0.021127367 
-0.24302281 -0.9629298 0.11707394 
0.25087667 -0.9671727 0.04047062 
0.08877219 -0.9748706 -0.20432043 
0.10678312 -0.9324506 0.34515673 
-0.49406365 -0.835233 0.24142718 
-0.77403945 -0.5993639 0.20402402 
-0.9315801 -0.2616663 0.25236765 
-0.84845054 -0.1854505 -0.49572143 
-0.6138468 -0.56492436 -0.5514097 
0.07700147 -0.44422653 -0.8925994 
0.41502059 -0.15392597 -0.8966965 
0.42530346 -0.900643 -0.08921469 
-0.041030537 -0.8598475 0.5088997 
0.051120706 -0.9783036 0.20077056 
-0.70352453 -0.6966992 0.14022663 
-0.56500274 0.13619564 -0.81377065 
-0.8350158 -0.51255697 -0.20008507 
-0.6911809 -0.61434764 -0.3805864 
-0.4175573 -0.8807105 -0.2235956 
-0.68215954 -0.11385979 -0.72228414 
-0.006737747 -0.79416585 -0.6076638 
0.28967518 -0.87899 -0.37876758 
0.24529889 -0.3232088 -0.91398275 
-0.059910126 -0.90120083 -0.4292409 
-0.24419804 -0.9497713 -0.19570851 
-0.45806652 -0.6984462 -0.54986185 
-0.22902922 -0.85453403 -0.466173 
0.35111764 -0.92837524 -0.121803045 
-0.12880984 -0.7497624 -0.6490488 
-0.76552546 0.26332185 -0.5870539 
-0.59672993 -0.19231158 -0.7790569 
-0.06735391 -0.27607024 -0.95877457 
-0.61364 -0.77680373 0.14149898 
-0.91125125 -0.20923772 0.3547406 
-0.34437394 -0.62336296 0.70201516 
0.115992956 -0.9847171 0.12991516 
-0.6970994 -0.5860193 0.4130786 
-0.8294706 -0.34011135 0.44306067 
-0.80500495 -0.56947416 0.166332 
0.13333407 -0.44210207 -0.8869993 
-0.38464418 -0.75318265 -0.5336337 
0.32781556 -0.80851525 -0.48871252 
0.7726127 -0.44219235 -0.45556098 
0.48084626 -0.24196082 -0.8427585 
0.91030955 0.2269796 -0.34614554 
0.9912767 0.014081461 -0.13104306 
0.4935611 -0.36646187 -0.7887352 
0.2512175 0.53134686 -0.80904907 
0.17474474 -0.33924904 -0.9243238 
0.0748756 0.54072225 -0.83786225 
-0.060400616 0.58799404 -0.806607 
-0.0292999 0.09674593 -0.9948778 
0.60075843 -0.4287228 -0.674749 
0.03767241 -0.91956705 -0.39112312 
0.28320453 -0.56618243 -0.7741013 
0.26309565 -0.79004556 -0.55372274 
0.53978944 -0.58725387 -0.60312545 
0.057976883 -0.8162041 -0.5748476 
0.24558564 -0.8514648 -0.46335238 
0.38794383 -0.9194075 0.06472679 
0.60703456 -0.44953105 0.6553098 
0.35563558 -0.6115356 0.70678675 
-0.23151879 -0.6625385 0.71234953 
0.11640039 -0.9630747 0.2427719 
0.3861809 -0.82330304 0.41597658 
-0.087463416 -0.5780586 0.8112943 
-0.06673146 -0.8545182 0.5151171 
-0.5149743 -0.8449028 -0.14470981 
-0.41201586 -0.8434952 -0.34461424 
-0.2930496 -0.3526183 -0.888697 
-0.16171823 -0.07603282 -0.98390365 
-0.14036052 -0.5079708 -0.84986156 
0.14033404 -0.5419172 -0.8286327 
0.039086178 -0.6728098 -0.7387823 
0.75565594 -0.31285745 -0.5754168 
0.43674618 -0.899565 0.0059636864 
0.039984882 -0.7466298 0.6640371 
-0.16522248 -0.8707255 0.4631831 
-0.32277557 -0.7997837 0.50612444 
-0.21450797 -0.97336906 -0.08086511 
-0.338194 -0.9378078 -0.07836793 
-0.62478346 -0.39143068 -0.67559433 
-0.39599225 -0.4929113 -0.77474415 
-0.054019995 -0.6374093 -0.76862943 
0.0033272393 -0.58448434 -0.81139827 
-0.5977908 -0.5968784 0.5351471 
-0.73890424 -0.671556 -0.05507395 
-0.59090894 -0.80647826 0.020485021 
-0.9226237 0.2072122 -0.32531315 
-0.6449626 -0.075481504 -0.7604774 
-0.34670696 -0.4889631 -0.80044335 
0.5532585 -0.7151558 -0.42715025 
0.33053538 -0.9344028 0.13280706 
0.30435264 -0.91057307 -0.2796896 
0.28399202 -0.9191795 -0.27286917 
0.8243539 -0.52926564 -0.20079492 
0.22561169 -0.91217005 -0.34211862 
0.5969414 -0.55334747 -0.5809197 
0.24169967 -0.84589565 -0.4754388 
0.25258753 -0.17747967 -0.95115745 
0.7915849 -0.42804006 -0.43609068 
0.4531971 -0.88915944 -0.06330888 
-0.2447166 -0.87433517 -0.41910836 
0.44353375 -0.8443569 -0.30056486 
-0.21461958 -0.5511736 -0.8063164 
-0.06060456 -0.95713574 -0.28322855 
-0.7761376 -0.48101327 -0.40772158 
-0.77649814 -0.21324469 -0.5929397 
-0.14088164 -0.28344238 -0.9485847 
0.6369563 -0.23794872 -0.7332579 
0.86435723 -0.49258614 -0.101219706 
0.7277604 -0.6703646 0.14483175 
0.30505005 -0.89137083 -0.33526486 
0.8908991 -0.45023122 -0.05992358 
0.6589675 -0.7519052 -0.02001366 
0.46715268 -0.8167028 -0.33876985 
-0.032234035 -0.88915545 0.4564686 
-0.15173669 -0.43092752 0.8895378 
-0.3622036 -0.7784006 0.5127388 
-0.8250565 -0.19861409 0.5289938 
-0.94319075 -0.100509085 0.31668478 
-0.83992183 -0.53670466 0.080495335 
-0.8729781 -0.48636374 -0.036873877 
-0.18189712 -0.8857174 -0.4271043 
-0.0728343 -0.9607749 -0.26759478 
0.21131021 -0.89288473 -0.3976242 
0.7787861 -0.36834982 0.5077507 
0.65967387 -0.6246865 0.41784838 
0.12715895 -0.96653396 -0.22280681 
0.32587427 -0.8323333 -0.44836077 
0.34128872 -0.5508654 -0.7616229 
0.58571786 -0.68906814 0.42675492 
0.5230789 -0.42284486 0.73999375 
-0.50189114 -0.77500796 0.38401586 
-0.10584823 -0.9435215 0.31394827 
-0.34410906 -0.9241333 -0.16603197 
-0.7232117 -0.65480494 0.21953422 
-0.17263374 -0.36741766 -0.9138939 
-0.25847447 -0.64952004 -0.7150628 
-0.034499187 -0.55488473 -0.83121175 
-0.06424994 -0.45348924 -0.8889429 
0.057871148 -0.24849017 -0.9669042 
0.14798039 -0.9864752 0.07048726 
-0.41886592 -0.6876941 -0.5929826 
0.21206261 -0.047248166 -0.97611326 
0.93000996 -0.14912523 -0.33592153 
0.49280676 0.35117003 0.7961289 
0.43082938 0.881722 0.19223048 
-0.36775053 0.5059259 0.7802555 
-0.7331996 -0.39840344 -0.5510835 
-0.8863726 -0.41195658 -0.21127112 
-0.4717108 0.3416166 -0.8128881 
-0.45502886 0.23015097 -0.86022055 
0.2645535 -0.10547773 -0.9585854 
0.16449143 0.09044694 -0.982223 
-0.04013824 -0.48572177 -0.87319154 
0.01661156 0.3689406 -0.9293046 
0.604577 0.04529278 -0.79525805 
0.38943505 -0.091606356 -0.9164872 
0.77711207 -0.6292917 0.00942661 
0.9582955 -0.26783413 0.09967299 
0.86443955 0.48038232 0.14824668 
0.9188637 0.3859486 -0.08205694 
0.8318585 -0.2406911 -0.5000792 
0.5647921 -0.824766 -0.027766114 
0.50540507 -0.6397293 -0.5790615 
-0.3734682 -0.76565915 -0.5237248 
-0.13156396 -0.38829175 -0.9120968 
-0.67706925 -0.5782048 -0.4552543 
-0.3463525 -0.6888014 -0.63686156 
-0.26516524 -0.4856091 -0.83298934 
0.79105127 0.005484919 -0.6117253 
0.8247804 -0.4844145 -0.2916844 
0.35584024 -0.6716891 -0.649778 
0.946529 0.053523965 0.31814808 
0.68777966 -0.49131837 0.53438324 
0.7430767 -0.6613118 -0.10248834 
-0.25277272 -0.85027516 -0.46166903 
-0.14147237 -0.94701064 -0.288369 
-0.63168424 -0.51242673 -0.58171636 
-0.46867123 -0.6451524 -0.60342836 
0.104033105 -0.44491166 -0.88951147 
-0.013338708 -0.3927476 -0.9195496 
0.1356329 -0.67559195 -0.7246926 
0.33985296 -0.289972 -0.8946598 
-0.19908403 -0.33079416 -0.9224646 
-0.211543 -0.25638133 -0.9431428 
0.27792317 0.1413385 -0.9501485 
0.5939909 0.1876951 -0.7822695 
0.7723226 0.1363265 -0.6204296 
0.23334558 -0.4563953 -0.85863453 
-0.035089035 -0.89299065 -0.4487054 
-0.0889669 -0.28853434 -0.95332724 
0.45547014 -0.27417904 -0.8469786 
-0.034615666 -0.6396478 -0.76788837 
-0.6153374 -0.4667077 -0.63525105 
0.35501045 -0.24061458 -0.90336716 
0.17785949 -0.9839542 -0.014150521 
-0.10489085 -0.9637425 -0.24535382 
-0.56442726 -0.56540114 -0.6014511 
-0.4024282 -0.8119271 -0.42287832 
-0.7573689 -0.31359452 -0.57275724 
-0.5092073 -0.30035907 -0.806531 
0.32280263 0.04032428 -0.945607 
-0.6409547 0.32487458 -0.69543785 
-0.20743023 -0.9290765 -0.30625063 
0.063802645 0.07162012 -0.99538934 
0.06102183 0.11862999 -0.9910617 
0.6709916 0.28009877 -0.68652385 
0.67820764 -0.71983916 -0.14787163 
0.17103437 -0.8951923 0.4115555 
0.38771027 -0.6436312 -0.6598634 
0.6924993 -0.37782496 -0.6145675 
0.72190344 -0.31378895 -0.61675924 
-0.12538353 -0.91844726 -0.37514478 
0.15233897 -0.8777444 0.4542661 
0.5593079 -0.6123764 0.5587218 
0.48204464 -0.6127856 0.6262004 
0.88546133 -0.4644269 0.016310006 
0.49104145 -0.82118994 -0.2907329 
0.21511073 -0.9761273 -0.03004771 
0.17220782 -0.21328439 -0.9616935 
0.8148809 -0.5279202 -0.23931052 
0.33660504 -0.9209658 0.19626282 
0.20301078 -0.76364535 0.6128886 
0.14997432 -0.8562351 0.4943373 
-0.058393244 -0.5449547 -0.8364297 
0.5147136 -0.7277068 -0.4533352 
-0.15213735 -0.8805441 -0.44888338 
0.66839075 -0.5115684 -0.53995514 
0.65217227 -0.6874218 0.31956655 
0.52229285 -0.8447653 -0.11654166 
0.30797625 -0.6573659 0.68776506 
0.022823762 -0.8994472 0.43643314 
-0.5661394 -0.76029646 0.31848928 
-0.9180472 -0.36704072 0.14990173 
-0.49971446 -0.4029563 -0.76675415 
-0.404851 -0.13612053 -0.9041941 
0.20086846 -0.45741263 -0.86627114 
0.40608805 0.13784647 -0.9033775 
-0.027546449 -0.04952275 -0.9983931 
0.7356783 -0.21919724 -0.6408822 
-0.45777026 -0.18082711 -0.8704872 
0.68767494 -0.40649727 -0.6015507 
-0.023517681 -0.6018623 -0.79825366 
-0.24879527 -0.023809098 -0.96826345 
-0.06764918 -0.33156735 -0.9410031 
-0.51655084 0.21087845 -0.829883 
-0.3781649 -0.06231104 -0.9236389 
-0.10058195 -0.21516027 -0.97138536 
0.38190722 0.24245483 -0.89183104 
0.6772941 0.07638484 -0.7317364 
-0.305542 -0.018994387 -0.95198923 
0.73318577 0.43113554 -0.5258905 
0.3695687 -0.71156996 -0.59756786 
0.41862068 -0.90013653 0.120461605 
0.049042474 -0.8381862 -0.5431747 
-0.19346999 -0.74592024 -0.6373165 
-0.3472816 -0.93407255 0.08309011 
-0.09985166 -0.7132349 0.69377637 
-0.48515344 -0.59078664 0.6446684 
-0.42908594 -0.57603145 0.69575363 
-0.6408175 -0.5950006 0.48510543 
-0.7519402 -0.57632667 -0.3200524 
-0.87829435 -0.46599555 -0.106991224 
-0.51746196 -0.6321664 -0.5767138 
-0.22862695 -0.72647256 -0.64804894 
0.20570995 -0.97454524 -0.08913532 
0.25155395 -0.8798826 0.40314686 
0.054809414 -0.9927437 -0.10703296 
0.18813406 -0.9736844 -0.12862487 
-0.8190655 -0.14392553 -0.5553533 
-0.46394184 -0.1781355 -0.86777055 
-0.23605241 -0.06899854 -0.9692877 
-0.6880858 -0.5579317 -0.46395078 
-0.46439898 -0.4518303 -0.7616975 
0.058926053 -0.9838927 0.16876884 
0.20838664 -0.95206773 -0.22392455 
0.3871286 -0.6461667 -0.6577234 
-0.40765718 -0.7448966 -0.5281522 
-0.3921731 -0.89226085 -0.22376534 
-0.5860629 -0.79425436 -0.16028225 
-0.49822512 -0.5785176 -0.64582443 
-0.36840647 -0.7481568 -0.55184966 
-0.6113056 -0.7892892 -0.057689447 
-0.5374513 -0.75903636 -0.3674372 
-0.31007314 -0.6144112 -0.7255024 
0.7314621 -0.3470018 -0.5869863 
0.32586494 -0.9371981 -0.12438589 
-0.1848403 -0.509332 -0.84048504 
-0.25160056 -0.8268921 -0.5029382 
0.41572478 -0.84545165 -0.33523813 
0.34532386 -0.8710809 -0.34924147 
-0.005656771 -0.82942045 -0.5585962 
0.36857358 -0.5150071 -0.7739001 
0.26691383 -0.741714 -0.615319 
-0.36755216 -0.929475 0.03132988 
0.7651069 -0.5686785 -0.3020201 
0.47548318 -0.7393892 -0.47667554 
0.7248121 -0.33182186 -0.6037729 
0.82661754 -0.27757007 -0.48954907 
0.8916685 0.3478482 -0.28970498 
0.24785206 -0.3086053 -0.91833115 
0.50148016 0.71007144 -0.4942835 
-0.86155134 0.3623764 -0.3555456 
-0.86702824 -0.21819274 -0.44794434 
-0.12762801 0.18046546 -0.97526586 
0.25893494 -0.4149871 -0.8722033 
0.43831763 -0.25428566 -0.8621 
-0.009140198 -0.20692846 -0.9783134 
-0.030424 -0.31384656 -0.94898623 
-0.8518398 -0.15604371 -0.5000195 
0.014930919 -0.8775066 -0.4793322 
-0.083842896 -0.85947585 -0.5042536 
-0.71410656 -0.6823699 0.15627946 
-0.67028975 -0.7275867 -0.14604571 
-0.024801591 -0.87863594 0.47684777 
0.44772848 -0.7522271 0.4834188 
-0.40138167 -0.91138864 -0.09090493 
-0.7195711 -0.639122 -0.2715522 
-0.23865816 -0.8515211 0.46685573 
-0.2309608 -0.96687114 -0.10870832 
-0.43880337 -0.72615236 -0.5292963 
0.24139546 -0.094544604 -0.9658103 
0.06382197 -0.38908836 -0.91898704 
0.02646586 -0.6354925 -0.7716534 
0.3923139 -0.6780695 -0.6215398 
-0.007979765 -0.15290889 -0.9882081 
0.14909028 0.27250245 -0.95053387 
0.5095006 0.5197717 -0.68574524 
0.23669188 0.010406299 -0.97152907 
0.046295125 -0.044720218 -0.99792635 
-0.16067135 -0.7773923 -0.6081496 
0.37904403 -0.67994565 0.62769383 
-0.29221207 -0.94914913 0.11716698 
0.3324942 -0.94309163 0.0050997054 
-0.4545456 -0.56032616 0.69240373 
-0.76420856 -0.6435993 -0.042017672 
-0.6661833 -0.52648056 -0.5282216 
-0.65335715 -0.1457143 -0.74289423 
-0.50930166 -0.76267207 -0.39867693 
-0.77719486 -0.43046302 -0.45898777 
-0.94772923 0.09288206 -0.30525774 
-0.94421667 -0.20096768 -0.2608965 
-0.91457677 0.34160888 -0.21645513 
-0.861226 -0.47446302 -0.1821393 
-0.6405681 0.4719525 -0.60575026 
-0.28909156 -0.23509498 -0.9279852 
0.78394413 -0.547029 -0.2935828 
0.8069077 -0.58674586 0.068037845 
0.9066667 -0.40820262 -0.10642443 
0.3291645 -0.43258196 -0.8393591 
0.41861543 -0.39781582 -0.8163969 
0.23371606 -0.5876301 -0.7746405 
0.36707482 -0.84658986 -0.38541108 
0.6940909 -0.42104882 -0.5839141 
0.6098151 -0.6027228 -0.5146366 
0.58913606 -0.80289555 0.09098038 
-0.0036807884 -0.9675045 -0.25282726 
0.15379073 -0.9813666 -0.11518739 
0.026391733 -0.98269683 -0.18333125 
-0.6945152 -0.62021637 0.36466464 
-0.3312245 -0.09557381 -0.9386992 
-0.73395175 -0.4346423 -0.52192044 
-0.13522446 -0.015676463 -0.99069107 
0.5245561 -0.84603685 0.0951983 
0.5335142 -0.7922939 -0.29602873 
0.16153388 -0.74257135 -0.6499959 
0.38926363 -0.45723116 -0.7996334 
0.66086125 -0.630642 -0.40688232 
0.41649556 -0.8924195 -0.17354827 
0.12822096 -0.96407044 -0.2326534 
0.86779284 -0.4709077 0.15868703 
0.42488432 -0.7497042 0.50736284 
-0.33124182 -0.9432385 0.02408698 
-0.37803206 -0.9256452 0.016521215 
-0.8247281 -0.5580747 0.091521755 
0.0042634793 -0.92822945 0.37198368 
-0.3599419 -0.5371532 -0.7628292 
-0.4643877 -0.2705505 -0.84329504 
-0.22951247 -0.69915825 -0.67712766 
0.20689185 -0.97038066 -0.12472842 
0.70087224 -0.7119879 -0.043027457 
0.4921559 -0.7772888 0.39192453 
0.5690129 -0.81957924 -0.067189485 
0.2611396 -0.91224045 -0.31563208 
0.3829032 -0.92368054 0.014121048 
0.029323256 -0.99630326 0.08074605 
-0.015450254 -0.989779 -0.14177068 
-0.45816123 -0.8720243 -0.17222667 
0.21335337 -0.927281 -0.30762032 
-0.67852837 -0.59823895 0.426274 
0.23378187 -0.9571044 0.17116433 
-0.6232582 -0.6797294 -0.38667458 
-0.52927953 0.025120953 -0.84807557 
-0.09299663 -0.5156874 -0.85171485 
0.08218778 0.029435415 -0.9961821 
0.5251879 0.5670986 -0.6344895 
0.331879 -0.41956607 -0.8448791 
0.7553152 -0.39495882 -0.5229786 
0.8191199 -0.56421155 -0.10347938 
0.7205941 -0.25626653 0.6442606 
0.87163705 -0.18569298 0.4536156 
0.5907246 0.261447 0.76334137 
-0.7755866 0.22544362 0.5896106 
-0.9987016 -0.040653877 0.030699393 
-0.955866 0.15385829 0.2502957 
-0.6372447 0.7525513 0.1660892 
-0.66721666 0.6265451 -0.40281925 
-0.4476771 0.78180975 -0.43400323 
-0.6795694 -0.37562105 -0.6301542 
-0.074033394 -0.30904537 -0.94816136 
0.07607509 0.00590686 -0.9970847 
0.87657833 -0.22893837 -0.42331755 
0.22240499 -0.1918114 -0.95589983 
0.39312327 -0.44865477 -0.8025977 
0.43350518 -0.09395983 -0.89623934 
0.93915945 -0.24456729 -0.2411773 
0.74678594 -0.39756998 -0.53315 
0.5277601 -0.31968698 -0.7869369 
0.075680785 -0.6291092 -0.77362394 
0.3148218 -0.020725004 -0.94892454 
-0.14281724 -0.22328234 -0.96423453 
0.032144602 -0.35262415 -0.9352128 
0.3094727 -0.86056274 -0.40454704 
0.64899147 -0.27119246 -0.71081984 
0.5944428 -0.62002623 -0.51205987 
0.88548315 -0.44503683 0.13364865 
0.68709725 -0.68949455 -0.22911741 
0.60578984 -0.60148424 -0.5208027 
0.953568 0.0031641982 -0.30116138 
0.63147473 -0.69461596 0.34459883 
0.14218692 -0.86553854 0.4802355 
-0.28718776 -0.8620803 -0.41754156 
-0.54052037 -0.4262048 -0.7253877 
-0.17109485 -0.85411775 -0.49113095 
-0.22376083 -0.30200386 -0.9266741 
0.28323013 -0.2798723 -0.917307 
0.6578378 0.24144162 -0.7134111 
0.008009239 -0.049420103 -0.998746 
-0.2957087 0.46833277 -0.8325988 
-0.37163723 -0.675131 -0.6372472 
-0.59319717 -0.6860567 -0.4212403 
-0.49066296 -0.5441539 -0.6805486 
-0.29105604 0.41485742 -0.8620787 
0.14528738 0.6990673 -0.7001404 
-0.3055176 0.6600385 -0.68630046 
-0.23199151 0.028060198 -0.97231305 
-0.6416048 -0.12764084 -0.75634056 
-0.38209003 0.14837533 -0.9121359 
-0.11855965 -0.56586796 -0.8159272 
-0.21104582 0.25939643 -0.9424294 
-0.062354703 0.7396071 -0.67014426 
-0.004013444 -0.09254339 -0.99570054 
-0.43162587 -0.2864359 -0.85536754 
-0.52027583 -0.33675262 -0.7847998 
-0.78137404 -0.50214314 -0.37054965 
-0.40527478 -0.21981262 -0.88737524 
0.18261898 0.24533218 -0.9520832 
-0.37836272 -0.36441976 -0.8509055 
-0.17969492 -0.5064843 -0.843317 
-0.63706434 -0.21591541 -0.73995245 
-0.041542023 -0.52485585 -0.8501768 
0.00806911 0.22056097 -0.9753399 
0.2343438 0.3507877 -0.9066593 
0.38423115 -0.3114845 -0.8691052 
-0.04337505 -0.17529115 -0.98356074 
-0.15354116 0.12801433 -0.97981507 
0.37609068 -0.070929445 -0.92386407 
0.69290113 -0.32539877 -0.64343125 
0.3269161 -0.9405723 0.09192233 
0.19711919 -0.97454727 0.106779195 
-0.27160746 -0.5608328 -0.78211004 
-0.11409026 -0.98991364 0.08399122 
0.60005945 -0.71525425 -0.35824588 
-0.107255325 -0.9457104 -0.30680305 
0.40817508 -0.8698742 -0.27696943 
0.7580607 -0.57600033 -0.3058883 
0.43287557 -0.8873999 -0.15855661 
0.09760017 -0.99521387 -0.0048728636 
0.07310724 -0.99639195 0.043111145 
0.48540467 -0.86128384 0.15024108 
0.25543016 -0.9645989 0.06560807 
-0.100733586 -0.89002115 -0.44465178 
0.47422013 -0.85142964 -0.2240154 
0.6557218 -0.7001913 -0.28242007 
0.43011072 -0.83530617 0.34244496 
0.6139905 -0.6975137 -0.369446 
0.42907697 -0.90246266 -0.038132984 
0.48015338 -0.8730444 0.085124776 
-0.22293374 -0.90109795 0.37191826 
-0.91087526 -0.32722735 0.25145313 
-0.7930419 -0.23771675 -0.56087023 
-0.20482521 -0.8153415 -0.5415395 
0.19524178 -0.36098897 -0.9119033 
0.13198791 -0.35556576 -0.9252849 
-0.47296697 -0.6181086 -0.62788856 
-0.38627195 -0.7168032 -0.58050597 
-0.28019086 -0.49492347 -0.82252294 
0.19928001 0.06117034 -0.9780315 
-0.26820537 -0.17922139 -0.946544 
-0.53663296 -0.052059866 -0.8422083 
-0.93917173 -0.06672539 -0.33690393 
-0.5686572 0.37092108 -0.734198 
-0.017064339 0.28570852 -0.9581647 
-0.44173792 0.4600933 -0.77018297 
-0.019551689 0.10520367 -0.9942585 
0.7756084 -0.09398153 -0.62417865 
0.6662543 0.033718716 -0.744962 
0.7363762 0.22710773 -0.6373164 
0.58146137 -0.5499946 -0.599507 
0.50380945 -0.7523334 -0.42446488 
0.3059044 -0.8715464 -0.3831835 
0.30278555 -0.78447604 -0.54121923 
0.11804749 -0.986122 -0.11674008 
0.010350629 -0.8334056 0.5525649 
-0.7939794 -0.35683873 0.49220222 
-0.8855317 -0.4645781 -0.0009200514 
-0.91407794 -0.28050673 -0.29287836 
-0.62687135 -0.7456076 -0.22605692 
-0.31052694 -0.8156794 -0.4880985 
0.07874319 -0.2024092 -0.9761301 
0.41247255 -0.449499 -0.792349 
0.4868187 -0.76493037 -0.42176917 
0.35798368 -0.93160427 0.062938415 
0.19235486 -0.97316146 0.12631834 
-0.30811408 -0.9370877 -0.16411112 
0.055221975 0.6331258 -0.7720766 
-0.19072783 0.933973 -0.30218786 
0.098680206 0.89977 -0.4250603 
-0.6254012 0.7028119 -0.3390117 
-0.114572085 0.01894665 -0.99323434 
-0.3016108 -0.827328 -0.47387683 
0.34770203 -0.5492582 -0.7598808 
0.5353212 -0.64340943 -0.5472255 
-0.2104473 -0.65862143 -0.72244716 
-0.672976 -0.7345087 0.08717948 
0.131632 -0.99064326 -0.0360396 
-0.72011536 -0.6084476 -0.3335048 
-0.4741718 -0.57497007 -0.6667613 
-0.62743866 -0.0521572 -0.7769173 
-0.20000984 -0.31798646 -0.9267582 
-0.19504543 0.033176802 -0.98023295 
0.67234856 -0.2651059 -0.69113404 
0.4710329 -0.7227485 -0.5057298 
0.63051564 -0.5345789 -0.5627393 
-0.6453113 -0.625787 -0.43813685 
-0.19362761 -0.8767802 -0.44018722 
-0.1277891 -0.66854835 -0.73260707 
0.009815581 -0.861215 -0.5081461 
0.44811633 -0.5921797 -0.66971266 
0.099507034 -0.76543206 -0.6357768 
-0.1275149 -0.5115354 -0.8497479 
0.9052956 -0.31843045 -0.281144 
0.9392783 -0.24074396 0.24453758 
0.8719807 0.35276204 -0.33942413 
0.97209084 0.22703288 0.059123617 
0.5076226 0.8565721 0.09275536 
0.4384758 -0.17737758 -0.8810654 
0.44306022 0.5576682 -0.70192873 
-0.04647875 0.99141914 0.12217973 
-0.5577002 0.43774047 -0.70523316 
-0.28853253 -0.11380639 -0.9506825 
-0.21791609 0.04692605 -0.97483873 
0.3788775 0.28295675 -0.88112855 
0.2329286 0.10644876 -0.96665037 
-0.060328625 -0.5642198 -0.8234176 
0.25760406 -0.30015105 -0.9184496 
0.57576823 -0.49146318 -0.6534179 
0.15618327 -0.90096986 -0.4047965 
-0.3834609 -0.8587199 -0.33993834 
-0.17377937 -0.8667156 -0.4675519 
-0.12127454 -0.8650454 -0.48681507 
0.41862094 -0.9035428 0.091470875 
-0.26787412 -0.96015716 0.079634495 
-0.5216407 -0.79703003 -0.3043586 
-0.97953624 0.038728677 -0.19750705 
-0.31394473 -0.63289976 -0.7077264 
-0.13664784 -0.67029124 -0.7294087 
-0.30323362 -0.42399278 -0.85339296 
0.5370757 -0.41810244 -0.73262554 
0.40057042 0.0036096487 -0.9162589 
0.23531426 0.33272478 -0.9131931 
0.17460917 -0.23571913 -0.9560064 
0.5279534 0.008430868 -0.8492316 
0.7933653 0.41222078 -0.4479347 
0.38698262 -0.58330715 -0.71414095 
0.31460902 -0.63487273 -0.70566124 
0.76124483 -0.6112104 -0.21662934 
0.67604613 -0.7237403 0.13842553 
-0.26214364 -0.93559545 0.23652032 
0.3726632 -0.9236129 -0.0897849 
-0.4821295 -0.7654902 0.42611736 
-0.2018411 -0.9542797 0.2204777 
-0.6341973 -0.501788 -0.5882199 
-0.8267583 -0.18084379 -0.5326971 
-0.6638655 -0.33029047 -0.6709627 
-0.67317957 0.26874375 -0.6889167 
-0.45163494 -0.024325442 -0.89187115 
-0.5594172 -0.63722295 -0.53009385 
-0.7477489 -0.026810432 -0.6634401 
-0.6932751 0.33992088 -0.63547105 
-0.4174259 0.7329334 -0.53718174 
-0.6533636 -0.34385693 -0.6744468 
0.45156106 -0.41308686 -0.7908553 
0.12434366 -0.7642573 -0.6328108 
-0.013014284 -0.6263289 -0.7794504 
-0.12454802 -0.66989815 -0.7319319 
0.1262337 -0.55758715 -0.8204644 
-0.7000129 -0.05255065 -0.7121941 
0.28848377 -0.5892147 -0.75472075 
0.45788208 -0.41216323 -0.78769624 
0.7968614 -0.4821246 -0.3640985 
0.03710729 -0.92341906 -0.38199538 
0.14600037 -0.64378804 -0.75114644 
0.08526425 -0.9963475 -0.004669062 
-0.11283242 -0.91940445 0.37678182 
-0.9717354 0.04975006 -0.23077123 
-0.72714597 0.014361008 -0.6863327 
-0.62370837 -0.7481201 -0.22650439 
0.28905594 -0.48430339 -0.8257706 