# OOMMF: rectangular mesh v1.0
# Segment count: 1
# Begin: Segment
# Begin: Header
# Desc: Time (s) :  6.190000000000012e-07
# Title: m
# meshtype: rectangular
# meshunit: m
# xbase: 2e-09
# ybase: 2e-09
# zbase: 5e-10
# xstepsize: 4e-09
# ystepsize: 4e-09
# zstepsize: 1e-09
# xmin: 0
# ymin: 0
# zmin: 0
# xmax: 1.024e-06
# ymax: 1.024e-06
# zmax: 1e-09
# xnodes: 256
# ynodes: 256
# znodes: 1
# ValueRangeMinMag: 1e-08
# ValueRangeMaxMag: 1
# valueunit: 
# valuemultiplier: 1
# End: Header
# Begin: Data Text
-0.4062221 -0.36036548 -0.83971447 
-0.09378654 -0.7936023 -0.60116524 
0.008016262 -0.78960115 -0.6135681 
-0.17114066 -0.80656385 0.5658319 
-0.55848086 -0.8007873 0.21642286 
-0.45290726 -0.72383976 0.52051044 
-0.9559156 -0.28298306 -0.078397505 
0.08993821 -0.5879278 -0.80389804 
0.34090176 -0.56171745 -0.75383 
-0.4954394 -0.79399925 -0.35228536 
-0.27058667 -0.8405202 -0.46937057 
-0.28773263 0.0065832823 -0.95768815 
-0.492612 -0.35857671 -0.7929415 
0.5510415 -0.67787063 -0.48666686 
0.66226894 -0.51564175 -0.54361147 
0.9004649 -0.19763644 -0.38743117 
0.91202664 -0.40605572 -0.057673257 
0.54192877 -0.8005937 -0.2556623 
-0.2520808 -0.96767956 -0.0071839783 
0.21002717 -0.9717598 0.10757147 
-0.39917934 -0.1356438 -0.90678376 
0.6406682 -0.45997155 -0.614793 
0.9385857 -0.04036566 -0.3426769 
0.27267277 -0.7135445 -0.6453712 
0.5004498 -0.82519996 -0.261907 
0.4096025 -0.8169115 -0.4060559 
0.1582758 -0.961641 -0.22404331 
-0.024784217 -0.71143365 -0.70231616 
-0.22502245 -0.9465667 -0.23103361 
-0.39927948 -0.8177335 0.41459367 
-0.31943664 -0.9123001 -0.25625935 
-0.13184403 -0.96263397 -0.23654392 
0.4652636 -0.342221 -0.8163422 
0.31434318 -0.4874553 -0.8146016 
0.13307966 0.30423686 -0.94325495 
-0.15463921 -0.2946104 -0.94302255 
0.5891139 -0.50255054 -0.6327621 
0.87665755 0.2602334 -0.40466058 
0.7734427 -0.50370544 -0.3847951 
0.7894947 -0.367942 0.49124023 
0.26320177 -0.96473974 0.0015089192 
0.30620205 -0.71634257 0.62697184 
0.45510927 -0.36113852 0.81391305 
-0.2553348 -0.95741296 0.13477659 
-0.6513122 -0.41348922 -0.636254 
-0.9413696 0.33558196 0.03475704 
-0.565618 -0.4889186 -0.66410464 
0.40711322 -0.8203623 -0.40157753 
0.50687987 -0.85549563 -0.105830625 
-0.04114153 -0.9949967 0.091043286 
-0.33183217 -0.8075153 0.48765412 
0.40899774 -0.75011957 -0.5196552 
0.5482232 -0.7804429 -0.30059996 
-0.08329019 -0.99128056 -0.10210564 
0.78738755 0.056488287 -0.6138648 
0.25834295 -0.3702824 0.8922723 
0.21732505 -0.37333658 0.90188116 
0.002233059 -0.88969576 -0.45654836 
-0.00868793 -0.6246865 -0.7808274 
0.100844294 -0.74378675 -0.66076607 
0.62158984 -0.54510874 -0.5625679 
0.011564994 -0.8654951 0.5007838 
0.6377827 -0.765225 0.08754462 
-0.094291195 -0.95981395 0.26432276 
0.024752544 -0.8445999 -0.5348257 
-0.0055255964 -0.5697835 -0.8217762 
0.20376918 -0.360893 -0.91007394 
-0.0644398 -0.8021404 -0.5936484 
-0.27706155 -0.7546325 0.59478307 
-0.8259253 -0.47181186 0.30861157 
-0.6620237 -0.74849075 -0.038551755 
-0.43990433 -0.50289726 -0.7440286 
0.21266353 -0.69745046 -0.6843517 
0.22272341 -0.7674767 -0.60114384 
0.75617796 -0.63065374 -0.17455849 
0.73468184 -0.5855013 -0.34268203 
0.6941028 -0.71950316 -0.023160623 
-0.20314017 -0.9125491 0.35494837 
0.3941464 -0.9065534 0.15102859 
-0.5987683 -0.7647112 0.2381039 
-0.42687336 -0.67635566 0.6002685 
-0.45945776 -0.8729968 -0.16363186 
0.44786897 -0.76037955 0.4703579 
-0.63985986 -0.52965397 0.5568179 
-0.76257145 -0.63133454 0.1410728 
-0.092391685 -0.5521565 0.82860553 
-0.45503122 -0.4163573 0.7871425 
-0.94176203 -0.31162047 0.12640044 
-0.30530968 -0.73302263 -0.6078355 
0.19409007 -0.80850035 -0.5555685 
0.4004158 -0.71531886 -0.57270086 
0.526859 -0.8031357 -0.27819553 
0.61375225 -0.7807888 -0.116949774 
0.945775 -0.0033795894 -0.32480523 
0.879273 -0.43210942 0.20040098 
0.8725033 0.029167376 0.4877369 
0.7750224 -0.22590667 0.590175 
0.19085294 -0.74405193 0.6402827 
0.18738328 -0.86898094 -0.4579953 
0.545124 0.4688438 -0.69500023 
0.2097537 0.05226079 -0.9763566 
0.53904384 -0.39239132 -0.7452925 
0.003356774 -0.99643594 -0.08428634 
-0.14877702 -0.57445204 -0.8049039 
0.44930482 -0.15099132 -0.8805265 
0.8412259 0.10533271 -0.5303245 
0.65572137 0.27071676 -0.70479923 
-0.34851483 -0.519974 -0.7798491 
-0.20798995 -0.36968008 -0.90558106 
0.10925746 -0.56341213 -0.8189197 
0.6031646 -0.28994533 -0.74305063 
-0.24891835 0.38531426 -0.888579 
0.2680047 -0.4286315 -0.8628144 
-0.03986856 0.12463417 -0.99140143 
0.36560053 -0.8584078 -0.3598225 
0.556788 -0.14446415 -0.8179959 
-0.9015922 -0.036406387 -0.43105236 
-0.831208 -0.09326874 -0.54808223 
0.21096273 -0.4212969 -0.8820452 
0.29118976 -0.66164 -0.6909712 
0.21728393 -0.5283216 -0.8207704 
0.33033946 0.0047262483 -0.9438504 
0.92357737 -0.26565513 -0.27646363 
0.81283367 -0.27717304 -0.5123247 
0.5768055 -0.3959514 -0.7145054 
0.8904854 -0.3356726 -0.3071802 
0.77955157 -0.5894364 0.21181166 
0.16819784 -0.96771365 0.18772249 
-0.4340693 -0.45420033 -0.7780012 
-0.35559955 -0.4491558 -0.81963897 
-0.27787912 -0.89220595 -0.35602233 
-0.18397678 -0.114388846 -0.9762519 
-0.49151245 -0.21954432 -0.8427431 
-0.09737475 -0.7054482 -0.7020406 
-0.13930312 -0.9878023 0.06957979 
0.11111203 -0.9626704 -0.24681982 
0.35977188 -0.7913618 -0.49427783 
0.1174315 -0.97291696 -0.19910431 
0.090420716 -0.8986481 -0.4292502 
0.20530578 -0.9644089 -0.16662881 
0.2423588 -0.80626327 -0.53963137 
-0.013447493 -0.86590487 -0.50002795 
-0.037201602 -0.54335946 -0.83867556 
0.628523 -0.72021556 -0.29368094 
-0.060249556 -0.96910125 -0.23919226 
-0.0318795 -0.97146755 0.2350202 
-0.5160211 -0.36955288 0.7727567 
-0.839665 -0.18219407 -0.5116328 
-0.85990065 0.21458289 0.46316874 
-0.8883188 -0.43382764 0.15060994 
-0.93987215 0.124874026 -0.31787857 
-0.90266126 0.02203187 0.42978764 
-0.5337378 0.52958035 -0.6592941 
-0.20693277 0.0005627002 -0.9783551 
-0.08612412 -0.79046506 -0.60642207 
-0.01382679 -0.39372787 -0.91912305 
-0.38236415 -0.5505858 -0.74205995 
-0.49978784 -0.826862 -0.2578981 
-0.31546372 -0.7469762 -0.5852429 
-0.92110175 -0.20400447 -0.33159295 
-0.4351859 -0.8996861 0.034323514 
-0.34985355 -0.91644037 -0.19426687 
-0.09237046 -0.99432236 0.052828297 
0.48243806 -0.7704815 -0.4166674 
0.6450622 -0.7177334 -0.26220894 
0.7397554 -0.6705338 -0.0560927 
0.39067456 -0.91255003 0.12093719 
0.0951224 -0.9948879 0.033910062 
-0.15271316 -0.68740404 -0.7100383 
0.84379345 -0.4276728 -0.3242049 
0.4657394 -0.67271554 0.5749267 
0.27067018 -0.3344276 0.9027159 
-0.16799691 -0.025313195 0.98546255 
-0.5866943 -0.7468964 0.31294686 
0.25598857 -0.7265846 0.6376087 
-0.59386903 -0.31769428 0.73918194 
-0.96280104 0.27016643 0.0049329107 
-0.78055 0.059155937 -0.62228805 
-0.5852912 -0.28259993 -0.7599813 
-0.15487683 -0.94015145 -0.30352667 
0.4050883 -0.63621664 0.6566064 
-0.40085799 -0.8766554 0.26606068 
-0.9352867 -0.31809726 -0.15508986 
-0.5399964 -0.374062 -0.7539772 
0.672063 -0.73953027 -0.03776734 
-0.14762257 -0.981229 0.124086134 
-0.68590504 -0.6080086 0.39982483 
-0.70166457 -0.40471587 -0.586406 
0.060513727 0.23714097 -0.9695887 
0.13089763 0.9902855 0.046910573 
-0.19340608 0.9801583 -0.043402128 
0.33951464 0.51528484 -0.7868999 
0.43645218 -0.7835346 -0.4422479 
0.22600782 -0.82959455 -0.51058143 
0.14597629 -0.54465353 -0.82585925 
0.34050784 -0.8223864 -0.4557797 
0.8537384 -0.35256663 -0.3831808 
0.54357445 -0.8159721 -0.19676487 
0.2333972 -0.96792716 -0.09296694 
0.6060437 -0.6576898 -0.447387 
0.47525042 -0.8675073 0.14686136 
0.22120033 -0.96930695 -0.107305765 
-0.11405244 -0.61777765 0.77803785 
-0.31096792 -0.8784785 0.36273193 
-0.19638829 -0.83270866 0.51771426 
-0.021749392 -0.9460567 0.32327032 
-0.09540094 -0.861322 0.4990221 
0.101873115 -0.9886587 0.11034465 
0.34586212 -0.7250957 -0.59549624 
-0.18200679 -0.68356913 -0.7068287 
0.007823506 -0.12091355 -0.99263227 
-0.56265336 -0.14151046 -0.81449133 
-0.17665556 -0.9220116 -0.34451035 
0.6927468 -0.5628337 -0.4509103 
0.6148838 -0.713284 0.33636865 
0.88267994 -0.44035053 -0.16421801 
0.35978007 -0.47576788 -0.8026228 
-0.13377833 -0.7383612 -0.661004 
0.22952504 -0.73028994 -0.64342445 
0.14437269 -0.01228758 -0.9894472 
0.1047109 0.5770274 -0.8099846 
0.3769829 0.3525883 -0.85648435 
0.6238462 -0.21368623 -0.75176746 
0.6820604 -0.3536158 -0.6401169 
0.69183606 -0.18165444 -0.69883084 
0.17552462 -0.89296347 -0.4144966 
0.7362381 -0.54762673 -0.39756566 
0.42187795 -0.637767 -0.6444162 
-0.55043083 -0.44836023 -0.70427203 
-0.60201156 0.1512699 -0.78402776 
-0.9571172 -0.16152088 -0.2404948 
-0.99063265 0.0053822435 -0.13644774 
-0.5879156 -0.6731301 -0.4486103 
0.2724991 0.6603829 -0.6997419 
0.9268093 -0.2068468 -0.31343076 
0.44995475 -0.5488886 -0.7044587 
-0.2602562 -0.6529798 -0.7112554 
-0.24157442 -0.6483126 -0.7220336 
-0.0859254 -0.9961596 -0.016819464 
0.07872514 -0.9485021 -0.3068326 
0.10515949 -0.9231512 0.3697747 
-0.3735985 -0.87812334 0.29887056 
-0.9523768 -0.2498087 0.17485453 
-0.6556243 -0.32039735 0.6837415 
-0.99848795 -0.0041943695 -0.054811884 
-0.4561345 -0.46542153 -0.7585013 
-0.38378298 -0.9046194 -0.18540321 
-0.46454668 -0.88407266 -0.051107585 
-0.24836387 -0.5999712 -0.76049334 
0.0016334804 -0.27999857 -0.959999 
-0.6552953 0.04199769 -0.7542044 
-0.80515224 -0.5585131 0.19948158 
-0.14861436 -0.89663565 0.41708326 
0.46580344 -0.5256851 0.7118163 
-0.54472095 0.20810424 0.81238645 
0.80869305 0.0028242476 0.5882241 
-0.39171433 -0.5342254 -0.7491082 
-0.67636216 -0.27766508 -0.682229 
-0.5227026 -0.23748055 -0.8187705 
-0.34311852 -0.7124459 -0.6121198 
-0.08882661 -0.47156805 -0.8773446 
-0.6919883 -0.49009812 -0.5300529 
-0.78300595 -0.5665354 -0.25678676 
-0.39538166 -0.5338862 -0.74742156 
0.5350628 -0.12164094 -0.83600914 
0.09434654 -0.41568682 -0.9046012 
0.37984034 -0.37366298 -0.8462254 
0.17861678 -0.457766 -0.8709457 
0.33433712 -0.3689581 -0.86723053 
0.8072103 0.2875348 -0.5154951 
0.48140532 0.25116974 -0.8397396 
0.88393146 -0.46761623 0.00055878714 
0.73016715 -0.55255955 -0.40191284 
0.5277293 -0.3844451 -0.75743246 
-0.16847938 -0.7583177 -0.6297374 
-0.174029 -0.75275004 -0.6348869 
-0.117809534 -0.4894673 -0.86402714 
0.45345172 -0.6446693 -0.61545354 
0.3511373 -0.5964412 -0.721776 
-0.07372557 -0.8331599 -0.5480959 
0.01697775 -0.96639466 -0.2565017 
0.09022622 -0.6984992 -0.70990014 
0.003731554 -0.9999471 -0.009594058 
0.47990787 -0.86661106 0.13665213 
0.030158427 -0.87008595 -0.4919766 
-0.29517815 -0.6034215 -0.74077827 
-0.061128743 -0.36755276 -0.92799157 
0.34809634 -0.61931473 -0.70376015 
0.4050601 -0.5259544 -0.74786246 
0.042757004 -0.45393416 -0.89000887 
0.6131167 -0.3642549 -0.70100385 
0.88410336 -0.01714624 -0.46697694 
0.6993816 -0.70621157 -0.11013927 
0.8180586 -0.41767544 -0.39538246 
0.35242155 -0.63071686 -0.69137204 
0.42994758 -0.895139 0.11777723 
-0.21211208 -0.8511612 -0.4801386 
0.24450856 -0.9484829 -0.20148379 
0.52340645 -0.84779376 0.08539084 
-0.027105602 -0.9963155 -0.08136805 
-0.44442043 0.041927814 -0.8948366 
-0.035496566 0.07232951 -0.9967489 
0.09772453 -0.73667 -0.6691541 
0.04632431 -0.7117174 -0.70093685 
0.58993524 -0.4709188 -0.6559055 
-0.045227107 -0.9456877 -0.32191497 
-0.26788494 -0.96325856 0.019252704 
-0.2582233 -0.87414694 -0.4113247 
0.043411992 -0.763458 -0.6443968 
0.2916086 -0.71274817 -0.6379299 
0.16296436 -0.343889 -0.92476106 
0.039669745 -0.8703493 -0.49083465 
-0.64129895 -0.63583714 0.42947283 
-0.3814327 -0.082225315 -0.9207323 
-0.010301238 -0.5320323 -0.8466614 
0.22993797 -0.7481606 -0.6224021 
0.6485196 -0.49953866 -0.574355 
0.4428866 -0.80647683 0.3917229 
0.19210067 -0.6750116 0.7123601 
-0.38497707 -0.81190574 0.43886408 
-0.54194844 -0.8206065 -0.18137553 
-0.65256274 -0.72486657 -0.2207495 
-0.3837996 -0.5159502 -0.7658286 
-0.3073372 -0.9056651 -0.29208666 
-0.16111584 -0.8543722 -0.49405444 
-0.5107823 -0.72136945 -0.46768326 
-0.6051796 -0.5131769 -0.6086108 
0.08251342 -0.67843086 -0.7300159 
-0.113681346 -0.7398985 -0.6630436 
0.616825 -0.7380541 -0.2735016 
0.5328466 -0.5268275 -0.6622139 
0.13969338 -0.70380646 -0.69652164 
0.66581637 -0.7315559 -0.14667906 
0.20886183 -0.4169683 -0.8845984 
0.45245558 -0.4849888 -0.74837816 
0.33410996 -0.8681969 0.3668853 
0.27466297 -0.6941336 0.66538626 
0.32727426 -0.91816264 0.22331376 
0.22089738 -0.8959988 0.3852152 
-0.7240816 -0.60648614 0.3284515 
-0.7569939 -0.30557117 0.5775696 
-0.23719072 -0.06716069 0.9691388 
-0.9090778 -0.34929883 -0.22708555 
-0.5209978 -0.575723 -0.63016224 
-0.6969477 -0.510823 -0.5033128 
-0.43754268 -0.61456174 -0.65640724 
0.35607696 -0.4232733 -0.83309597 
-0.126839 -0.3544477 -0.9264334 
0.40642798 -0.7399608 -0.5359799 
0.4783855 -0.85535073 -0.19880258 
0.8816322 -0.41225296 -0.22972234 
0.30624017 -0.79756397 0.5197199 
-0.08592953 -0.97646457 0.19782095 
-0.12133336 -0.87551874 0.46770218 
-0.13182528 -0.88484293 -0.44685015 
0.64683735 -0.7059508 -0.28850466 
0.39551428 0.35935003 -0.84524316 
0.77516156 -0.011631339 -0.6316561 
0.049236067 -0.39420474 -0.9177028 
-0.16596001 -0.1534581 -0.97411907 
0.3792624 -0.5113728 -0.7711407 
0.57330084 0.6397591 -0.51189303 
0.89645183 0.440176 0.051179476 
0.5369697 -0.5929736 -0.6000382 
0.2737714 -0.49552763 -0.8243189 
0.13649908 0.18204299 -0.9737702 
0.6514578 0.35078102 -0.67272246 
0.5305891 0.09215265 -0.84260505 
0.25375244 -0.86866874 -0.4254697 
-0.5990024 -0.5197726 -0.6091245 
0.33493847 0.04455824 -0.9411859 
0.5466429 -0.07798203 -0.8337269 
0.33400834 0.06766382 -0.9401383 
0.24280722 -0.5574165 -0.7939342 
0.16099659 -0.21415123 -0.9634415 
-0.105939426 0.5816929 -0.8064802 
0.5547715 -0.19372395 -0.8091352 
0.085783646 -0.7621198 -0.64172775 
0.8324904 -0.06945376 -0.54966885 
0.99365616 0.10571363 -0.038367696 
0.52763945 -0.84424794 -0.09403193 
0.1522231 -0.980949 -0.120695725 
0.38518164 -0.051526465 -0.92140114 
-0.39044383 -0.56339455 -0.72810733 
-0.18317893 -0.57918835 -0.7943465 
-0.12760884 -0.66254693 -0.7380702 
0.04680307 -0.65649235 -0.75287926 
-0.028571958 -0.576745 -0.8164245 
0.12697837 -0.70416105 -0.69859415 
0.2660392 -0.31140405 -0.9122778 
0.0945941 -0.94983745 -0.2980954 
-0.0031865807 -0.8810722 -0.47297117 
0.36484852 -0.8298017 -0.42227352 
-0.04522209 -0.32233354 -0.9455454 
-0.18572098 -0.7285139 -0.6593749 
0.3686131 -0.57607883 -0.72955996 
0.689806 -0.6110703 -0.38827947 
0.6027673 -0.39524338 -0.69314814 
0.43185046 -0.7286239 -0.531613 
-0.04636392 -0.9933676 0.10521944 
-0.33914727 -0.8438258 -0.41585702 
-0.15996578 -0.97468567 0.15620112 
-0.0053857667 -0.74232423 0.67001927 
-0.124490425 -0.8913921 -0.43580076 
0.10128087 -0.904932 0.41332838 
-0.17347199 -0.9846837 -0.017476372 
-0.8940752 -0.13647495 -0.4266195 
-0.95063955 0.19299655 -0.24297509 
-0.74421245 0.6430871 -0.18051866 
-0.66369367 0.22811794 -0.7123714 
-0.8854176 0.09290364 -0.45541704 
-0.6110334 0.182984 -0.77016556 
-0.7448474 -0.572164 -0.34326482 
-0.66967404 -0.5191526 -0.5310531 
-0.5437706 -0.45929065 -0.7023999 
-0.19166249 -0.9276076 -0.32063964 
0.41920826 -0.8994731 -0.12333969 
0.38878438 -0.512588 -0.7655718 
0.009787847 -0.91460836 -0.40422264 
0.29290488 -0.7097893 -0.6406293 
0.30951256 -0.935654 0.16956921 
0.23787473 -0.9441655 0.22796334 
-0.1009513 -0.994485 -0.028435925 
0.6712622 -0.65049076 -0.35534322 
0.20105496 -0.9227195 -0.32888576 
0.56585824 -0.771039 -0.29206753 
0.34500003 -0.93529016 0.07878672 
0.95628476 -0.2887006 0.04659941 
0.432162 -0.5470127 0.71694714 
-0.20837377 -0.94233537 0.26188624 
-0.59981954 -0.77167416 0.21150802 
-0.56239504 -0.75638735 -0.3340511 
-0.74785215 0.07297148 -0.6598427 
-0.3578623 -0.18224265 -0.9158178 
-0.24280582 0.17587464 -0.95399874 
0.19009729 -0.5481976 -0.8144584 
0.3208463 -0.5581035 -0.7652309 
0.47269928 -0.87229615 -0.12511906 
-0.12952092 -0.9681402 -0.21431033 
-0.93699676 -0.34838995 -0.025718814 
-0.001970108 -0.2041165 -0.9789447 
0.15324752 -0.31226757 -0.9375522 
-0.9821963 -0.16417423 -0.091309175 
-0.670863 0.19252428 -0.7161545 
-0.5971448 0.06818241 -0.7992304 
0.024592357 0.9800935 -0.19700766 
-0.28721544 0.9569946 0.040848818 
-0.17264856 0.24164203 -0.9548831 
0.25115374 -0.43807033 -0.8631432 
0.2086416 -0.80978495 -0.54837686 
0.55323046 -0.089444585 -0.82821244 
0.3817073 -0.40960252 -0.82856834 
0.24438012 -0.96547025 -0.09025328 
0.49975812 -0.85770404 0.12077177 
0.13571095 -0.981541 -0.1347587 
0.47831523 -0.5761069 -0.6628087 
0.5205422 -0.7610794 -0.38703245 
-0.2950868 -0.9193263 -0.26031318 
-0.38645658 -0.9201043 0.06371306 
0.060272757 -0.8066304 -0.58797514 
-0.026133254 -0.7874246 0.6158568 
0.29378632 -0.9294076 -0.2233633 
0.49279225 -0.822625 0.2836266 
-0.72564995 -0.66187465 -0.18802688 
-0.17053095 -0.7701126 -0.61469173 
-0.619297 -0.63078254 -0.46753043 
-0.027964331 -0.06826533 -0.99727523 
0.6077477 -0.3119963 -0.7302747 
0.77303433 -0.5819622 -0.2524639 
0.25352752 -0.9539685 0.16021222 
-0.0952022 -0.27662972 -0.95624924 
-0.4308079 -0.6570078 -0.61866415 
-0.039647017 -0.7529589 -0.65687215 
0.6931613 -0.18511076 -0.6966071 
0.39486188 0.6525792 -0.6467028 
-0.3541772 -0.067654856 -0.93272793 
0.18714623 0.663354 -0.724526 
0.710213 -0.073028654 -0.70018876 
0.415046 -0.87873495 -0.23571557 
0.29484153 -0.7180479 -0.6304567 
0.59786075 -0.57780635 -0.5556099 
0.7528809 -0.63364255 -0.17795342 
0.9889861 -0.14799505 -0.0020469313 
0.6103625 -0.79112774 -0.03968239 
-0.4101141 -0.87083304 -0.27102837 
-0.7659971 0.01896574 -0.6425642 
-0.6360367 -0.1055739 -0.76440275 
-0.18582404 -0.832838 -0.52139276 
0.033092134 -0.38489273 -0.92236793 
0.0408206 -0.0069233975 -0.9991426 
0.73769593 0.05369166 -0.67299485 
0.75362194 -0.33240232 -0.5670651 
0.30418336 -0.49537635 -0.8136798 
0.1612001 -0.7171538 -0.67801553 
0.22979897 -0.8889374 -0.39621058 
-0.55934656 -0.8055214 -0.19561893 
-0.5528332 -0.512266 -0.657236 
-0.7488591 -0.66185045 -0.034118187 
-0.7772845 -0.5224236 0.35057446 
-0.84125507 -0.52152014 0.14250171 
-0.7774925 -0.4552826 -0.43384704 
-0.77286243 -0.10470643 -0.62587553 
-0.73994863 -0.67228836 0.022459405 
-0.07868367 -0.94004446 -0.33185136 
-0.32066157 -0.22286193 -0.9206024 
0.046988666 0.50170493 -0.8637617 
-0.09185143 0.5239186 -0.84680146 
-0.11732437 -0.9069441 -0.40458304 
0.678016 -0.68688434 -0.26169488 
0.60646087 -0.6860279 0.40195903 
0.85360837 -0.39984193 0.33388507 
0.40846467 -0.7503191 0.51978636 
-0.48098752 -0.58670837 -0.6514785 
-0.008273998 -0.25462526 -0.9670045 
-0.45229495 -0.5239212 -0.72175896 
-0.5040691 -0.117506385 -0.85563225 
-0.9710088 -0.19192344 -0.14250447 
-0.74087054 0.4788476 -0.4709733 
-0.36525887 -0.52953345 -0.76562417 
-0.59072995 -0.28856653 -0.75350356 
0.35861903 -0.4330119 -0.8269784 
0.15371265 0.22315575 -0.9625872 
0.5686983 -0.28107697 -0.7730318 
0.24843794 -0.7873238 -0.5642694 
0.4184896 0.29016128 -0.8606236 
0.8912281 0.25388718 -0.3758377 
0.38649803 -0.17199798 -0.9061104 
0.5794713 -0.48878387 -0.65215296 
0.5069034 -0.8543985 0.114245914 
-0.07348826 -0.9280768 -0.36506587 
-0.35142902 -0.5988199 -0.7196613 
-0.105300866 -0.56289375 -0.8197942 
-0.07829428 -0.58232534 -0.809177 
0.53106 -0.3995136 -0.74723774 
0.25999206 -0.20663413 -0.9432425 
0.10883586 -0.53095675 -0.8403808 
-0.15423976 -0.7698442 -0.6193142 
-0.09063864 -0.91978157 -0.38182023 
0.14875598 -0.9591139 0.24077417 
0.45055953 -0.7803279 -0.4336869 
0.30874345 -0.90732175 -0.28538534 
0.24941538 -0.2577177 -0.933474 
0.04151675 -0.17326137 -0.98400044 
-0.08727204 -0.16466692 -0.9824808 
0.4451209 -0.16037805 -0.88099164 
0.21394849 -0.3227163 -0.921998 
0.11582096 -0.60217845 -0.78991556 
0.78196436 -0.35049394 -0.515447 
0.7753448 -0.6309157 -0.028034326 
0.5936599 -0.75969344 -0.26539394 
0.57897323 -0.52247685 -0.6259456 
-0.84492606 -0.23506284 -0.48046383 
-0.6268423 -0.72795665 -0.27775508 
-0.30641657 -0.93628305 -0.17170624 
0.40163267 -0.90393424 0.14694974 
-0.7505119 -0.40559247 -0.52175355 
-0.5754453 0.11994514 -0.80899686 
-0.017324192 -0.03794644 -0.99912965 
-0.3450208 -0.11814485 -0.93112963 
-0.04144792 -0.6162888 -0.7864288 
0.24623425 -0.557176 -0.79304713 
-0.2306812 -0.30208397 -0.92494947 
-0.60337514 -0.23079191 -0.7633306 
-0.16800714 -0.28112078 -0.94485176 
0.25952172 0.08978547 -0.9615545 
-0.08334518 -0.6268181 -0.7746952 
-0.41110632 -0.10303873 -0.9057454 
-0.28799593 -0.5245761 -0.80117303 
-0.17022234 -0.76940274 -0.6156653 
-0.23070136 -0.87262815 -0.43046135 
-0.53216743 -0.39578116 -0.74843514 
-0.32211444 -0.032896504 -0.946129 
0.015551825 -0.0829595 -0.9964316 
-0.09948937 -0.4989989 -0.86087286 
0.59867465 -0.7922672 -0.117903925 
-0.033195123 -0.9218575 0.38610494 
0.10577228 -0.9586184 -0.2643161 
-0.6001402 -0.7528992 -0.27013803 
-0.26119745 -0.65726966 -0.70694596 
-0.28005686 -0.529488 -0.80075634 
-0.2904035 -0.7794465 -0.55509377 
-0.7651244 0.36576223 -0.5299082 
-0.35305783 -0.6928112 -0.6287789 
0.27212194 -0.52894986 -0.8038418 
0.34660208 -0.84786826 -0.4012313 
-0.0006507397 -0.94881123 -0.31584302 
0.2573026 -0.55006826 -0.79449373 
0.15974867 -0.7922137 -0.5889634 
-0.12290062 -0.888119 -0.4428771 
0.6827715 -0.6615589 -0.31010148 
0.33954185 0.086342454 -0.93661964 
0.3326416 -0.8976857 0.28898078 
0.7453478 -0.6369308 0.19691585 
0.0607269 -0.8967882 0.43827313 
0.55324286 -0.7442735 0.37413812 
-0.14907508 -0.9465866 -0.28592065 
-0.8820935 -0.2283037 0.41205415 
-0.36159575 -0.16777642 0.9171149 
-0.69605106 -0.6239394 0.35526416 
-0.5278318 -0.77165437 -0.3548848 
-0.23105693 -0.78650635 -0.5727307 
-0.18450375 -0.9443468 -0.27233696 
-0.03517503 -0.65796036 -0.7522307 
-0.16493607 0.33634132 -0.92718434 
0.29413682 -0.6324626 -0.7165714 
0.83137584 -0.44172037 -0.3371907 
0.82427925 -0.5165085 -0.23191145 
-0.17156325 -0.9846504 -0.03208998 
-0.4826662 -0.87040895 -0.09706623 
-0.45646733 -0.77504706 -0.43696654 
-0.33944708 -0.79500055 -0.5027424 
0.27738371 -0.923823 -0.263836 
0.5451212 -0.27770218 -0.79102755 
-0.02563287 0.014387281 -0.999568 
0.41107908 0.055253122 -0.90992373 
0.2135632 -0.7641721 -0.6086311 
0.28276947 -0.58678216 -0.75876755 
-0.4790727 -0.36714962 -0.79730207 
-0.08358475 -0.5966362 -0.7981472 
0.7855386 -0.12020052 -0.6070264 
0.68722314 0.033401236 -0.72567815 
0.19815342 -0.00507097 -0.980158 
0.11282143 -0.39415255 -0.9120939 
0.5311032 -0.19344717 -0.82492894 
-0.19951656 -0.5147873 -0.83377886 
0.12532508 -0.053222954 -0.99068713 
0.18154275 -0.38546047 -0.9046892 
0.6345756 -0.25996172 -0.72782815 
0.028133582 -0.04079132 -0.99877155 
0.29733017 0.38855 -0.87213755 
0.23787205 0.48858255 -0.8394666 
-0.13782297 0.44669932 -0.88400483 
0.79856074 -0.10079439 -0.5934149 
0.7821567 -0.501521 -0.36974007 
0.61596286 0.055280384 -0.7858333 
0.850115 -0.14782885 -0.50542194 
-0.22542773 -0.89059883 -0.39498875 
-0.5623797 -0.57633054 -0.59293526 
-0.32155263 -0.47709063 -0.81791717 
-0.7656117 -0.38421756 -0.51596075 
-0.36378488 -0.6540455 -0.66323835 
-0.45985138 -0.86615765 -0.19572316 
0.18631238 -0.69681495 -0.69263023 
0.1161326 -0.7537193 -0.64685434 
-0.570533 -0.48586378 -0.6621395 
0.16245246 -0.48772338 -0.85775006 
-0.23343949 -0.46143577 -0.8559108 
-0.12156062 -0.5919316 -0.7967685 
0.025608523 -0.25859848 -0.9656455 
0.6704713 -0.08247178 -0.73733765 
0.39533967 -0.8121688 -0.42905545 
-0.23166005 -0.958097 -0.16847539 
0.22196795 -0.7861031 -0.5768642 
0.43987754 -0.75142175 -0.49180627 
0.3826283 -0.2975486 -0.8746774 
0.11321502 -0.19917864 -0.9734014 
-0.33278686 -0.51066244 -0.79276526 
-0.16116162 -0.55288786 -0.8175219 
-0.3279531 -0.8919665 -0.31119543 
0.17118396 -0.98506224 0.018670285 
-0.12805301 -0.98390484 0.12463437 
0.25730193 -0.95945066 -0.115109675 
-0.3917346 -0.75123674 -0.5312133 
-0.98286116 -0.1625114 -0.08702883 
-0.38901454 0.13167629 -0.91177255 
-0.1976462 0.61686164 -0.7618515 
-0.8504856 -0.5234562 -0.0516522 
-0.8036035 -0.59505963 -0.011206076 
-0.63137853 -0.7499869 -0.19718227 
-0.41352803 -0.8585947 -0.30300134 
-0.29345098 -0.63235784 -0.716945 
0.12267278 -0.21665215 -0.9685109 
0.0688023 -0.9850972 -0.15763834 
0.581477 -0.5847276 -0.56566614 
0.44023085 -0.33475545 -0.8331481 
0.45412052 -0.65006703 -0.60925156 
0.4872927 -0.8731561 0.012017684 
-0.24544775 -0.8654043 -0.43684173 
-0.24349986 -0.90874505 0.33895463 
0.510302 -0.5542739 -0.6575503 
0.54722846 -0.80427223 -0.23170546 
0.38554168 -0.7897622 -0.47710928 
0.25168076 -0.87083995 -0.4222495 
-0.1896645 -0.981649 -0.01981657 
-0.053756755 -0.97995424 0.19183303 
-0.3008813 -0.9180682 -0.258111 
-0.8660075 -0.49200603 -0.08922548 
-0.22561122 -0.4130995 -0.8822973 
-0.09986041 -0.42112213 -0.90148985 
0.31811142 -0.27717677 -0.90663016 
-0.24304196 -0.7024291 -0.6689724 
0.19096169 -0.38356203 -0.90355617 
0.07034991 -0.51196 -0.85612375 
-0.14422026 -0.33028468 -0.9327983 
-0.46833727 -0.29031593 -0.8344921 
-0.6761809 -0.72436124 -0.13446306 
0.09945436 0.2421548 -0.9651269 
0.10784077 0.46398544 -0.8792543 
-0.23467295 -0.08497116 -0.96835357 
0.056267567 0.14151914 -0.9883352 
-0.06390895 -0.5060227 -0.86014926 
0.74552566 -0.6328174 -0.20912616 
0.5137098 0.14872536 -0.8449752 
0.15740398 0.36162585 -0.91894 
0.01496045 0.033415645 -0.99932957 
0.16267365 -0.61851585 -0.76874936 
0.47863165 -0.67533207 -0.5611047 
0.25878444 -0.9205768 -0.29252198 
0.3330027 -0.9357852 -0.11582437 
0.3813306 -0.9010926 0.20644438 
0.5947391 -0.7741183 -0.21685573 
0.91223544 -0.17710295 -0.36940628 
0.0077377856 -0.73420113 -0.6788879 
0.14403957 -0.92307574 -0.35662848 
0.19146241 -0.7947001 -0.5760157 
0.28508714 -0.95695996 -0.054341625 
0.36394605 -0.9314188 0.0015264322 
0.22549225 -0.9332841 -0.27952483 
0.13157572 -0.97704655 -0.167535 
-0.5111814 -0.83169746 -0.21673228 
-0.0136467 -0.43235418 -0.9016006 
-0.51930547 -0.5758045 -0.6314832 
-0.09249002 -0.030518549 -0.9952459 
-0.28256595 -0.05966457 -0.95739055 
0.28987604 -0.2588323 -0.92139995 
0.41715893 -0.774123 -0.47614282 
0.12465718 -0.271418 -0.9543547 
0.7531073 -0.14873642 -0.6408642 
0.46029282 -0.67117465 -0.581081 
-0.33553112 -0.5430327 -0.7697627 
-0.55295414 0.09824191 -0.82739973 
0.27083534 -0.00030382813 -0.9626256 
0.29057175 0.5457398 -0.7859619 
0.66580725 -0.49936116 -0.5543819 
0.43368256 -0.3824713 -0.8158646 
0.28768358 -0.13403419 -0.94830006 
0.5197949 -0.27771506 -0.8078909 
-0.12955715 -0.44949156 -0.8838396 
0.5130136 -0.3101652 -0.80038404 
0.5981072 -0.51157707 -0.6168928 
-0.123093255 -0.1428769 -0.98205614 
-0.13528328 -0.3052935 -0.9425998 
-0.49152717 0.0806298 -0.86712164 
-0.054038778 -0.22291149 -0.9733398 
0.2444949 0.020969577 -0.9694239 
0.17954658 0.0013731885 -0.98374856 
0.44259262 0.08316689 -0.89285785 
0.63691413 -0.18091556 -0.7494064 
0.39258233 -0.36509997 -0.8441453 
0.2868571 -0.76504916 -0.57655257 
-0.37460822 -0.5859867 -0.7185321 
-0.6118738 0.078373745 -0.78706294 
-0.6913169 0.04015743 -0.7214349 
-0.38896555 -0.106871 -0.91503245 
-0.80723256 -0.1837213 -0.560912 
-0.3773799 -0.76206326 -0.5261595 
-0.2120031 -0.65349525 -0.7266352 
-0.89296645 -0.3816395 -0.23866764 
-0.5461941 -0.75237733 -0.36823973 
-0.31112728 -0.18879907 -0.93142617 
0.20820646 -0.21312419 -0.9545828 
-0.060301498 0.28899518 -0.95542955 
0.077477135 -0.31397957 -0.94626325 
-0.5701564 -0.6613886 -0.4873262 
-0.084115155 -0.73526853 -0.67253613 
0.050520852 -0.75338566 -0.65563536 
0.5598208 -0.6876476 -0.46232188 
0.62228334 -0.54918796 -0.55781364 
-0.7458259 0.05386822 -0.6639594 
-0.6149449 -0.53442293 -0.57985777 
-0.5701196 -0.21239409 -0.79363245 
-0.60356706 -0.6467909 -0.4662279 
-0.6767482 0.028861258 -0.73564863 
-0.8072382 -0.059955366 -0.5871727 
0.043876693 -0.51807535 -0.85420895 
-0.16366543 -0.117589645 -0.97948265 
0.1503351 -0.5122833 -0.84555614 
-0.45328787 -0.42261377 -0.7848108 
-0.27732682 -0.55362165 -0.7852344 
-0.39882702 0.28857276 -0.8704382 
0.31881693 -0.024598578 -0.94749707 
0.5260315 0.3381414 -0.78035337 
-0.3153199 0.21611029 -0.92405075 
0.5679784 0.09265068 -0.8178119 
-0.081465855 -0.6190321 -0.78112906 
-0.3808242 -0.50364685 -0.77544355 
-0.107035436 -0.36000657 -0.9267895 
0.09412918 -0.7949494 -0.59932894 
0.054916706 0.08536002 -0.9948357 
0.14702979 0.2517281 -0.95656437 
-0.17383042 0.75631374 -0.6306921 
-0.22900611 0.2805377 -0.93212384 
0.15379575 -0.60339123 -0.7824743 
0.014520716 -0.7969524 -0.6038676 
-0.3322185 -0.67061424 -0.6632553 
0.42072466 -0.55413795 -0.7182771 
0.1630755 -0.38003564 -0.9104831 
0.54151446 0.06523477 -0.8381567 
0.29471084 -0.30710822 -0.90489227 
0.01216297 -0.56180257 -0.82718194 
0.3486001 -0.3230256 -0.879848 
-0.36674237 -0.31866685 -0.8740432 
-0.21907434 -0.49456674 -0.84107685 
0.8638197 -0.12383583 -0.48834437 
0.76690555 -0.11402817 -0.6315485 
0.81419903 -0.3588029 -0.45644346 
0.83969265 -0.09596287 -0.534516 
0.3292186 -0.53747725 -0.77635914 
0.4477444 -0.6030829 -0.6601637 
-0.056963783 -0.67525566 -0.7353808 
-0.43847555 -0.732882 -0.5202146 
-0.9102174 -0.3698225 -0.18637481 
-0.4442296 0.37953237 -0.8115511 
-0.5249175 0.3588105 -0.771827 
-0.014354669 0.36888698 -0.9293634 
-0.4026913 -0.06322382 -0.91314983 
-0.3381195 0.071645804 -0.9383721 
-0.06657305 0.5801584 -0.8117785 
-0.9653644 -0.12197368 -0.23063819 
-0.6024797 -0.30173904 -0.7388991 
-0.60653603 -0.48176584 -0.632468 
-0.5028665 -0.37503737 -0.77876335 
-0.52166784 -0.6371984 -0.5673102 
-0.8447328 -0.2146831 -0.49024263 
-0.44755346 -0.2955808 -0.8439952 
-0.3796283 -0.83735645 -0.39334056 
-0.57655853 0.056370705 -0.815109 
-0.508404 -0.36158893 -0.7815234 
0.028629193 -0.048623525 -0.99840677 
-0.18440756 -0.07037807 -0.98032695 
0.13381347 -0.4768096 -0.8687615 
0.12602659 -0.88247925 -0.45315307 
-0.34155324 -0.72776675 -0.59472436 
-0.101252474 -0.86390173 -0.49337807 
0.05757895 -0.65765977 -0.7511114 
-0.24058208 -0.62835556 -0.73979026 
-0.06634677 -0.8810969 -0.46825895 
-0.6716826 0.2198912 -0.7074534 
-0.6427944 -0.49388465 -0.58557105 
0.14381804 -0.27831405 -0.9496619 