# OOMMF: rectangular mesh v1.0
# Segment count: 1
# Begin: Segment
# Begin: Header
# Desc: Time (s) :  6.220000000000012e-07
# Title: m
# meshtype: rectangular
# meshunit: m
# xbase: 2e-09
# ybase: 2e-09
# zbase: 5e-10
# xstepsize: 4e-09
# ystepsize: 4e-09
# zstepsize: 1e-09
# xmin: 0
# ymin: 0
# zmin: 0
# xmax: 1.024e-06
# ymax: 1.024e-06
# zmax: 1e-09
# xnodes: 256
# ynodes: 256
# znodes: 1
# ValueRangeMinMag: 1e-08
# ValueRangeMaxMag: 1
# valueunit: 
# valuemultiplier: 1
# End: Header
# Begin: Data Text
-0.43502522 0.63089406 0.6424374 
-0.75188565 0.235821 0.6156757 
-0.9417914 0.21663311 -0.25709742 
-0.616418 0.72119784 -0.3160736 
-0.25639006 0.30969256 -0.91561705 
-0.50230247 -0.25299323 -0.82685345 
-0.69695467 -0.37509933 -0.6111912 
-0.66625005 -0.590206 -0.45581552 
-0.5609677 -0.09435933 -0.8224426 
0.104467794 -0.025176099 -0.99420965 
0.42042458 -0.0130802635 -0.9072333 
0.37076908 -0.6802486 -0.63229126 
0.34348157 -0.745311 -0.5714298 
-0.460798 -0.3920676 0.79620874 
-0.49326652 -0.865008 0.09191969 
-0.8079754 -0.5882456 0.03380693 
0.008084431 -0.9692521 0.24593714 
-0.047664892 -0.9437859 -0.32710284 
-0.4670027 -0.8620266 -0.1970251 
-0.07505735 -0.76263696 -0.6424572 
-0.050507985 -0.86813295 -0.49375525 
0.03535509 -0.82065207 -0.5703334 
0.023491714 -0.84670717 0.5315403 
-0.37862644 -0.845888 -0.3756535 
0.021805482 -0.9905087 -0.13571028 
-0.023457881 -0.9525194 0.30357295 
2.017487e-05 -0.9051743 -0.42504048 
-0.049246147 -0.2361597 -0.9704656 
0.28219724 -0.67130417 -0.6853579 
-0.37704158 -0.7441159 -0.551481 
0.24688117 -0.6734429 -0.69679576 
0.14125323 -0.9456226 -0.29299378 
0.09744752 -0.9575972 -0.27113026 
-0.12402292 -0.7516503 -0.6477965 
-0.7190411 -0.48308924 -0.49960452 
0.31234774 -0.88096815 0.3554351 
0.39919 -0.8550385 0.3309933 
-0.22072105 -0.843854 0.4890733 
-0.9332547 -0.35888714 -0.015356109 
-0.89730775 -0.3323051 -0.29053795 
-0.13854606 0.24592242 -0.95933694 
-0.19035633 -0.4603823 -0.8670714 
-0.8352212 -0.45447907 -0.30960378 
-0.62820196 -0.28528157 -0.7238624 
-0.07278217 -0.28293443 -0.9563739 
-0.6592819 -0.48545378 -0.5741794 
-0.24981548 -0.7858531 -0.56570953 
0.25069103 -0.5007601 -0.8284886 
-0.12838738 -0.15766948 -0.9791104 
0.050125588 -0.6751071 -0.7360149 
0.44607887 -0.6257983 -0.6398361 
0.8848215 -0.4618905 -0.06122293 
0.8507421 -0.3153144 0.42049363 
-0.2693095 -0.88565886 0.3782602 
0.036185794 -0.98934644 -0.14101194 
0.0072342996 -0.6004653 0.7996181 
0.33982334 -0.9245047 -0.1726596 
-0.025680942 -0.6480372 -0.7611757 
0.20292749 -0.64692795 -0.73505425 
0.62421864 -0.42789528 -0.6536488 
0.60385835 -0.78258353 0.15138763 
0.0623903 -0.504134 0.861369 
-0.5526879 -0.7438243 0.37584785 
-0.86531997 -0.27468815 -0.41924697 
0.1970864 -0.97978663 0.03428279 
-0.0032639864 -0.58390915 -0.81181246 
0.18277292 -0.77382874 -0.6064513 
0.46661186 -0.8082781 -0.35910988 
-0.45141074 -0.7753292 -0.44169348 
-0.40061688 -0.8050324 0.4375261 
-0.47812968 -0.8692901 0.12540615 
-0.39255422 -0.87202764 0.29235098 
-0.05029439 -0.68391025 -0.7278306 
0.40765667 -0.89727354 -0.16945899 
0.34022626 -0.83178747 -0.43860668 
0.67051697 0.036471065 -0.7409972 
0.3306408 -0.8631581 0.38162142 
0.9450267 -0.25815377 0.20070173 
0.57698375 -0.78839654 -0.2133561 
0.5803983 -0.19083878 0.7916556 
0.410516 -0.77715266 0.47698063 
0.2073978 -0.7802282 0.5901105 
0.27001175 -0.54942274 0.79071385 
-0.7137479 -0.56644595 0.4119501 
-0.9267556 -0.21607395 0.30730474 
-0.13845804 -0.983824 -0.11366492 
-0.28318164 -0.94740033 0.14913353 
0.0027142253 -0.8843366 -0.46684203 
-0.27371025 -0.83316135 -0.48054653 
-0.034254476 -0.9535124 -0.2994008 
-0.23320794 -0.41037735 -0.881592 
0.49388963 -0.84238046 0.2155652 
-0.4154568 -0.85711753 -0.30454126 
0.10957365 -0.4459514 -0.8883249 
0.2865754 -0.01980663 -0.957853 
0.36201483 -0.46422786 -0.80835503 
0.6391535 -0.48568952 -0.5963124 
-0.3099732 0.596042 -0.7407096 
-0.31078422 0.7238574 -0.61599004 
0.4302977 0.18861113 -0.8827626 
0.71061105 0.19772083 -0.6752322 
0.84185404 0.18235514 -0.5079651 
0.37562975 -0.902381 -0.21121262 
-0.3048756 0.22488354 -0.9254612 
0.23657243 0.96110606 -0.14250821 
-0.99209744 -0.05637209 -0.11209376 
-0.73854107 -0.33704072 -0.58391845 
0.07870709 -0.51473284 -0.85373026 
-0.008680577 -0.84724855 -0.5311257 
0.8325564 0.073660456 -0.549021 
0.8144699 -0.573084 0.09062942 
0.8154539 -0.4564927 0.35587847 
0.22859843 -0.97255707 -0.043309182 
0.2731362 -0.8839447 0.37952393 
-0.5048878 -0.8579198 0.09519458 
-0.8610755 -0.097681135 -0.4990065 
-0.7029579 0.34390888 -0.6225567 
-0.530605 -0.16842495 -0.8307173 
-0.64922744 0.0700355 -0.757363 
0.04000314 -0.15076509 -0.98775995 
0.2912054 -0.78654474 -0.5445611 
0.37146273 -0.8737418 -0.31399158 
0.048293415 -0.72331506 -0.6888274 
0.13724339 -0.9423994 0.30503726 
0.013574792 -0.84352636 0.5369161 
-0.77411115 -0.4963414 0.39293432 
-0.98580647 -0.1338308 0.10136593 
-0.62584627 -0.6433593 0.4409143 
-0.40779713 -0.68216354 -0.60692215 
-0.6957206 -0.63686204 -0.33223444 
-0.75242233 -0.63918287 -0.1590781 
-0.1586556 -0.98620176 0.047271565 
-0.052915763 -0.9707644 -0.23412925 
0.11184733 -0.93175316 0.3454364 
-0.027729256 -0.8173516 -0.57547146 
-0.044209376 -0.9290509 -0.36730102 
-0.47967312 -0.80619127 -0.346366 
-0.28569183 -0.9580174 -0.024145005 
0.45798814 -0.8788469 0.13369764 
-0.8611131 -0.48271763 -0.15958756 
0.84858227 -0.46514004 -0.2520972 
-0.30815214 -0.6861716 -0.6589468 
-0.4080402 0.34890175 -0.8436652 
0.45349324 0.17968604 -0.87295866 
0.3460827 0.2514685 -0.90387523 
0.18994063 -0.5267403 -0.8285333 
-0.12349043 -0.3662756 -0.92227566 
0.37938353 -0.9252003 -0.008530484 
-0.55434215 -0.8210319 -0.1364238 
0.38091066 -0.44078425 -0.812783 
0.084550284 -0.40429473 -0.91071236 
0.47347456 -0.6738514 0.56722677 
-0.2535173 -0.9500025 -0.18227558 
0.18940952 -0.6279214 -0.7548768 
-0.38116452 -0.3121642 -0.87021106 
-0.43981463 0.62878597 -0.641242 
-0.5385867 -0.08322132 -0.83845013 
-0.23149942 0.15188721 -0.960905 
-0.66327584 -0.5184427 -0.53970593 
-0.99327713 -0.115618624 0.005741736 
0.2029746 0.29514986 -0.9336423 
0.26634344 0.2705136 -0.92513984 
0.16575104 -0.7870815 -0.59416276 
0.40300977 -0.58992976 -0.69969 
-0.037181538 -0.4212766 -0.9061697 
-0.07920119 -0.93393147 -0.3485673 
-0.77763385 -0.6286845 -0.0064495816 
-0.14399457 -0.80411047 0.57677716 
-0.6797644 -0.16083275 0.71557903 
-0.94327915 -0.15365815 0.29430193 
-0.9848764 -0.16574356 0.05047416 
-0.7512865 -0.12530674 -0.6479713 
-0.5929254 0.055056814 -0.8033731 
-0.6272001 -0.05096842 -0.7771888 
-0.631409 0.45601186 -0.62719685 
-0.1575268 0.15232079 -0.9756965 
-0.93715155 -0.3489202 0.0013654254 
-0.5524762 -0.7607748 -0.3405759 
-0.86931735 -0.413764 -0.2703455 
-0.2794771 -0.30009118 -0.9120515 
-0.13321188 -0.73123556 -0.6689912 
-0.20360544 -0.9196567 -0.3358218 
0.5663338 -0.7072737 0.42311928 
0.22342995 -0.80188096 -0.5541354 
0.12503758 -0.7809631 -0.6119331 
0.016453633 -0.7936881 -0.6081025 
0.16316287 -0.58856165 -0.7918164 
0.9456654 -0.25233757 -0.20504354 
0.7384265 0.10283922 0.6664462 
0.7286751 -0.68438184 0.02557506 
0.08227329 -0.98824406 -0.12885945 
0.00030848256 -0.9860176 -0.16664094 
-0.2888207 -0.73035747 -0.6189997 
0.40732428 -0.24321218 -0.88030386 
0.45308176 -0.1163055 -0.8838495 
0.328036 0.8126021 -0.48173663 
-0.25322527 0.483843 -0.8377189 
-0.20815097 -0.03959184 -0.9772951 
-0.35272017 -0.23585004 -0.9055183 
-0.14837109 -0.4106942 -0.8996201 
-0.790261 -0.54933757 -0.27150643 
-0.25959373 -0.7562415 -0.6005913 
-0.40182853 -0.5256944 -0.74978626 
-0.16393003 -0.20857388 -0.96417016 
0.25589058 -0.15405113 -0.9543523 
0.6619817 -0.43801063 -0.6082162 
0.97453356 -0.08310828 -0.20827268 
0.058917787 -0.9567773 -0.2847911 
0.6293026 -0.57469136 -0.5231712 
0.123749 -0.556217 -0.82177186 
0.6746609 -0.61165774 -0.4131677 
0.114264205 -0.8752962 0.4698938 
-0.1505713 -0.8492757 -0.50602293 
0.22784272 -0.929627 -0.28962287 
0.5623928 -0.37671733 -0.7360697 
0.2840255 -0.49899423 0.8187395 
-0.23192923 -0.9680766 -0.09506145 
-0.5465862 -0.82215804 -0.15905878 
-0.71800464 -0.6914825 0.07950654 
-0.84323406 -0.5327086 -0.07195874 
0.42292526 0.10736459 -0.8997817 
-0.08091724 -0.9831578 -0.16386893 
0.486389 -0.82074374 0.29967576 
0.1491624 -0.38469407 0.9109122 
0.5604554 -0.6914515 0.45583415 
0.14249456 -0.95153093 0.2725515 
-0.21464345 -0.78124195 0.58616495 
-0.7551714 -0.18542041 0.628757 
-0.68868953 -0.5090283 0.5163303 
-0.79568285 -0.20694937 0.5692635 
-0.7786503 -0.3253716 -0.5365045 
-0.028067432 -0.47853544 -0.87761956 
0.45470497 -0.76796407 -0.45108175 
0.59741235 -0.4839588 -0.6394392 
0.7395999 -0.6391004 -0.21105172 
0.24452823 -0.9685971 0.045006197 
0.3093084 -0.65080035 -0.6933883 
0.49323142 -0.63862234 -0.5906644 
0.8036654 -0.481437 -0.34977216 
0.39933422 -0.88212776 0.24976556 
0.59230477 -0.80185795 0.078733675 
0.4989194 -0.86556584 -0.043305762 
-0.32095817 -0.6666042 0.67277396 
0.21183778 -0.5879874 -0.7806379 
-0.36522773 -0.8524775 0.3740198 
-0.4462195 -0.4545286 -0.77090335 
0.11465771 -0.48062944 -0.8693958 
-0.33207428 -0.82780784 -0.45217344 
-0.4184634 -0.595836 -0.6854692 
-0.3951558 -0.7673512 -0.504999 
-0.92457235 -0.18929894 -0.3306539 
-0.89118344 0.10046858 -0.44237807 
-0.2908736 -0.28441978 -0.9135086 
-0.088721484 -0.4431578 -0.8920424 
-0.17390198 0.23020232 -0.95747846 
-0.44490772 0.1260434 -0.8866624 
0.34658659 0.5081643 0.7884459 
0.19546108 -0.32734752 0.9244666 
-0.8996638 0.24125892 0.363867 
-0.83880717 0.2967828 -0.4564237 
-0.5772529 0.13339524 -0.805596 
0.0041724844 -0.55897576 -0.8291735 
-0.44494787 -0.2675639 -0.8546526 
-0.3504743 0.163117 -0.92225844 
-0.40270793 0.43806776 -0.8036934 
0.017890517 0.11272072 -0.9934657 
0.0096486425 -0.48891097 -0.8722803 
-0.19980551 -0.4054661 -0.8920063 
0.18764299 -0.14994669 -0.9707246 
-0.58935535 -0.7155425 -0.3750458 
-0.38870966 -0.77653927 -0.49587455 
-0.37373003 -0.46525818 -0.8024093 
-0.5203338 -0.7551361 -0.39877594 
-0.46788275 -0.8191639 -0.33174726 
-0.7307403 -0.18648651 -0.6566898 
0.15931782 -0.8952684 -0.41606766 
-0.65879893 -0.43556896 -0.6134034 
0.05653992 -0.366232 -0.9288043 
0.3846539 -0.5523041 -0.73959565 
-0.4501238 -0.3427895 -0.8245508 
-0.30239198 -0.6334368 -0.7122619 
0.48801073 -0.61902493 -0.61534846 
-0.43334037 -0.8220434 -0.3694061 
-0.11578916 -0.68613845 -0.7181971 
-0.21788643 -0.96136916 0.16821115 
-0.05410653 -0.78958696 -0.6112487 
0.568441 -0.6110472 -0.5509049 
0.12786134 -0.5935628 -0.79456586 
0.29688618 -0.86879313 -0.3963043 
0.35321686 -0.9004703 -0.25375417 
0.25325477 -0.9517808 0.17313415 
0.6831264 -0.6864492 -0.24925068 
0.4269865 -0.79993373 -0.42164984 
-0.061452787 -0.8335603 0.5489999 
-0.62568325 -0.6420833 -0.44300076 
-0.15339716 -0.8383613 -0.52308685 
-0.1355469 -0.56529474 -0.81367624 
-0.33824 -0.6075838 -0.71863455 
-0.5449863 -0.3269898 -0.77205426 
-0.8322564 0.048351973 -0.5522784 
-0.73600423 -0.36673293 -0.5690385 
0.25084388 -0.70472133 -0.6636605 
0.06005706 -0.6824264 -0.72848296 
0.13007137 -0.44434407 -0.8863632 
0.22758459 -0.39206877 -0.8913402 
-0.50342345 -0.14429386 -0.8519061 
0.16949682 -0.59956795 -0.7821696 
0.4140653 -0.58087975 -0.7008058 
0.40746176 -0.7024906 -0.5835084 
-0.04791836 -0.9759836 0.2125087 
-0.42138866 -0.8772432 0.22994795 
-0.16909555 -0.792745 0.58562964 
0.5559495 -0.061544985 -0.8289345 
0.64577764 -0.61953133 -0.4462648 
0.7796465 -0.45172462 -0.43370056 
0.58108974 0.046194624 -0.81252736 
0.623228 -0.6750056 -0.39491048 
-0.717879 -0.40087494 0.5691653 
-0.9366018 -0.3057041 0.17123696 
-0.64676493 -0.30297673 -0.69992876 
-0.3046492 -0.80276483 -0.5125989 
-0.13989086 -0.8769461 -0.45977828 
0.49475923 -0.72941595 -0.47240415 
0.8110653 -0.058177974 -0.58205533 
0.6659689 -0.7354059 -0.12515435 
0.2882109 -0.9399659 0.1827532 
0.24779284 -0.94985855 -0.19070253 
-0.7177367 -0.5582105 -0.41623932 
-0.083204485 -0.5646714 -0.82111096 
-0.074807696 -0.09711234 -0.9924581 
0.13016418 0.015950972 -0.99136424 
0.92712516 0.13488452 -0.34963575 
0.325411 -0.9273836 0.18457349 
0.3850878 -0.7616381 -0.52116674 
0.23330364 -0.58962524 -0.77324736 
0.751392 -0.65883344 -0.036722396 
0.76058316 -0.5830176 0.285664 
0.4199765 -0.8846417 0.20255563 
0.061026342 -0.9969778 0.048074625 
-0.31966636 -0.33881918 -0.88488144 
-0.32711545 -0.9414871 0.081226066 
0.05774075 -0.94304764 -0.3276086 
-0.0075698206 -0.9218803 -0.38740113 
0.12178183 -0.7243792 -0.6785603 
-0.58103114 -0.73081636 -0.35820422 
0.4706428 -0.86733484 -0.16194354 
0.18280481 -0.47843742 -0.858883 
0.18888973 -0.8023189 -0.56622016 
-0.5087248 -0.5822867 -0.6341461 
0.4390049 -0.42520896 -0.7914999 
0.47789603 0.14174466 -0.86690474 
-0.21524481 0.3280147 -0.91982394 
0.18648382 0.9637859 -0.1906318 
-0.20766236 0.6568564 -0.72485596 
-0.5675674 0.29406264 -0.7690217 
0.46279696 -0.21447422 -0.8601278 
0.62845415 -0.43630177 -0.6439613 
0.5318831 -0.32535502 -0.78182125 
0.29090056 -0.5055649 -0.812269 
0.020067228 -0.4225045 -0.9061388 
0.7410432 -0.035365287 -0.6705254 
0.09584172 -0.27239734 -0.95739967 
0.35870248 -0.07850714 -0.9301447 
0.5593263 -0.4459918 -0.6987456 
0.732935 -0.4154056 -0.53874344 
0.85518694 -0.099958725 -0.50858974 
0.6262843 -0.67275196 -0.39391977 
0.60594684 -0.6196311 -0.49888462 
0.5933548 -0.2205709 -0.77413094 
-0.43512347 -0.9003118 0.010310732 
-0.7470146 -0.6047309 -0.27616993 
-0.38472894 0.385449 -0.8386971 
-0.6408934 0.5994777 -0.47946033 
-0.42688888 -0.4656118 -0.7752236 
-0.121037446 -0.003374413 -0.9926423 
0.64999664 0.11185538 -0.75166005 
0.62526715 -0.59093916 -0.50973725 
0.665001 -0.63389874 -0.3949001 
0.66132236 -0.5810764 -0.47434488 
0.7171257 -0.51864946 0.46554646 
0.5388047 -0.8188703 0.19784121 
-0.5958012 -0.80242264 -0.033747066 
-0.72895736 -0.27685902 0.6260753 
-0.9455231 -0.31860718 -0.06690081 
-0.81370115 -0.5457241 0.2001891 
-0.8324018 -0.5365071 -0.13880733 
-0.6620843 -0.46000934 -0.59163827 
0.2316244 -0.7005974 -0.6749174 
-0.11705619 -0.6189815 -0.7766337 
0.0049349596 -0.94252354 -0.33410323 
0.37624088 -0.84558624 -0.37871724 
-0.07747191 -0.99379104 0.07985885 
-0.26864636 -0.83786947 -0.47518846 
-0.67910546 -0.6943828 -0.23800924 
0.2653015 -0.5679867 -0.779106 
-0.70825684 -0.63851035 -0.3011261 
-0.009454659 -0.6035638 -0.7972586 
-0.5443016 -0.07067643 -0.83590704 
-0.7753056 0.30443454 -0.5533724 
0.029901547 -0.36201715 -0.93169177 
-0.17119326 -0.70313257 -0.6901431 
0.06311916 -0.5551743 -0.82933563 
-0.41848162 -0.03324732 -0.90761656 
0.22670633 0.09583201 -0.9692371 
-0.08674712 -0.8385843 -0.537821 
0.48644936 -0.5370448 -0.6891661 
0.104520924 -0.36304072 -0.92589253 
0.43417528 -0.83756566 -0.3316259 
0.1624664 -0.8522156 -0.49732617 
0.27368712 -0.43339393 -0.85864145 
-0.4076025 -0.18686749 -0.8938349 
-0.46854794 0.4147949 -0.7800051 
-0.6584994 -0.17659128 -0.73156965 
-0.48278588 -0.45907113 -0.74576914 
-0.30399728 -0.6345555 -0.71058077 
-0.4381915 -0.6843318 -0.58281934 
-0.06603751 -0.3358971 -0.9395809 
-0.35220236 -0.6316777 -0.6906061 
-0.07157006 -0.07150206 -0.99486953 
-0.46528265 -0.78154063 -0.41557953 
-0.30122945 -0.6881783 -0.66005415 
-0.038943104 -0.83032167 -0.55592203 
-0.516518 -0.85613126 -0.015767269 
-0.19497815 -0.90600115 -0.37569365 
-0.2174765 -0.55814385 -0.8007369 
-0.8538029 -0.29861763 -0.42643672 
-0.87439066 -0.4587076 -0.15820363 
-0.8487431 -0.25433505 -0.46362585 
-0.44717097 0.45764333 -0.7685056 
-0.09029351 -0.56519926 -0.81999815 
0.0011530343 -0.5687127 -0.8225354 
-0.042978995 0.37185207 -0.9272965 
-0.7039243 0.15101267 -0.6940359 
-0.6555742 -0.39077702 -0.6461546 
-0.18683204 -0.8714308 -0.45354417 
-0.3484277 -0.01188305 -0.9372604 
-0.123362966 -0.086033456 -0.9886253 
-0.14113858 0.23469229 -0.961769 
0.8481318 0.071331754 -0.5249613 
0.53044736 0.017414244 -0.847539 
0.51111335 -0.75064635 -0.4186805 
-0.18943577 -0.84949255 -0.4924191 
-0.1817773 -0.43745574 -0.8806756 
0.43736795 0.5612 -0.7026833 
0.5326799 -0.094538964 -0.8410199 
0.6577451 -0.7175719 -0.22904591 
-0.18507361 -0.76356936 -0.6186353 
0.23477826 -0.9455849 -0.22527426 
-0.33891204 -0.6030266 -0.7221479 
0.8230781 -0.09243481 -0.5603556 
0.84580153 0.10974858 -0.5220873 
0.59045815 0.48205656 -0.64728713 
0.7665281 0.54243237 -0.34380472 
0.23502243 0.28745878 -0.9285106 
-0.14455664 0.45782623 -0.87721074 
-0.37795752 -0.058853284 -0.9239505 
-0.8456976 0.009255587 -0.53358227 
-0.1326722 -0.4680172 -0.87370366 
-0.24895552 -0.16051538 -0.9551209 
-0.39058152 0.22711103 -0.8921137 
0.06879499 0.35751003 -0.93137205 
0.43570286 -0.2732851 -0.8576004 
0.68022645 0.4416043 -0.58504504 
0.3858101 -0.66745317 -0.6369119 
0.06829943 -0.67749554 -0.732349 
-0.23752671 -0.26736587 -0.9338612 
0.14488634 -0.39790314 -0.90591455 
-0.21629108 -0.6442206 -0.7336198 
-0.003875926 -0.31887397 -0.9477892 
0.7718003 -0.3769898 -0.5120578 
0.9854066 -0.13784134 -0.099868335 
0.45352826 -0.89099365 0.02103393 
-0.21990378 -0.95805675 -0.18376558 
0.50934565 -0.85711545 -0.076942965 
0.28053033 -0.9597804 -0.011153934 
-0.54661846 -0.7902925 -0.2768503 
-0.1749967 -0.1353031 -0.97522783 
-0.20944822 -0.47769752 -0.85319203 
0.24007474 -0.969835 0.04224103 
0.5312881 -0.8463806 -0.037051283 
0.8531545 -0.5206392 0.0325938 
0.1934454 -0.70068884 0.6867416 
0.16952907 -0.8271933 0.5357342 
-0.31125158 -0.25193763 0.9163242 
-0.18948986 -0.8335233 0.5189727 
-0.77640116 -0.36976612 -0.5103669 
-0.34538242 -0.03149417 -0.9379334 
-0.5110764 -0.0706519 -0.85662675 
-0.14893004 -0.28826737 -0.9458974 
-0.02310435 -0.24197645 -0.970007 
-0.5449045 -0.66298515 -0.51335174 
0.8256458 -0.15640472 -0.54207623 
0.5535736 -0.6247863 -0.5506345 
0.6429155 -0.47702238 -0.59925735 
0.27028492 -0.67666423 -0.68488806 
-0.10569867 -0.39306805 -0.9134141 
-0.11129279 -0.26019397 -0.9591209 
0.62925714 -0.45419133 -0.6306709 
0.41060787 -0.90407795 0.11850894 
0.015040378 -0.69983155 -0.71414965 
0.50562936 -0.6360257 -0.5829325 
-0.122208476 0.4324679 -0.8933289 
0.13699621 -0.0036559906 -0.9905648 
0.010078688 -0.46522307 -0.8851362 
-0.30508202 0.31343457 -0.89926845 
-0.26972193 -0.20827807 -0.9401438 
-0.35276154 -0.5449783 -0.76062995 
-0.749584 -0.13424622 -0.64815265 
-0.48302543 0.16675115 -0.85958165 
-0.28300372 -0.5820637 -0.7623062 
0.21191631 0.18802424 -0.9590299 
-0.5793546 -0.03317896 -0.81440014 
-0.1384271 -0.32856855 0.9342809 
0.41276208 -0.3721266 0.83135384 
-0.8807245 -0.4598303 -0.113492 
-0.75745416 -0.59905696 -0.25960344 
-0.8037748 0.4944126 -0.33091155 
-0.50631493 0.8056337 -0.3075703 
-0.7163091 -0.2193695 -0.66240346 
0.09568646 -0.13418555 -0.98632574 
0.39961508 0.8794436 -0.2586251 
-0.09126776 -0.37301213 -0.9233267 
0.057801444 -0.45778352 -0.8871828 
-0.14832042 -0.37757748 -0.9140221 
-0.26589894 0.38588023 -0.88339925 
-0.5912042 0.28954342 -0.7527564 
-0.5670244 0.100358464 -0.8175645 
-0.5236181 0.502852 -0.6877238 
-0.3724597 -0.039253123 -0.9272179 
0.39962944 0.016056413 -0.9165362 
-0.22119999 -0.46870655 -0.8552103 
0.2615209 -0.49889135 -0.8262652 
-0.9230636 0.06827991 -0.37853876 
-0.35423872 0.073971234 -0.93222487 
-0.34916762 -0.27839538 -0.89475036 
-0.37381136 -0.3924374 -0.8403916 
0.0925814 -0.38574547 -0.9179483 
-0.3869699 -0.4603987 -0.7989289 
-0.36933026 -0.62184346 -0.69058377 
-0.47798285 -0.35920486 -0.8015637 
-0.05995277 -0.6193921 -0.7827894 
0.3231714 -0.385737 -0.86415696 
0.32292074 0.22286466 -0.9198118 
0.5166318 0.042162403 -0.855169 
0.5978705 0.088475354 -0.7966951 
0.4898449 0.19162233 -0.85048985 
0.33979705 -0.060780305 -0.93853277 
0.6791778 -0.5530832 -0.48251075 
0.105036706 -0.24915716 -0.9627503 
-0.26529577 -0.6648601 -0.6982688 
-0.6733354 -0.6548529 -0.34320134 
-0.2234561 -0.8341325 -0.5042722 
-0.76930296 -0.15137027 -0.62069315 
-0.5649017 -0.34494895 -0.74959743 
-0.5519641 -0.1290984 -0.82381386 
-0.5656668 -0.47827256 -0.67177117 
0.4093036 -0.62472004 -0.66497785 
0.58546805 -0.24517754 -0.7727323 
-0.10674418 -0.08033223 -0.9910361 
-0.10561632 -0.4414232 -0.8910616 
0.28309762 -0.80775636 -0.5170934 
0.27892667 -0.24326241 -0.92899054 
-0.8930543 -0.0888831 -0.4410827 
-0.23973411 -0.059508402 -0.9690131 
0.4553076 -0.31733406 -0.8318618 
0.19617727 -0.87756133 -0.43749362 
0.15873994 -0.17098743 -0.97240174 
-0.39157525 -0.08790865 -0.9159372 
0.33285874 -0.35614887 -0.8731341 
0.260634 -0.681093 -0.68423855 
0.65925354 -0.48855856 -0.57157266 
0.96864015 0.107102945 -0.2241992 
0.7190757 -0.29138806 -0.6308908 
0.45769733 -0.83752 -0.2984517 
0.4189756 -0.8678213 -0.26710638 
-0.23693512 -0.9493465 0.20640492 
-0.47137254 -0.74518687 -0.47170383 
0.056388553 -0.85636675 -0.51328003 
-0.3950411 -0.7888315 -0.47083703 
-0.025982227 -0.25942984 -0.9654125 
0.36583006 -0.64644885 -0.66953146 
0.72402877 -0.6836368 0.091777384 
0.54308087 -0.51816165 -0.6607358 
-0.23006602 -0.870988 -0.4341076 
-0.1475725 -0.6263776 -0.7654237 
0.22893971 0.31890836 -0.91971964 
0.045897294 -0.51108897 -0.8583016 
0.5317113 -0.77394503 -0.3439365 
0.48706433 -0.79265726 -0.36669186 
0.6379834 -0.49719784 -0.5880234 
0.05012258 -0.9796831 -0.19418773 
0.5749748 -0.7643135 -0.29193988 
0.50446725 -0.85917723 -0.08560028 
0.5966061 -0.78515095 -0.16613056 
0.2536011 -0.54674447 -0.79797053 
-0.024208058 -0.6998927 -0.7138376 
-0.3103547 -0.9464491 -0.088961095 
0.4117898 -0.45046493 -0.79215556 
0.10902738 -0.99282265 -0.049155135 
0.11051686 -0.9070678 -0.40621927 
0.7103604 -0.67088515 -0.21284093 
0.34549767 -0.9358765 0.069041245 
-0.33387873 -0.27386096 -0.9019564 
0.5129175 -0.008265 -0.8583982 
0.18998012 0.07576533 -0.97886014 
0.33380413 0.051509738 -0.94123405 
0.6594284 0.5675609 -0.49297953 
-0.27361357 0.6784411 -0.68180156 
-0.6328185 0.454618 -0.6267881 
-0.46749803 0.85429865 -0.2271995 
-0.50256366 0.6337855 -0.5880015 
0.20543079 0.048763447 -0.97745603 
-0.08850882 0.23138735 -0.9688272 
0.050137304 0.20944089 -0.9765351 
0.25032976 -0.36414072 -0.8970712 
0.2176441 -0.3398449 -0.9149517 
0.7374472 -0.4165627 -0.53164583 
0.5432655 0.028787505 -0.8390672 
0.57847244 -0.6281578 -0.5203725 
0.9118116 -0.3264371 -0.2490753 
0.20679821 -0.4378583 -0.87493694 
0.6908855 -0.33993515 -0.6380606 
0.5983162 0.30052942 -0.742765 
0.48459116 0.0020757797 -0.8747383 
0.6159708 -0.23330815 -0.7524277 
0.14588478 -0.73770255 -0.65917575 
-0.8791898 -0.10502837 -0.46475187 
-0.17880592 0.02744496 -0.98350155 
0.6466849 -0.5341543 -0.5444978 
0.043686546 -0.45536748 -0.8892311 
0.30451965 -0.35908374 -0.88222826 
0.4283976 -0.15328518 -0.8904938 
0.6843714 -0.4718564 -0.55586636 
0.2192751 -0.96174324 -0.16422084 
0.70617855 -0.54035425 -0.457525 
0.36603808 -0.624627 -0.6898241 
0.11229946 -0.9891117 0.09511469 
-0.6874291 -0.62774473 -0.3652093 
-0.62956196 -0.5813199 0.51547927 
-0.86830217 -0.3675137 0.3331445 
-0.66667694 -0.7274984 -0.16213581 
-0.251816 -0.70817804 -0.6596003 
-0.66928506 -0.29757756 -0.6808122 
-0.4566329 -0.83929574 -0.29507464 
-0.07402822 -0.494812 -0.86584115 
-0.08421854 -0.9498803 -0.30105624 
-0.2993672 -0.69340146 -0.6554188 
0.035379954 -0.9733133 -0.226737 
-0.12281038 -0.39469215 -0.910569 
-0.91078943 -0.08004081 -0.40503848 
-0.47233555 -0.6626121 -0.5812439 
-0.75353277 -0.41796777 -0.5074361 
-0.53130686 -0.7381531 -0.41574407 
-0.2768815 -0.7707178 -0.57387346 
-0.56275904 -0.6388186 -0.52460754 
-0.63638633 -0.1611913 -0.7543407 
-0.3761062 -0.33131498 -0.8653176 
-0.2887811 -0.77557594 -0.56132656 
-0.0003135854 -0.5615224 -0.8274614 
-0.72431916 0.31739417 -0.6120643 
-0.53620595 -0.2341096 -0.8109723 
0.4558587 0.27697596 -0.8458588 
0.23331606 0.19037327 -0.9535836 
0.5440589 -0.49557787 -0.6770543 
0.4679436 -0.68295443 -0.560894 
-0.26883987 -0.9404742 -0.20792677 
-0.17413402 -0.9662946 -0.18961066 
-0.6979299 0.06304789 -0.7133855 
-0.7654849 0.5099958 -0.39234808 
-0.42809612 0.02909178 -0.90326494 
-0.78835523 -0.16784255 -0.59188247 
-0.52450705 -0.64544684 -0.5552393 
-0.18089285 -0.02559125 -0.9831698 
0.08380436 -0.35898095 -0.9295749 
-0.33300805 -0.6817076 -0.6514449 
-0.2980065 -0.83025324 -0.47103256 
0.28354573 -0.87359434 -0.39551836 
0.1481658 -0.98458683 -0.09292797 
-0.73854554 -0.22978067 -0.63383865 
-0.70576537 -0.09578177 -0.70194095 
0.28877002 0.0069651618 -0.95737314 
0.19321471 -0.569235 -0.7991493 
-0.76997334 -0.10929348 -0.6286463 
-0.76217514 0.1606666 -0.62711674 
-0.2290964 -0.0415047 -0.97251856 
0.2613662 0.036433093 -0.9645519 
0.1435423 -0.2924205 -0.9454554 
-0.10288629 -0.76633275 -0.6341519 
0.12075575 -0.19727357 -0.972883 
-0.14904502 -0.77307665 -0.61655354 
0.24979937 -0.26960108 -0.93000835 
-0.36888546 -0.47802356 -0.7971306 
0.39512622 -0.74476576 -0.5377725 
0.26048017 -0.1330222 -0.9562715 
0.5610133 0.6279093 -0.53943866 
0.20174074 0.55746305 -0.80531704 
0.64053774 -0.53119284 -0.554568 
0.10250203 -0.7334443 -0.6719768 
0.055350076 -0.36486414 -0.9294141 
0.6195541 -0.00203283 -0.7849513 
0.7335721 -0.13217801 -0.6666341 
0.28199556 -0.68143165 -0.67537355 
0.115091704 -0.45912457 -0.88088506 
-0.019462492 -0.27983847 -0.95984983 
-0.029565327 0.11390839 -0.99305123 
0.69326 0.050703842 -0.7189018 
0.49717104 -0.3056604 -0.8120301 
0.6796208 0.0065407045 -0.73353446 
0.7634 -0.087790325 -0.6399324 
0.6939819 -0.29797658 -0.6554381 
0.8651221 0.29033703 -0.40898445 
-0.13293666 0.153233 -0.9792076 
-0.43837124 -0.56250197 -0.7010151 
-0.7235586 -0.12920158 -0.6780634 
-0.392025 -0.01570623 -0.9198206 
-0.61256087 -0.22552198 -0.75756794 
0.29908627 0.41063732 -0.8613504 
0.36691114 0.38769236 -0.8456186 
0.88972235 0.0084438855 -0.45642394 
0.4350445 -0.83871305 -0.32756203 
0.2840081 -0.50415576 -0.8155774 
0.20136009 -0.27048615 -0.9414305 
0.31720552 -0.6892274 -0.6514187 
-0.49468204 0.26163343 -0.8287568 
0.4103005 0.69424784 -0.591332 
0.7124221 -0.065299615 -0.69870657 
0.5862618 -0.35740864 -0.7270187 
0.6054495 -0.33701506 -0.7210075 
0.024879498 -0.8406123 -0.5410657 
0.50907075 -0.55304694 -0.6595348 
0.02937826 -0.8054887 -0.5918825 
0.17156094 -0.47063795 -0.8654865 
-0.43728602 -0.46161792 -0.7718095 
-0.3070555 -0.5258201 -0.79324037 
0.43946484 -0.8434289 -0.30902833 
0.21209374 -0.5423244 -0.8129579 
0.73635083 -0.41974756 -0.5306595 
0.6346802 -0.5457599 0.54710805 
-0.29018226 -0.90256166 0.3180829 
-0.5527107 -0.7105662 0.43543848 
-0.2792988 -0.9595026 0.0367035 
-0.65344244 -0.50707734 -0.562037 
-0.43692356 -0.2941335 -0.8500491 
0.24562457 -0.29898202 -0.9221054 
0.5312919 -0.3727951 -0.76075804 
0.095260344 -0.08763808 -0.9915872 
0.22821258 -0.20817453 -0.9510954 
0.27379173 0.19078581 -0.9426765 
0.89765227 0.0447141 -0.43843037 
0.4912695 0.17266576 -0.85372186 
0.4045902 -0.42507967 -0.8097001 
-0.5606795 0.3928826 -0.72889084 
-0.009029513 -0.045454692 -0.9989256 
0.4764142 -0.17873542 -0.86086196 
0.44539407 -0.83233994 -0.3299009 
-0.19669911 -0.6690613 -0.71670526 
-0.002424035 -0.37922838 -0.92529994 
0.55192107 0.7342872 -0.3952285 
0.29074982 0.35432887 -0.88877195 
-0.75283206 -0.049247194 -0.6563678 
-0.9079193 0.010591237 -0.4190113 
-0.8203301 -0.43200094 -0.3747448 
-0.10414992 -0.10687831 -0.98880225 
-0.21727441 -0.16144942 -0.96266603 
-0.365506 0.14700928 -0.9191266 
-0.39108717 -0.52690095 -0.7546033 
0.3339547 -0.09327806 -0.9379625 
0.01193581 0.014661407 -0.99982125 
-0.36995724 -0.8184146 -0.43969232 
-0.54293 -0.824864 -0.15756434 
-0.6339493 -0.55473816 -0.5388635 
-0.9645795 -0.23813985 -0.113471925 
-0.9799596 -0.14317742 -0.13848978 
-0.70229846 0.18708444 -0.6868597 
-0.71424884 -0.32113448 -0.62186927 
-0.24272056 -0.6331255 -0.7350095 
0.00031468176 0.005279203 -0.99998605 
-0.34031624 -0.31301454 -0.886683 
0.535552 0.039939407 -0.84355736 
-0.27990863 -0.5437787 -0.79117376 
-0.34188265 0.1949792 -0.91929287 
-0.4860907 0.061896443 -0.87171376 
-0.656619 0.12735644 -0.74339217 
-0.75213486 0.46620202 -0.46577775 
-0.6458836 0.13789183 -0.75087976 
-0.4665314 0.38402253 -0.7967905 
0.15934938 -0.07639385 -0.98426205 
-0.3868498 0.22792183 -0.8935318 
-0.22831017 -0.96918255 -0.09251866 
-0.6285536 0.4308539 -0.6475225 
-0.75137156 -0.094923824 -0.6530163 
-0.12416205 0.055182863 -0.9907264 
-0.06477075 0.24954876 -0.9661937 
-0.014962959 -0.500567 -0.8655685 
-0.5183073 -0.112382405 -0.8477782 
-0.59893566 -0.65283495 -0.46377015 
0.24409296 -0.57973844 -0.7773814 
0.3068349 -0.009778524 -0.9517126 
-0.5983777 -0.17018627 -0.78293097 
-0.0068064183 -0.08000783 -0.9967711 
-0.49376172 0.41683134 -0.7631849 
-0.4540359 -0.31161532 -0.83471394 
0.21736255 -0.4239772 -0.8792024 
0.42322394 -0.7291356 -0.537813 
-0.4352607 -0.6099435 -0.66220623 
-0.31010327 -0.7151133 -0.62645745 
-0.27488407 -0.63983446 -0.7176703 
-0.053555433 -0.8810043 -0.47006753 
-0.5477401 -0.5992055 -0.58389527 
-0.52695477 -0.3351714 -0.7810114 
-0.5881441 -0.63577443 -0.49987748 
-0.5228298 -0.80303484 -0.2859796 
-0.19131316 -0.70585 -0.6820375 
0.0014719608 -0.8079705 -0.5892212 
0.52885747 -0.72932976 -0.43403676 
0.19128962 -0.5366336 -0.8218471 
-0.4011641 -0.09931799 -0.91060597 
-0.44642398 -0.51195484 -0.7338992 
-0.79918087 -0.5659883 -0.20240381 
-0.3019491 -0.24862666 -0.92033225 
0.6116462 -0.074529216 -0.7876132 
0.81527513 -0.4549798 -0.35821792 
0.5800538 -0.7661873 -0.2765766 
-0.2831573 -0.76126605 -0.5833491 
-0.042848747 -0.45348153 -0.89023507 
0.14574616 -0.72434914 -0.6738519 
0.18998425 -0.39673728 -0.8980565 
0.8336282 -0.3324834 -0.44104308 
0.51121604 -0.37846506 -0.77163625 
0.75228465 -0.64651394 -0.12683709 
0.45851666 -0.66336364 0.5913639 
0.066573486 -0.9383353 -0.33925635 
-0.17791656 -0.82183045 -0.54123986 
-0.13019565 -0.84633255 -0.5164981 
-0.5230658 -0.5832336 -0.6214828 
-0.059027627 -0.116789035 -0.99140114 
-0.20986278 -0.22537842 -0.9514001 
0.08619727 -0.7610706 -0.64291656 
0.3715972 -0.50197726 -0.7809829 
0.44218636 -0.2564666 -0.8594743 
0.4425992 -0.45627412 -0.7719585 
0.27963632 0.08198159 -0.95659953 