# OOMMF: rectangular mesh v1.0
# Segment count: 1
# Begin: Segment
# Begin: Header
# Desc: Time (s) :  6.250000000000012e-07
# Title: m
# meshtype: rectangular
# meshunit: m
# xbase: 2e-09
# ybase: 2e-09
# zbase: 5e-10
# xstepsize: 4e-09
# ystepsize: 4e-09
# zstepsize: 1e-09
# xmin: 0
# ymin: 0
# zmin: 0
# xmax: 1.024e-06
# ymax: 1.024e-06
# zmax: 1e-09
# xnodes: 256
# ynodes: 256
# znodes: 1
# ValueRangeMinMag: 1e-08
# ValueRangeMaxMag: 1
# valueunit: 
# valuemultiplier: 1
# End: Header
# Begin: Data Text
0.62273407 0.33498177 -0.70709944 
0.6780331 0.455576 -0.5768204 
-0.5369495 -0.39542943 -0.7451985 
-0.6598667 0.085179105 -0.746539 
-0.4407369 -0.48968205 -0.7523048 
-0.9235625 -0.35937223 -0.13373111 
-0.7380799 -0.26768956 -0.61933875 
0.14858194 -0.7944143 -0.5889223 
-0.591714 -0.758303 0.27358928 
-0.42324206 -0.86562586 -0.26750317 
-0.106760286 -0.73908705 -0.665096 
0.28636068 -0.7286232 -0.6221784 
0.2665302 -0.91243935 -0.31050938 
-0.15250574 -0.8830342 -0.4438384 
-0.64819086 -0.073566005 0.757916 
-0.80831575 -0.21200562 0.5492534 
-0.60414124 -0.615942 -0.5055975 
-0.36451355 -0.10645199 -0.92509353 
-0.2030424 -0.30704722 -0.92978275 
-0.2382657 -0.34354496 -0.90840876 
0.39931557 -0.47533077 -0.7839692 
0.3456055 -0.8520041 -0.3932503 
0.3465353 -0.08303083 -0.934355 
0.6537841 -0.6170497 -0.43796825 
0.98972714 -0.14215694 -0.0152159305 
0.9271841 -0.34831324 0.13786772 
0.9701417 -0.2151357 0.11198998 
-0.07599638 -0.41722825 0.90561867 
-0.048848096 -0.9959167 -0.07591937 
-0.7119048 -0.60270715 0.36046594 
-0.1445609 -0.8994085 -0.41251245 
-0.40737182 -0.903701 0.13180532 
0.27032506 -0.5946253 -0.75719553 
0.24612343 -0.84821576 -0.46899194 
0.5376389 -0.2542088 -0.8039417 
0.1215203 -0.5182621 -0.8465443 
0.12450033 -0.068462975 -0.98985475 
0.5755898 -0.32865414 -0.74878764 
-0.1818898 -0.15362567 -0.9712442 
0.3752956 -0.41038406 -0.8311066 
-0.2967601 -0.42578736 -0.854774 
0.38176277 -0.3633955 -0.8498241 
-0.24587515 -0.80887926 -0.53409714 
-0.007834221 -0.9977049 0.06725748 
0.77661484 -0.25912428 0.57421595 
0.35474575 -0.27286032 0.89426094 
0.8864373 -0.3725017 0.2747208 
0.7277209 -0.07410652 0.6818582 
0.9352782 -0.057935975 0.3491391 
0.10757381 0.78850985 0.6055412 
-0.5799992 0.24056076 0.77828765 
-0.65489036 -0.24219665 0.71586275 
-0.3179449 -0.9365712 -0.14746392 
-0.42567238 0.032770455 -0.9042839 
-0.3034579 -0.71532094 -0.62946755 
-0.02408523 -0.45679235 -0.88924724 
-0.29637846 -0.11044666 -0.948663 
-0.45378107 -0.7570111 -0.47012463 
-0.6461838 -0.5459969 -0.53322977 
-0.69252545 -0.37829918 -0.6142461 
-0.5078309 -0.79841226 -0.32348967 
0.57107383 -0.4581537 -0.68115336 
0.92866194 -0.23837854 0.28418797 
-0.09090044 -0.26882026 0.9588915 
0.6846068 -0.6056729 0.40555403 
-0.19225547 -0.9210994 -0.33854657 
-0.47700304 -0.4892306 -0.7301518 
0.29789084 -0.36437404 -0.8823223 
-0.078701966 -0.7741152 -0.6281334 
0.20899493 -0.09398526 -0.97338986 
0.70273966 -0.6463099 -0.29738966 
0.7035034 -0.7082533 0.058824897 
-0.16021977 -0.8800102 0.44711488 
-0.5258549 -0.66221714 -0.53380257 
-0.448073 -0.80306035 -0.39284194 
0.1846055 -0.8546056 -0.48535562 
0.30618846 -0.057083983 -0.9502579 
0.07454501 -0.52113235 -0.8502142 
0.109108485 -0.98335314 -0.14529999 
0.8620266 -0.5066821 -0.0135480445 
0.24095246 -0.6860125 0.68653387 
-0.08501177 -0.74274504 0.66415584 
-0.93542624 -0.23333243 0.26558188 
-0.8756198 -0.23395176 0.42255944 
-0.7177896 -0.46380222 -0.5192934 
-0.6061265 0.1449402 -0.78205055 
-0.6134187 -0.28511852 -0.7364951 
-0.9083537 0.41536218 0.04865975 
-0.5359599 0.59106356 -0.6028191 
-0.3988126 0.021690376 -0.9167759 
-0.0796543 -0.41455054 -0.90653366 
0.5246255 -0.8321095 -0.17989436 
-0.053998947 -0.9624007 -0.2662127 
0.26704186 -0.5351958 -0.8014077 
-0.16380359 -0.6327765 -0.7568107 
0.029165942 -0.64179575 -0.76632077 
0.4795678 -0.66923136 -0.56757754 
-0.20295136 -0.6486904 -0.73349273 
0.3565394 -0.8173532 -0.45256326 
0.25325587 -0.9207536 -0.29677323 
0.13600618 -0.09776754 -0.98587215 
-0.19932938 -0.9257223 -0.32141277 
0.5024082 -0.3726064 -0.7802246 
-0.49829876 -0.6589095 -0.5635039 
-0.74111706 -0.61401415 -0.27153683 
-0.20755383 0.43667364 -0.87534994 
-0.40240043 0.7694123 -0.49606314 
-0.3990622 -0.08419184 -0.9130504 
-0.6009245 -0.40012392 -0.69194704 
-0.6876789 -0.3290111 -0.6471859 
-0.96044064 -0.038090073 -0.27586767 
-0.0011428654 -0.48187166 -0.8762411 
0.42241177 -0.2743501 -0.8638867 
0.9546442 0.29649055 -0.027346075 
0.8641588 0.25154394 -0.43583873 
0.6486674 0.63635576 0.41747087 
0.63152784 -0.18586779 -0.75274545 
0.93088883 -0.27166224 0.2442247 
0.45603853 0.26385796 -0.8499458 
0.4760333 -0.59443325 -0.64810616 
0.4674923 -0.096409656 -0.8787242 
0.14005916 -0.31387994 -0.9390756 
0.28948987 0.44467157 -0.84762186 
-0.4636495 0.12666036 -0.8769186 
-0.48860705 -0.28108487 -0.825987 
-0.20048572 -0.8001286 0.5653315 
-0.48340592 -0.5364192 -0.69178987 
-0.60388535 -0.4584772 -0.65201324 
-0.23286246 0.011276722 -0.9724443 
-0.3849212 -0.2875116 -0.87702495 
-0.53287804 -0.09389315 -0.8409669 
-0.4970716 -0.3235717 -0.80512184 
-0.49831548 -0.8668162 -0.017650751 
0.08776933 -0.9712256 -0.2213986 
0.38871703 -0.9030975 -0.18252128 
-0.1541745 -0.9803535 0.12303356 
0.041534875 -0.96315956 0.2657039 
0.9686625 -0.18505633 -0.16567214 
0.8824411 0.027617604 -0.46961153 
0.5686769 -0.8216787 -0.038089804 
0.19962879 -0.6715967 -0.71351683 
0.42474064 -0.90153265 -0.08266931 
0.42780226 -0.7288445 -0.53457546 
0.120404966 -0.940578 0.31751493 
-0.45579022 -0.886204 0.08305197 
0.20201728 -0.939069 -0.27809787 
-0.10311305 -0.94953185 -0.2962383 
-0.08019324 0.07796747 -0.99372536 
0.012186971 -0.22993957 -0.9731286 
-0.105058156 -0.7840005 -0.61180544 
-0.11377996 -0.36125964 -0.9254976 
-0.17055357 -0.7363221 -0.6547834 
0.49917528 -0.30253968 -0.81196904 
-0.12358077 -0.6437433 -0.75519705 
0.4237438 -0.738972 -0.52379537 
-0.14431904 -0.97487795 0.16966173 
-0.7037953 -0.54964423 -0.4500704 
-0.4168747 -0.6441979 -0.6412681 
-0.6886696 -0.5944858 -0.41511548 
0.06818309 -0.3156198 -0.94643295 
0.5606868 -0.73007196 0.39067274 
0.6608369 -0.704839 0.25786945 
0.46826896 -0.6675686 -0.57885784 
0.5307821 -0.7845938 -0.32044184 
0.043364424 -0.8410839 0.53916365 
0.5062717 -0.4166489 0.75504476 
0.2222639 0.012431479 0.9749073 
0.4377607 -0.34028804 0.83220774 
-0.042179286 -0.99907774 0.008043025 
-0.3734341 -0.8250065 -0.4241596 
0.08897072 -0.89242715 0.4423325 
-0.22653818 -0.9707631 0.07937058 
0.2968951 -0.80244976 -0.5176175 
0.29430643 -0.89892775 -0.3245193 
-0.16098323 -0.852773 -0.49685264 
0.15165016 -0.9877174 0.037638985 
0.24157746 -0.15214515 0.95838 
0.66836715 0.082066044 0.7392906 
-0.06100393 -0.9060319 0.41878983 
-0.01981598 0.09647847 0.9951379 
0.26265323 -0.86980397 0.41767746 
-0.48615143 -0.79846185 -0.35512733 
-0.38620147 -0.8471199 -0.36501548 
-0.48298576 -0.08134101 -0.871842 
-0.50678533 -0.7213761 -0.47200128 
-0.20762664 -0.6035309 -0.76983225 
0.33200902 -0.7379676 -0.587515 
-0.06807094 -0.7339788 -0.6757526 
-0.117992066 -0.57093614 -0.81247145 
-0.45858172 -0.408426 -0.7892345 
0.6201545 -0.30576935 -0.72243583 
0.73036087 -0.21855958 -0.64715135 
0.2967927 -0.9184165 -0.2615825 
0.86817163 -0.43701088 -0.23515826 
0.6663122 -0.5848886 0.4625293 
0.5095513 -0.85974973 0.03446659 
0.35975632 -0.79322827 0.49128863 
-0.015876709 -0.99873066 0.047802657 
-0.52550644 -0.7566758 -0.38895345 
-0.07076006 -0.99706244 -0.029317016 
0.66910887 -0.7061326 0.23166823 
0.23520146 -0.8568986 0.45869938 
0.63736045 -0.7298858 0.24705958 
-0.25872332 -0.96588033 -0.01172287 
-0.5769289 -0.81673366 -0.009960331 
-0.4287866 -0.44760686 -0.784723 
0.16045164 -0.8561573 -0.491172 
0.36451986 -0.77459705 -0.5168411 
0.5079195 -0.4983039 -0.7026458 
-0.5473602 -0.80624926 -0.22440831 
-0.27415103 -0.96168673 -0.00022293926 
0.5345494 -0.8249728 0.18351273 
0.87375814 -0.41392088 0.25537473 
0.96899176 -0.04738268 -0.24250744 
0.33620772 -0.88819695 -0.3131621 
0.057697657 -0.9736263 -0.22073226 
0.39131626 -0.6995943 -0.5978623 
0.42187268 -0.8514887 -0.3114329 
-0.27814814 -0.95964664 -0.041376382 
0.064823166 -0.96651477 -0.24828848 
0.3810323 -0.8168059 0.4331774 
-0.6503992 -0.7577023 -0.053553764 
-0.8665215 -0.49459717 0.06718854 
0.020877963 -0.9589085 -0.2829466 
0.58414346 -0.80853426 0.071055226 
-0.013468231 -0.70319295 0.7108716 
-0.4172812 -0.12793806 0.8997268 
-0.40084857 -0.64183724 0.653732 
-0.92731136 -0.053829495 0.37039986 
-0.6506728 -0.31446534 -0.6911848 
-0.91668254 0.013417193 -0.39939106 
-0.59764755 -0.44423646 -0.6674365 
-0.67193913 -0.54335785 -0.50324965 
-0.8727492 -0.036390286 -0.48681074 
-0.34776193 -0.64696914 -0.67859614 
-0.5055953 -0.7682604 -0.39261848 
-0.9970898 -0.069943845 -0.030330382 
-0.5908131 -0.44339454 -0.6740484 
0.38062957 -0.8938263 -0.23705651 
0.109345496 0.19374353 -0.97493947 
0.22648896 0.15764588 -0.9611715 
0.40532473 -0.7536398 -0.5174349 
-0.4409966 -0.416092 -0.7952293 
-0.38169584 0.21488601 -0.89896184 
-0.14240612 -0.3810555 -0.9135192 
0.47888616 -0.52755463 -0.7016796 
-0.27315044 -0.8119461 -0.5158802 
0.04560873 -0.42812705 -0.90256697 
-0.1112496 -0.8847892 -0.45251697 
-0.19169094 -0.848892 -0.49258205 
-0.7518618 -0.338916 -0.56554383 
-0.23788586 0.48516196 -0.84144413 
0.43214867 0.21324377 -0.87622756 
-0.3609299 -0.13436158 -0.9228633 
0.29224682 0.3831845 -0.87622005 
-0.044022515 -0.54785246 -0.83541584 
-0.88512087 0.27590168 -0.37475246 
-0.51172024 0.32067585 -0.79706305 
-0.2853957 0.24900292 -0.92549825 
-0.83045757 0.35832033 -0.4265524 
-0.4376153 0.43695936 -0.78584945 
-0.39642635 0.5392655 -0.74299324 
-0.51932186 0.28994566 -0.80388826 
-0.60418797 0.036176648 -0.7960203 
0.24007653 -0.6386335 -0.73110235 
0.086527005 -0.65805405 -0.7479826 
0.42832577 0.27088574 -0.8620661 
0.6043508 -0.2347437 -0.7613511 
0.06221619 -0.9622002 -0.26514122 
-0.011818127 -0.9106016 -0.4131162 
0.03971551 -0.9991959 0.005515745 
0.4145096 -0.82476133 0.38464367 
-0.3663445 -0.6063248 -0.7058059 
0.08938232 -0.28304204 -0.9549335 
0.046686646 -0.6318662 -0.77367014 
0.53523207 -0.6908973 -0.4859914 
-0.257823 0.054021195 -0.96468085 
0.12914944 -0.6154276 -0.7775406 
0.1846897 -0.47996518 -0.85762644 
0.5231067 -0.2302717 -0.82056963 
0.60932523 0.40145454 0.6837815 
0.8383914 0.5271311 0.13868216 
0.7030692 -0.02260108 0.7107622 
-0.007415077 -0.79577464 0.6055475 
0.3850938 -0.9226973 -0.018233297 
0.030671787 -0.9974503 0.0644387 
0.35382888 -0.9151002 0.1933824 
-0.7873356 -0.6165068 0.0046966895 
-0.12852383 -0.54295635 -0.82986754 
0.027578857 -0.8884956 -0.45805562 
-0.04551426 -0.3726601 -0.9268511 
-0.025238508 -0.33826038 -0.9407141 
0.21691285 -0.16666962 -0.9618576 
0.6440006 -0.3988952 -0.6527986 
0.6076113 -0.56478316 -0.5584161 
0.8420032 0.34323326 -0.4161988 
0.22219825 -0.3535233 -0.9086524 
-0.07218771 -0.6390409 -0.7657778 
0.07914113 -0.6395713 -0.7646471 
-0.021052092 -0.99941194 -0.02706865 
0.10943606 -0.99278414 0.049024533 
0.7939199 -0.4581837 0.3996986 
0.70413005 -0.5774288 0.41325173 
0.5619361 -0.2277098 0.79522085 
0.48374495 -0.68671054 0.5426043 
0.13712461 -0.14333658 0.98012835 
-0.32692352 0.36558586 0.8714746 
-0.0025218942 -0.60702366 0.7946798 
-0.7227949 -0.6741388 -0.15200132 
-0.18849652 -0.312024 -0.93118745 
-0.5020174 -0.41899663 -0.75658476 
-0.6648495 -0.18365832 -0.7240475 
-0.20818907 0.1548612 -0.9657512 
0.2861631 -0.69920695 -0.6551491 
-0.5909381 -0.2451671 -0.76856065 
0.28333265 -0.77066976 -0.57078093 
-0.37443706 -0.45563924 -0.8075827 
0.59027314 -0.77335876 -0.23128743 
0.91904503 -0.29558122 0.26074538 
0.38748595 -0.60347337 0.69690365 
0.25936723 -0.9622352 0.08265648 
0.39189854 -0.7390457 -0.5479299 
0.59172195 -0.72985095 -0.3423197 
0.40567237 -0.4404804 -0.80087894 
0.3139434 -0.53100145 -0.7870686 
0.9264151 -0.18140891 -0.3299182 
0.41371265 -0.6247597 -0.6622064 
0.23551637 -0.9596318 -0.15374954 
-0.15342098 -0.41893083 -0.89496315 
-0.61041605 -0.2259445 -0.7591714 
-0.32994866 -0.4933205 -0.8048409 
-0.121858135 -0.44337067 -0.8880164 
-0.12246543 -0.49917886 -0.85780114 
-0.41661808 -0.7027028 -0.57674795 
-0.05165396 -0.6122726 -0.78895766 
0.44780698 -0.8836459 -0.13652459 
0.52821493 -0.7587821 -0.38110217 
-0.059915204 -0.57394 -0.8167026 
-0.22134136 -0.97108775 0.089424655 
-0.7471115 -0.5993535 -0.2874018 
-0.92275643 -0.17029268 0.3457183 
-0.92179525 -0.21161333 -0.3248283 
-0.55148333 -0.8263008 -0.11442527 
-0.41602468 -0.7824802 -0.4633015 
-0.74993795 0.16477957 -0.6406566 
-0.4983296 0.19510683 -0.8447491 
-0.39439535 -0.72122836 -0.56945777 
0.0012187103 -0.871974 -0.48955062 
-0.24153082 -0.44084296 -0.8644769 
-0.099645704 -0.5197769 -0.8484709 
-0.13296221 -0.27814907 -0.9512908 
0.0062275343 -0.7056408 -0.70854247 
0.33801326 -0.73915964 -0.58257204 
0.3264984 -0.41671568 -0.848379 
-0.22043104 -0.76764864 -0.6017689 
-0.47877505 -0.7563843 -0.44570982 
-0.14537656 -0.7824804 -0.60546696 
-0.35833615 -0.8618591 -0.3588791 
-0.35777313 -0.45367783 -0.8161954 
-0.37693694 -0.08434431 -0.92239076 
-0.3171321 -0.41201657 -0.85420704 
-0.055112466 0.10781515 -0.99264216 
-0.8920799 0.39370295 -0.22179165 
-0.49644127 -0.41501728 -0.76243484 
-0.2787354 0.03691215 -0.9596583 
-0.1843358 -0.80558425 -0.5630758 
0.23883425 -0.7272332 -0.64349836 
-0.19856448 -0.8764205 -0.43870187 
0.74687624 -0.29294696 -0.59695727 
0.40858045 -0.113264255 -0.9056673 
0.7043497 0.07643004 -0.7057266 
0.22444274 0.9660805 0.12772572 
0.5746962 0.41760346 -0.703798 
0.6132461 -0.15835313 -0.77385634 
0.5221443 -0.043413766 -0.85175145 
0.54200274 -0.130208 -0.8302282 
0.24392949 -0.09071702 -0.96554077 
0.4150019 0.16178313 -0.895321 
0.25632277 0.3701705 -0.89290124 
-0.5922323 -0.066032015 -0.8030571 
-0.1566654 -0.7214624 -0.67449826 
-0.5714646 -0.5926242 -0.5676486 
-0.8416192 -0.27870813 -0.4626004 
-0.7205271 -0.19379205 -0.6657968 
-0.2532724 -0.012779326 -0.96731067 
-0.45599294 -0.8321622 -0.3155575 
-0.33869928 -0.7693892 -0.54159325 
-0.326827 -0.4437296 -0.8344389 
-0.6446171 -0.5568842 -0.52378315 
-0.73178005 -0.53800243 -0.41839138 
0.06873674 -0.6252226 -0.77741367 
-0.015693998 -0.9483681 -0.31678337 
0.14123708 -0.7653358 -0.6279437 
0.38807356 -0.7443105 -0.543508 
0.3583561 -0.53723526 -0.76351774 
0.72400343 -0.66847014 -0.17019638 
0.7775341 -0.6261157 0.05848127 
0.70554525 -0.7080539 0.02942223 
-0.4053358 -0.7406916 -0.5357975 
0.101466395 -0.9824847 -0.15629573 
-0.1552649 -0.9676307 0.19895703 
0.54616195 -0.83663976 -0.04172778 
-0.101696774 -0.9083494 -0.40565902 
0.34492236 -0.3861226 -0.8555338 
-0.22808482 -0.59877306 -0.7677553 
-0.12320276 -0.80187243 -0.58465517 
-0.2757356 -0.34947294 -0.89545447 
0.18175468 -0.3445831 -0.9209929 
0.518721 -0.57024425 -0.6369852 
0.1078519 -0.8105329 -0.57567734 
-0.4047672 -0.5200332 -0.75214976 
-0.42214662 -0.8871845 0.18626837 
-0.1430561 -0.5463596 -0.8252432 
-0.6701633 -0.1379241 -0.72928613 
0.13404402 -0.13788658 -0.9813356 
-0.018723404 -0.869262 -0.4939972 
0.16842234 -0.943175 0.28645232 
-0.5378258 -0.83307445 0.12934653 
0.19239548 -0.7813992 -0.5936324 
0.2841299 -0.73328 -0.6177141 
-0.004116341 -0.7973596 -0.60349065 
0.48554683 -0.7754682 0.4036007 
0.502273 -0.8009705 0.32583475 
0.15042603 -0.9301171 0.33504376 
-0.14885285 -0.96110076 0.23265469 
-0.48061255 -0.2883384 -0.82817423 
0.117962204 -0.9767154 -0.17919862 
0.0051805214 -0.69175416 -0.72211456 
0.6903458 -0.57656586 -0.43702933 
0.47164112 -0.85028625 0.23359805 
-0.16447425 -0.8501085 -0.5002636 
0.05963602 -0.9365532 -0.34541547 
0.16548367 -0.96142006 -0.21974209 
0.0022129994 -0.99958223 0.028817741 
0.45198312 -0.88883823 -0.075353354 
0.26473126 -0.7629172 0.58980894 
0.14176308 -0.88764715 0.4381619 
0.217431 -0.9740956 0.062141266 
-0.037732035 -0.9126223 -0.4070588 
-0.46119505 -0.7833023 -0.4168174 
0.29794642 -0.8234487 -0.48286656 
0.0054181465 -0.52652997 -0.85013926 
0.26523027 -0.5572046 -0.78687733 
-0.19418408 -0.749046 -0.6334214 
0.32102114 -0.6708497 -0.6685104 
0.5859026 -0.23524833 -0.7754847 
0.53807366 -0.28629708 -0.7927868 
0.74237245 -0.37550756 -0.5548669 
0.5821631 -0.71357316 -0.3897429 
0.7170718 -0.5584079 -0.4171196 
0.88870674 0.061788563 -0.45429358 
0.59315825 -0.7851806 0.177918 
0.39436793 -0.889491 0.23082417 
0.5652472 -0.81820583 0.10504768 
0.23617207 -0.9715884 0.01545305 
0.10042813 -0.89422077 -0.43621483 
0.11478338 -0.6292414 -0.76868725 
0.7343069 -0.48565945 -0.47426617 
0.6516167 -0.730269 0.20518972 
0.30663666 -0.9518182 -0.004007986 
-0.48641106 -0.87211454 -0.053109016 
-0.39046144 -0.85070926 -0.3519001 
-0.1871444 -0.7396099 -0.64649385 
0.06606395 0.014603063 -0.99770856 
0.5782831 -0.53055817 -0.6197555 
0.07226217 -0.5923829 -0.8024094 
0.18808506 -0.9247608 -0.3308193 
0.29940516 -0.87532485 -0.37968823 
0.35724005 -0.82955784 -0.42920092 
0.41276824 -0.7140007 -0.5655312 
0.47996157 -0.7954283 -0.37004173 
0.34956145 -0.59327835 -0.72513974 
-0.292584 -0.270583 -0.91715837 
-0.34001887 0.038103588 -0.93964636 
0.49082068 -0.30737668 -0.815239 
0.2937116 -0.59537905 -0.7478351 
0.51968676 -0.7681822 0.3739276 
0.14929755 -0.96349776 0.2222215 
0.012011147 -0.95448714 -0.29801038 
-0.6681921 -0.13799822 -0.73107857 
0.27588418 -0.9055444 0.3223 
0.08755784 -0.7769289 0.6234703 
-0.44091436 -0.8503668 0.28717756 
-0.20181718 -0.9488898 0.24264808 
-0.58444554 -0.7159042 0.38197467 
-0.7797649 -0.5621368 0.27562463 
-0.9178386 -0.07044427 -0.39065355 
-0.6846879 -0.4307106 -0.5879548 
-0.28950334 0.29381514 -0.9109669 
-0.6561689 0.20373513 -0.72659105 
0.56845444 -0.6377403 -0.51975656 
0.17522632 -0.8129747 -0.555309 
-0.3237272 -0.8822392 -0.34184045 
-0.3659705 -0.34761634 -0.8632662 
0.023446329 -0.19773829 -0.97997445 
-0.018119773 -0.24548976 -0.9692299 
0.32955903 0.55329025 -0.76502335 
0.18474074 0.109777406 -0.97663707 
-0.18366836 0.040500384 -0.98215365 
-0.31261095 0.027512312 -0.9494828 
-0.16933267 0.012492399 -0.9854798 
0.10742688 -0.29930234 -0.9480916 
-0.34690082 -0.8246367 -0.44680437 
-0.25132984 -0.5076464 -0.82409257 
0.0548145 -0.23917466 -0.9694282 
-0.6157165 0.16599207 -0.77028567 
-0.0855732 -0.29271698 -0.9523624 
-0.13155708 -0.70218027 -0.69973975 
0.15328233 -0.026464175 -0.987828 
-0.6640117 0.05830066 -0.74544585 
-0.41100478 0.90108037 -0.13830839 
0.4715572 0.39635113 -0.78774333 
-0.35173693 -0.66830397 -0.65547764 
-0.6855991 -0.24641989 -0.68500453 
-0.8915992 -0.13980035 -0.4307049 
-0.30106464 -0.38908693 -0.87061554 
0.06213906 0.0053508943 -0.99805325 
-0.15542518 0.74330634 -0.65064484 
0.35329384 -0.22699514 -0.90755534 
-0.5853386 -0.6361511 -0.50268346 
-0.19181043 -0.7911885 -0.5807147 
-0.0031823986 -0.84985626 -0.527005 
0.7363875 0.015265555 -0.67638785 
0.04567966 -0.8479172 -0.52815694 
0.10024809 -0.9946427 0.025222434 
0.08369199 -0.385137 -0.91905665 
0.46817535 -0.7925749 -0.39068776 
0.43298587 -0.893104 0.12201876 
-0.26933402 -0.81728125 -0.5094219 
-0.02838372 -0.7825119 -0.6219885 
0.29733938 -0.35631728 -0.8857919 
-0.40876782 0.121905304 -0.90446013 
-0.3781085 0.02529404 -0.92541564 
-0.6188656 -0.14219172 -0.7725199 
0.13661212 -0.6362245 -0.7593125 
0.71956766 -0.6482213 0.24906129 
0.60778505 -0.5970769 0.5235424 
0.56427884 -0.070885055 0.8225355 
0.21400961 -0.26707712 0.93961143 
-0.34890833 -0.8677842 0.35385525 
-0.001563304 -0.64687437 -0.76259506 
0.32312918 -0.91158533 0.25416487 
-0.2891979 -0.9516456 0.10361125 
-0.39967945 -0.8320959 -0.38454252 
0.051998906 -0.94523644 -0.32221767 
-0.61498517 -0.40599507 -0.6759891 
-0.44083163 -0.33912513 -0.8310606 
0.13429454 -0.39511123 -0.9087641 
0.53348935 0.40178695 -0.74428254 
0.52295357 0.30335626 -0.79655164 
0.35172027 -0.02188707 -0.9358493 
0.9178894 0.3939341 -0.04790552 
0.4213398 0.43667027 0.79485345 
0.79848534 0.49637637 -0.34063417 
0.73016447 -0.197717 -0.6540397 
0.33403805 -0.7596914 -0.5579315 
-0.46051332 -0.8678965 -0.18623416 
-0.031133914 -0.99391055 -0.10570105 
-0.23253022 -0.9725322 -0.010529884 
0.09344717 -0.99376327 0.06084533 
-0.22658932 -0.91243714 -0.34075755 
0.0113691315 -0.997903 0.063721 
-0.94152755 -0.2944432 -0.16379572 
-0.60408676 -0.77733797 0.1755706 
-0.9902202 -0.017972765 -0.13835096 
-0.5507728 -0.35181826 -0.75688386 
-0.31039327 -0.23683898 -0.920632 
-0.2839685 0.07190077 -0.956134 
0.19453962 -0.39282858 -0.8987993 
0.13916396 -0.7276394 -0.67169523 
0.1414114 -0.92494506 -0.35281646 
0.21814553 -0.37753546 -0.8999331 
0.12319291 -0.43750834 -0.8907357 
0.4108988 -0.0037384585 -0.9116733 
0.462437 -0.42911762 -0.7758931 
0.4567295 -0.35465166 -0.81585556 
0.69573003 -0.7014458 0.15470485 
0.9237119 -0.38268077 0.0176603 
0.752979 -0.1398006 -0.643023 
0.06803616 -0.71554345 -0.6952473 
0.36077565 -0.18911858 -0.91327715 
0.22405379 0.20163752 -0.9534895 
0.31403816 -0.351036 -0.8821303 
-0.08429288 -0.17842588 -0.9803361 
-0.32185182 -0.54253554 -0.77592963 
-0.041480474 0.10018927 -0.9941034 
-0.2695409 -0.6899567 -0.6717942 
-0.4570707 -0.36292908 -0.81201535 
0.024397753 -0.3784286 -0.925309 
0.35956195 -0.071512975 -0.9303769 
-0.11483292 -0.48306748 -0.86802036 
-0.13599719 -0.2502898 -0.95857185 
0.89699835 0.09355449 -0.43202022 
0.06966849 -0.908154 -0.41279867 
-0.27044675 -0.61000395 -0.7448179 
0.15373397 -0.93047786 -0.33253115 
-0.4412006 -0.80740416 -0.39171493 
-0.05444305 -0.8543949 -0.5167644 
-0.47783458 -0.19273165 -0.85704654 
-0.8735358 -0.30377528 -0.38033643 
-0.44657722 -0.58631176 -0.67587525 
-0.39486745 0.0694649 -0.9161083 
-0.016401147 0.020140868 -0.9996627 
-0.15580903 0.032422613 -0.987255 
0.46379218 -0.70563996 -0.535695 
0.25962037 -0.6013591 -0.75562197 
0.033745274 -0.24342416 -0.9693328 
0.04943733 -0.14863698 -0.9876553 
0.67779505 0.017944677 -0.73503196 
0.48592535 -0.34542444 -0.80284405 
0.15365127 -0.7161401 -0.68083394 
-0.04718233 -0.9925589 -0.11225298 
0.07906177 -0.7986912 -0.59652466 
-0.5112762 -0.63563687 -0.57841384 
-0.1254659 -0.7686874 -0.62719864 
0.07458321 -0.6267936 -0.7756076 
0.0068351575 0.11557334 -0.9932755 
0.2065197 -0.12030557 -0.9710182 
-0.79394376 0.04445511 -0.60636383 
-0.14693595 -0.0072845872 -0.98911923 
-0.18436138 -0.85117507 -0.4914386 
-0.21672216 -0.90434617 -0.36768124 
-0.24376425 -0.6617476 -0.7089917 
0.18977651 -0.4712095 -0.8613631 
0.81381845 -0.33750528 -0.47306424 
0.7478671 0.42844474 -0.50707984 
0.14390029 -0.52588046 -0.8382975 
0.7411318 0.1147422 -0.6614817 
0.344115 -0.13786012 -0.9287516 
0.84599674 -0.29209593 -0.44606006 
0.83654857 -0.06376182 -0.54416984 
0.4898084 -0.009663135 -0.87177664 
0.71944726 0.38018924 -0.58125025 
0.6472555 -0.039405096 -0.76125395 
0.5867034 0.18723153 -0.7878601 
0.094550975 0.05956557 -0.99373645 
-0.23275611 -0.62758905 -0.74293786 
-0.7258729 -0.17008911 -0.6664671 
-0.5939995 -0.7134159 -0.37175572 
-0.55842245 -0.26539952 -0.7859564 
-0.5781741 -0.4581448 -0.67514294 
0.016671933 -0.7289803 -0.68433166 
0.10335559 -0.6009556 -0.79257184 
-0.22283632 -0.8436666 -0.48843697 
-0.51025194 -0.519124 -0.68567735 
0.07154911 -0.24107161 -0.9678663 
0.61376816 -0.34239417 -0.71137536 
0.55712825 0.17807193 -0.81110954 
0.5216488 -0.52965117 -0.668844 
0.1559228 -0.8822785 -0.4441539 
-0.20975979 -0.38386965 -0.899247 
0.64337593 -0.58996534 -0.48786104 
0.5997333 -0.79517484 -0.08953769 
0.06915264 -0.87711596 -0.47527426 
-0.3130064 -0.9487137 0.044377383 
-0.51744086 -0.675944 -0.52474254 
-0.13869253 -0.8551913 -0.49941197 
-0.22669646 -0.69463634 -0.68270725 
0.029165955 -0.7775203 -0.6281812 
0.11824206 -0.3870272 -0.9144555 
-0.08107433 -0.38630968 -0.9187991 
-0.5249094 -0.52416706 -0.67061096 
-0.21657427 -0.6392489 -0.73787296 
0.009329111 -0.5350453 -0.84477186 
-0.69145066 -0.5762042 -0.43575767 
-0.095816575 -0.6054632 -0.7900845 
-0.41192955 -0.14994702 -0.8987937 
-0.017399646 -0.5654151 -0.82462305 
0.22045332 -0.12585703 -0.96724373 
-0.16251092 -0.07510289 -0.9838444 
0.1979091 -0.5942825 -0.77952576 
0.11383404 -0.8747001 -0.47110668 
0.29397058 -0.93516535 -0.19760363 
0.04437398 -0.8687012 -0.49334508 
-0.175086 -0.91883147 -0.35368592 
-0.066886015 -0.5943919 -0.8013892 
-0.11837518 -0.95355815 -0.2769731 
-0.33769503 -0.8137101 -0.47311535 
-0.09898731 -0.72044146 -0.6864151 
0.13265365 -0.83151263 -0.5394347 
0.3368555 -0.7716978 -0.5394543 
0.40178424 -0.6175724 -0.6761463 
-0.0031904664 -0.89621454 -0.44360942 
-0.8659894 -0.3446644 -0.36231056 
-0.24257323 -0.22772817 -0.94302607 
0.14029755 -0.54540116 -0.82635 
-0.21270123 -0.87689215 -0.43106648 
-0.009807741 -0.8867686 -0.46210954 
-0.21745774 -0.97551835 0.032805488 
-0.2590539 -0.7525012 -0.6055024 
0.49550778 -0.8587861 -0.13022502 
0.20889917 -0.97024727 -0.1223991 
-0.29670724 -0.85715586 -0.4210093 
-0.17528138 -0.97357714 -0.14636976 
-0.016994072 -0.99897027 0.042067546 
0.023362577 -0.8811466 -0.4722658 
-0.44003254 -0.44583812 -0.77948684 
0.17113176 0.22124396 -0.960086 
0.15631045 -0.32713348 -0.9319607 
-0.3795535 -0.85954267 -0.34223598 
0.20135055 -0.53821075 -0.81840533 
0.4332026 -0.49674207 -0.7520525 
0.6635819 -0.67568463 -0.3211064 
0.9615081 0.2727821 0.03304876 
0.8988267 -0.3873586 0.20509464 
0.811604 -0.5841742 -0.006286638 
0.9046668 -0.3419514 0.25425866 
0.52256244 -0.7480799 -0.40902925 
0.1810923 -0.97237104 0.1473098 
0.98859656 -0.13631736 -0.06398782 
0.090014294 -0.64144385 0.76187086 
0.26312423 -0.07193978 -0.962076 
0.16003674 -0.4116867 -0.8971635 
0.42736316 -0.69580674 -0.5772467 
0.09427381 -0.76434964 -0.63787323 
-0.30392098 -0.9440979 -0.12771624 
0.3773889 -0.88287055 -0.27949503 
-0.32032448 -0.15450242 -0.9346236 
-0.17840011 -0.3885932 -0.90397394 
0.031259805 -0.34305832 -0.9387938 
0.41993847 -0.6129253 -0.6693088 
-0.46937275 -0.5615873 -0.68140227 
0.20647156 -0.5868423 -0.78293407 
0.6228147 -0.77541345 -0.10409626 
-0.0069372994 -0.5672681 -0.823504 
0.060780082 -0.20362878 -0.9771597 
0.25809652 -0.7454752 -0.6145348 
-0.44977406 -0.72330153 -0.523964 
-0.086322635 -0.8502125 -0.5193141 
0.41677895 -0.64050597 -0.6450174 
0.30214855 -0.46628964 -0.83143264 
0.1060437 -0.6063287 -0.78811187 
0.10511332 -0.846701 -0.52158284 
0.07069986 -0.80459684 -0.5895978 
-0.4945296 -0.40581042 -0.76860803 
-0.5868731 -0.41618732 -0.6945272 
-0.3777098 -0.9235819 -0.065817185 
-0.18594448 -0.93838763 -0.29129586 
0.2112836 -0.8904424 -0.40307787 
0.31917194 -0.74573386 -0.58481663 
0.5795774 -0.8095674 -0.09322359 
-0.35529163 -0.8664079 0.35086355 
-0.61605376 -0.7631673 -0.1950729 
-0.83268386 -0.19041601 -0.51998025 
-0.49827895 -0.07550172 -0.86372304 
-0.7174512 0.11016136 -0.6878433 
-0.6011523 -0.75307083 -0.26739568 
-0.34045202 -0.74996316 -0.56714004 
-0.22389808 -0.87054074 -0.4382105 
0.32524458 -0.34762365 -0.8794167 
0.33434752 0.08803552 -0.9383291 
0.48456421 0.3087261 -0.8184656 
0.47078097 0.25006473 -0.84606904 
0.8051112 0.50039697 -0.31843182 
0.21282293 0.4621148 -0.86090446 
-0.50341004 -0.59959394 -0.62214583 
-0.9332006 -0.027852707 -0.35827506 
-0.5481299 0.5642976 -0.6173507 
-0.40270337 -0.042680856 -0.9143349 
-0.6553672 0.38446993 -0.65013593 
-0.03641551 0.10387563 -0.9939235 
-0.288413 -0.6668341 -0.6871319 
-0.14138825 0.24002333 -0.96041566 
-0.07684196 -0.30674943 -0.9486833 
0.76559454 0.10839003 -0.6341268 
0.307973 0.44972837 -0.83838964 
0.7822764 -0.08936595 -0.61648786 
0.041601695 -0.13513836 -0.989953 
-0.85467154 -0.50652695 -0.11387379 
-0.7376393 -0.045850888 -0.67363644 
-0.673438 0.5352641 -0.5098761 
-0.058460906 -0.32852876 -0.94268304 
-0.6944923 0.055178676 -0.7173813 
0.0057420298 0.16930564 -0.9855469 
0.35052183 -0.35655314 -0.866028 
0.25003818 -0.46652812 -0.8484295 
-0.11801769 -0.18416765 -0.97578394 
0.33463648 -0.51188076 -0.79119945 
0.39686722 -0.017957795 -0.91770035 
0.1624692 -0.24013023 -0.95704824 
0.36130223 -0.31304544 -0.8783299 
0.7616303 -0.048787683 -0.64617264 
-0.13648991 -0.053439025 -0.9891991 
-0.73668694 -0.30297562 -0.6045644 
0.11728247 -0.5479332 -0.8282597 
0.23117954 -0.26735154 -0.9354567 
-0.22129032 0.18785033 -0.9569446 
-0.18262656 -0.12107559 -0.97569895 
0.14934155 -0.33387932 -0.9307103 
-0.32503575 -0.57468456 -0.7510588 
0.69253427 -0.63298756 -0.3460104 
0.3273126 -0.94150734 0.08019082 
0.19035979 -0.9647313 0.18181524 
-0.08646744 -0.76060843 0.64342695 
0.22500204 -0.4302232 0.8742323 
-0.24671017 -0.9460123 -0.21022557 
0.007210468 -0.91079015 -0.41280687 
0.17817284 -0.8339579 -0.52227277 
-0.7912251 -0.6086652 -0.059073344 
0.020910371 -0.96629816 -0.25657466 
0.113644674 -0.81639576 -0.56620044 
-0.59157544 0.06803752 -0.80337375 
0.028553363 -0.28283292 -0.9587441 
0.29249227 -0.47718224 -0.828701 
0.5859585 0.019483998 -0.8101069 
0.11579129 -0.34020913 -0.9331935 
0.11677573 -0.19446233 -0.9739342 
0.4993947 0.8243028 0.26670182 
0.59267145 0.7638365 0.25552768 
0.9757837 0.16504733 0.14354672 
0.9847864 0.024007432 -0.17210327 
0.620298 -0.40030542 -0.67452645 
0.28574938 -0.9311446 0.22653258 
-0.40352762 -0.9125726 0.066157304 
-0.5561547 -0.720688 -0.4138851 
-0.15417409 -0.37235385 -0.91519564 
-0.6393083 -0.64942884 -0.4117368 
-0.20945886 -0.92326206 -0.3220468 
-0.8201592 -0.5276723 -0.22113587 
-0.43159187 -0.9017795 0.022857482 
-0.8855692 0.038019013 -0.46294898 
-0.9949482 0.05251051 0.085561566 
-0.9036233 -0.2789284 -0.32506016 
-0.53229356 -0.3485307 -0.77148557 
-0.40973645 0.07116636 -0.9094237 
-0.11153982 -0.4266303 -0.89752185 
0.19808875 -0.11933232 -0.972893 
-0.0730581 -0.8645315 -0.49724022 
-0.46297428 -0.10934532 -0.87960136 
0.35657302 0.26454458 -0.8960312 
0.39988247 -0.059853945 -0.9146101 
0.63767016 0.28184488 -0.71689624 
0.69167095 -0.71662873 -0.08963602 
0.41517276 -0.7988999 -0.4351903 
-0.07566983 -0.42079696 -0.9039935 
-0.33373955 -0.6351899 -0.6965283 
-0.29597405 -0.55667317 -0.77621806 
-0.32772785 -0.35583013 -0.87520254 
0.42069715 -0.15264407 -0.8942671 