# OOMMF: rectangular mesh v1.0
# Segment count: 1
# Begin: Segment
# Begin: Header
# Desc: Time (s) :  6.370000000000013e-07
# Title: m
# meshtype: rectangular
# meshunit: m
# xbase: 2e-09
# ybase: 2e-09
# zbase: 5e-10
# xstepsize: 4e-09
# ystepsize: 4e-09
# zstepsize: 1e-09
# xmin: 0
# ymin: 0
# zmin: 0
# xmax: 1.024e-06
# ymax: 1.024e-06
# zmax: 1e-09
# xnodes: 256
# ynodes: 256
# znodes: 1
# ValueRangeMinMag: 1e-08
# ValueRangeMaxMag: 1
# valueunit: 
# valuemultiplier: 1
# End: Header
# Begin: Data Text
-0.42365676 -0.28620556 -0.85941917 
-0.6607536 -0.006511066 -0.75057465 
-0.16747658 -0.79208565 -0.5869854 
-0.008483947 -0.95568126 -0.29428095 
-0.13090564 -0.9532583 -0.27232793 
-0.18819678 -0.76227516 -0.6192888 
-0.40113306 -0.63454324 -0.66064155 
-0.7007122 -0.07431968 -0.7095626 
-0.42205447 -0.34805834 -0.8370934 
0.35550526 -0.64031214 -0.6808939 
-0.039337065 -0.60455495 -0.79559165 
-0.2943732 -0.39016232 -0.87242067 
-0.091315426 -0.93822587 -0.33375695 
-0.29053748 -0.61328363 -0.734487 
0.21632205 -0.88674664 -0.40851614 
0.08896089 -0.6564561 -0.7491004 
0.7460349 -0.38618183 -0.5424902 
0.11079546 -0.03959621 -0.99305415 
0.4792315 -0.37359077 -0.79420847 
0.40646675 -0.50252914 -0.76305264 
0.86452496 -0.49818632 -0.0663852 
0.10465601 -0.8604422 0.49868467 
0.076240875 -0.5775368 0.81279683 
-0.5351985 -0.75208104 -0.38462558 
-0.5375267 -0.81863534 -0.20224068 
-0.6307855 -0.5464855 -0.550875 
-0.41872776 0.30834332 -0.85416126 
-0.65257734 0.41193834 -0.6359637 
0.52593124 0.3132635 -0.7907353 
0.52756643 0.17410651 -0.8314811 
0.012815402 -0.5412905 -0.84073806 
0.14066307 0.3974868 -0.9067625 
0.3892485 0.11112405 -0.9144053 
-0.019506367 -0.19178219 -0.98124367 
0.35320446 -0.075900495 -0.9324623 
0.19795734 -0.8242755 -0.5304554 
0.36762714 -0.87844783 -0.30525374 
-0.17156696 -0.81987685 0.54622966 
-0.95060396 -0.28716856 -0.117840566 
-0.9686918 -0.2418387 0.056127373 
-0.61690164 -0.02506133 -0.78664124 
0.116943985 -0.26144767 -0.9581071 
-0.3506025 -0.75367665 -0.5559221 
-0.084553935 -0.94485897 -0.31637374 
-0.6513258 -0.3661776 -0.6645967 
-0.11919338 -0.13377619 -0.9838176 
-0.13691404 -0.73468524 -0.6644488 
-0.54695827 0.21530923 -0.80899864 
-0.2150959 0.16455558 -0.9626293 
0.25270158 -0.03528064 -0.9669008 
-0.6020235 -0.20713596 -0.77114356 
-0.45340285 0.15439075 -0.87783223 
0.184232 -0.49670228 -0.8481423 
-0.16719867 -0.19805424 -0.9658256 
0.23039426 -0.7894606 -0.56892043 
0.4499619 0.06297611 -0.8908245 
0.65304124 0.45218664 -0.6075068 
-0.2628755 -0.25571203 -0.9303267 
-0.9891265 -0.09494485 0.112313 
-0.47819442 -0.36883968 -0.79704916 
-0.5548007 -0.1641405 -0.8156311 
-0.5610178 -0.6176535 -0.55114716 
-0.3855538 0.0724626 -0.9198356 
-0.7002886 0.49811453 -0.51134914 
-0.12256727 -0.20370173 -0.9713305 
-0.9740638 -0.22595443 0.012011386 
-0.7006933 -0.68506 0.19930305 
-0.60177016 -0.54090273 0.5876197 
-0.90981513 -0.404521 -0.09273303 
0.32753354 -0.28078434 -0.9021541 
0.98133135 -0.15376106 -0.1155263 
0.63002324 -0.61650497 -0.4722208 
-0.19967046 -0.61608034 -0.7619558 
-0.076200336 -0.7074038 -0.7026902 
-0.7033149 -0.5029426 -0.5023912 
-0.3254601 -0.6810969 -0.6558832 
0.6265931 0.06235537 -0.77684814 
0.07700645 -0.7134975 -0.69641316 
-0.14579013 -0.73897934 -0.657765 
-0.26432428 -0.15355992 -0.95213026 
-0.10732695 -0.4716095 -0.8752517 
-0.05687006 -0.22929443 -0.9716944 
-0.23482947 -0.7334042 -0.63794476 
-0.5185455 -0.8429787 -0.14317003 
-0.324348 -0.34205392 -0.8819283 
-0.38890678 -0.38846555 -0.83537173 
-0.114822455 0.043240424 -0.9924446 
-0.028849173 -0.2247285 -0.9739944 
-0.47884104 -0.6546397 -0.58494294 
-0.5856705 -0.64349276 -0.49285617 
-0.65014833 0.32968587 -0.6845542 
-0.5862019 0.35029265 -0.73052204 
-0.15052803 0.47519347 -0.8669098 
-0.34899423 0.0011009232 -0.9371243 
0.25223365 0.2937879 -0.9219907 
0.03698498 -0.17178102 -0.9844406 
-0.22240326 -0.7270764 -0.64953583 
-0.015643625 -0.9971521 -0.0737769 
0.64110845 -0.2991189 -0.70675874 
0.66960156 -0.7418017 -0.036933832 
0.13553615 -0.9163366 -0.37677214 
0.2861195 -0.6170943 -0.73302823 
-0.030378165 -0.82711214 0.56121546 
0.55852187 -0.6261898 0.5440034 
0.2254658 -0.65333503 0.72271615 
-0.39163482 -0.8023657 0.45036837 
0.26989517 -0.8822964 0.38562903 
0.33958423 -0.3892141 -0.85626805 
0.027341254 -0.91068435 -0.41219708 
0.59785163 -0.2727697 -0.7537707 
0.49040672 -0.79095274 -0.36591673 
-0.5043 -0.8502435 -0.15088926 
0.08188034 -0.6648135 -0.74250835 
0.11926464 -0.9519605 0.2820411 
0.65449935 -0.75541866 0.03119838 
0.6508755 -0.7496242 0.120102815 
0.9266124 -0.25411063 -0.27715936 
0.87074894 -0.35538232 0.3398526 
0.4797407 -0.7004308 -0.52843696 
-0.2584869 -0.6745821 -0.69146484 
0.0071859695 -0.93463 -0.35554934 
0.61579734 -0.775319 -0.1402648 
0.29279664 -0.7420651 -0.6030005 
0.100483745 -0.5777677 -0.8099923 
-0.3706216 -0.11185516 -0.92202395 
0.14415719 -0.017250784 -0.98940444 
0.62978923 -0.41855454 -0.6543529 
0.30623507 0.41283032 0.8577828 
-0.3843912 0.08516341 0.91923374 
0.34843585 0.47797266 0.8063093 
0.09267658 0.01577947 0.99557126 
0.08731896 0.25436792 0.96315753 
-0.54370207 -0.019949675 0.8390412 
-0.60578966 0.68489206 0.40489733 
-0.83952796 0.2861252 -0.46187136 
-0.22270523 -0.30657035 -0.9254281 
0.08405512 -0.99645555 -0.003359378 
-0.37993607 -0.9248263 -0.018574042 
0.17482704 -0.97134906 -0.16098624 
0.18191244 -0.98313475 0.018816402 
-0.31803 -0.65929085 0.68131673 
0.23750573 -0.6747668 -0.698771 
0.80558366 -0.40363553 -0.4337205 
0.8562153 -0.2574785 -0.44788423 
0.6504214 0.29707336 0.6990704 
-0.5595115 0.008797072 0.828776 
-0.9101374 0.25593373 -0.32580325 
-0.18935563 0.93372816 0.30380285 
-0.4413909 -0.058075428 -0.89543366 
-0.21529178 -0.43362275 -0.8749976 
0.5729756 -0.79499763 -0.19919299 
0.5968745 0.0098451115 -0.8022742 
-0.16822362 -0.07640346 -0.9827835 
-0.48639762 -0.8516236 -0.19533224 
-0.25393653 -0.53790104 -0.8038524 
0.1448148 -0.7026935 -0.6965993 
0.68727505 -0.55992305 -0.4627519 
0.45519194 -0.13733482 -0.87973833 
0.17298052 -0.5526406 -0.81527066 
0.49314585 -0.70751035 -0.50619787 
0.15693411 -0.7120265 -0.68439025 
0.36031342 -0.6703885 -0.64865524 
-0.5673579 -0.7063955 -0.42321435 
0.15978776 -0.7912667 -0.5902246 
0.033997193 -0.6893872 -0.72359484 
0.22064494 0.23296301 -0.9471241 
-0.42200178 0.1317452 -0.8969714 
-0.6839081 -0.06497063 -0.72666955 
-0.648298 -0.5564459 -0.51969 
-0.09934176 -0.8297975 -0.5491516 
0.26917005 -0.44238877 -0.8554763 
0.56997645 -0.67357796 -0.47055236 
-0.027804373 -0.6406829 -0.76730204 
0.34509823 -0.6189763 -0.7055322 
-0.3113756 -0.5709504 -0.7596454 
-0.21876585 -0.90861034 -0.35576525 
-0.18915734 -0.6511697 -0.7349814 
-0.74914134 -0.5565856 -0.35916534 
-0.0114412885 -0.58246046 -0.81277853 
-0.4116659 -0.6084839 -0.67843837 
-0.65246725 -0.51757884 -0.5535329 
-0.036390368 -0.62143767 -0.7826181 
-0.011500087 -0.5343031 -0.84521466 
-0.30739108 -0.05543943 -0.94996697 
-0.065965615 -0.5329868 -0.8435482 
-0.037127875 -0.63674456 -0.77018046 
0.39600995 -0.30303264 -0.86680293 
0.6766771 -0.5294071 -0.51169944 
0.47527266 -0.5777212 -0.6635919 
0.160864 -0.7072475 -0.68842125 
0.9902852 -0.057240676 0.12672327 
0.324615 -0.6660072 0.6716097 
0.97488767 -0.05135072 -0.21669587 
0.9371194 -0.31757548 0.14475177 
0.78165317 -0.34471372 -0.51979893 
0.9499431 -0.31132442 -0.026176982 
0.08464737 -0.9345431 -0.34563574 
0.5861694 -0.70259976 -0.40343413 
0.4338225 -0.5015006 -0.74852866 
0.64791375 -0.75544214 -0.09754533 
0.2120465 -0.847952 0.4858123 
0.19280879 -0.40077132 0.89566016 
-0.634195 0.43314394 0.6404553 
-0.86204165 -0.08615381 0.4994616 
-0.38674182 0.48373514 -0.7851313 
-0.19361715 0.21997252 -0.9560986 
-0.2548262 0.64193803 -0.7231731 
-0.2551765 0.5895661 -0.766353 
-0.8896421 -0.19757114 -0.41170686 
-0.44042772 -0.71720237 -0.54004097 
-0.115820006 -0.06265217 -0.99129236 
0.43825996 0.16689156 -0.8832188 
-0.69245374 -0.3602746 -0.62506807 
0.54527056 0.28510743 -0.7882853 
-0.15344065 -0.9839399 -0.09120518 
0.21234602 -0.82639354 -0.5215197 
-0.18271986 -0.539696 -0.8217918 
-0.26599225 -0.31924543 -0.90957713 
-0.03624817 -0.6639994 -0.74685407 
0.0706667 -0.32854244 -0.9418419 
0.1410596 -0.9735177 -0.17990392 
0.5265895 0.36007708 -0.77009606 
0.9458484 0.19378033 -0.26042268 
0.92011124 0.35307047 -0.1695188 
0.3876965 -0.29149395 -0.8744843 
0.09868823 0.23368588 -0.9672908 
-0.43853414 -0.13025196 -0.88922566 
-0.21351947 -0.4525195 -0.865815 
0.05571056 -0.31028023 -0.9490113 
0.6502159 -0.50703114 -0.565808 
0.79058486 -0.2192985 -0.5717377 
0.6937695 -0.5324651 -0.484938 
0.28957313 -0.95090616 -0.10920139 
0.0019886813 -0.9791203 -0.20327209 
-0.24530514 -0.5601143 -0.7912632 
-0.09841268 -0.73304135 -0.6730271 
0.4577846 -0.8503262 -0.2595741 
0.6292086 -0.75354725 -0.19042869 
0.5054556 -0.8222557 -0.26155376 
0.6981306 -0.69042087 0.1895595 
0.6747633 -0.7378514 -0.016428944 
-0.41689852 -0.8342782 -0.36079836 
-0.5592455 -0.8124479 -0.16484186 
-0.048644338 -0.6873179 -0.7247261 
-0.76456225 -0.0028782743 -0.6445435 
-0.4605021 0.15683484 -0.87369376 
0.022176921 0.37695855 -0.92596465 
0.59668404 0.49782705 -0.62939376 
0.28631237 -0.44908437 -0.8463738 
0.01866728 0.501463 -0.86497766 
0.5797207 0.7540666 -0.30871925 
0.634746 -0.7692303 0.07336381 
0.81961197 -0.4881697 -0.299878 
0.54667264 -0.8309427 0.10336066 
0.6104732 -0.7808103 0.1328829 
0.9569262 -0.28552887 -0.05258874 
-0.026050799 0.22058037 -0.97502095 
0.2337478 0.17379361 -0.9566389 
-0.110392906 -0.28080344 -0.9533955 
0.30866396 -0.5876215 -0.747949 
-0.18526673 -0.9752416 -0.120747894 
-0.24540514 -0.90336865 -0.35171232 
0.06380627 -0.1531577 -0.9861398 
0.34632 -0.0631909 -0.9359858 
0.8081425 -0.06518594 -0.5853689 
0.3125833 -0.93769085 -0.15174839 
0.2847473 -0.8835396 -0.37185597 
-0.24429476 -0.47910756 -0.84307534 
0.18849587 -0.29870474 -0.93554527 
-0.1341878 -0.8978731 -0.41930598 
-0.28395888 -0.60436904 -0.7443826 
0.23909886 -0.9503938 -0.19895545 
0.01420453 -0.4613628 -0.8870979 
0.09054506 -0.3390684 -0.9363943 
0.31634903 0.090153694 -0.94434935 
0.65842724 -0.37323248 -0.6535832 
0.48905802 -0.6570627 -0.57366437 
0.6129614 -0.6179006 -0.4924198 
0.21848105 -0.87983865 -0.42207816 
0.32008153 -0.60607487 -0.7281629 
-0.058964506 -0.4998051 -0.8641286 
-0.72688085 0.0006030736 -0.68676335 
-0.2833711 0.22574358 -0.9320626 
-0.36651522 -0.32252896 -0.87272084 
-0.31666467 0.062014505 -0.9465082 
0.2857801 0.4843201 -0.8269002 
0.6460106 0.4738234 -0.59846616 
-0.017254407 0.7899212 -0.6129655 
0.045869138 0.40561664 -0.9128917 
0.29906923 0.6916927 -0.65735745 
0.7647095 -0.032435138 -0.64355844 
0.41216677 -0.18777676 -0.8915484 
0.048746716 -0.49233353 -0.8690405 
0.018141545 -0.9988686 -0.04396006 
-0.061715703 -0.9768378 -0.20488769 
-0.78904545 -0.60395235 0.112467386 
-0.18727049 -0.27452642 -0.9431676 
0.22604951 -0.5046954 -0.8331771 
-0.4103271 -0.8542714 -0.3191425 
-0.29323867 -0.9149204 -0.27736562 
0.003253983 -0.8535899 -0.52093554 
-0.05062484 -0.2624163 -0.9636259 
0.085500605 0.13393065 -0.98729545 
0.26226816 0.41315567 -0.8720767 
0.42751747 0.4336004 -0.79323363 
0.47977507 -0.09396028 -0.872346 
0.41870818 -0.298481 -0.85766697 
-0.26868275 -0.2708047 -0.92437786 
0.102577455 -0.17097011 -0.979922 
-0.16346112 -0.14921041 -0.9752009 
-0.2660662 -0.46612868 -0.8437612 
-0.46954846 -0.40900454 -0.7824575 
0.53160095 -0.35707694 -0.7680473 
0.2639687 -0.30538645 -0.9149096 
-0.7718985 0.29599458 -0.5626365 
-0.56180984 0.09534438 -0.8217537 
-0.514575 0.083606325 -0.85335964 
-0.17640814 -0.48431674 -0.8569233 
0.060711667 0.0871791 -0.994341 
-0.27625045 -0.07088458 -0.95846814 
-0.70753515 -0.29276258 -0.6431828 
-0.038096234 -0.764114 -0.6439553 
-0.693627 -0.6723528 -0.2585023 
-0.3269036 -0.94381076 0.04853295 
-0.32678497 -0.48605767 -0.81053036 
0.47368792 -0.39469615 -0.7872959 
0.5895111 -0.49635834 -0.6372637 
0.23848924 -0.8714083 -0.4286846 
-0.48812807 -0.6413059 -0.59199476 
-0.60224974 -0.08370956 -0.79390675 
0.53953916 -0.48143867 -0.6907346 
-0.30538017 -0.70012486 -0.64542085 
-0.18272056 -0.7026214 -0.6877037 
-0.24200317 -0.6217177 -0.7449173 
-0.023826897 -0.5802654 -0.81407887 
-0.5187593 -0.5043801 -0.69028217 
-0.7081333 -0.5177295 -0.48010778 
-0.36946732 -0.46595702 -0.8039764 
-0.5020521 -0.46150565 -0.731407 
-0.45126078 -0.71519893 -0.53371745 
-0.6845217 -0.28361714 -0.671559 
0.15209058 0.28757423 -0.94560534 
-0.3184753 -0.31470525 -0.89416677 
-0.48721987 -0.33184755 -0.8077711 
0.112946056 0.11459742 -0.9869705 
0.28462142 0.23495936 -0.9294003 
0.3166214 0.5451115 -0.7762761 
-0.3703763 0.32273394 -0.87101334 
-0.38965058 -0.65954244 -0.6427879 
0.12578274 -0.11986471 -0.9847899 
0.08247163 -0.12759519 -0.9883916 
0.31280258 0.010476347 -0.9497604 
-0.2802325 -0.807648 -0.5188203 
0.2848093 -0.4597958 -0.8411133 
0.31985006 -0.6389513 -0.6995979 
0.088657655 -0.40687737 -0.9091704 
0.491781 -0.65771097 -0.5705854 
-0.82387537 -0.44755918 -0.34773594 
0.1339112 -0.9810154 -0.14027373 
0.51913285 -0.72834563 0.4472289 
0.56104463 -0.82309777 -0.08797196 
0.63775206 -0.7407825 0.21098283 
0.06586638 -0.9943204 -0.08359769 
-0.19236867 -0.7266639 -0.65951043 
0.093066856 -0.21887352 -0.97130483 
-0.39626563 -0.32974076 -0.8568807 
-0.31627873 -0.1323133 -0.939394 
-0.11585159 -0.61820936 -0.77742887 
0.21688168 -0.9085972 -0.3569502 
0.53307015 -0.83311963 -0.14747244 
0.9332583 -0.071725346 -0.35197222 
0.65183866 -0.6339342 -0.41621366 
0.47459862 -0.8796069 -0.03237232 
0.4245738 -0.8218081 -0.3799585 
-0.10467467 -0.67796683 -0.7276017 
-0.11644493 -0.39267367 -0.9122763 
-0.31962666 -0.63508326 -0.70321274 
-0.15498817 -0.4845198 -0.8609409 
-0.03526393 -0.09734811 -0.9946255 
0.28012943 -0.1444817 -0.94902724 
0.04751129 -0.5596495 -0.8273664 
0.25012776 0.5853351 -0.7712452 
0.7198218 -0.021791847 -0.6938167 
0.5993068 -0.043000687 0.7993637 
0.37123922 0.13575192 0.9185603 
0.57245046 -0.07043107 0.8169089 
0.32621723 -0.0597192 0.9434066 
0.0040219706 -0.029570235 0.9995547 
-0.41048375 0.16162832 0.8974293 
-0.78421754 0.54298204 0.3002886 
-0.9825469 -0.041887913 0.18123724 
-0.22173522 0.4728702 -0.8527762 
-0.23155189 -0.79127306 -0.5659246 
-0.74052656 -0.070066534 -0.6683646 
-0.061428756 -0.9742456 -0.21696092 
-0.3804314 -0.91944784 -0.09943704 
0.16210571 -0.96696085 -0.19674446 
0.20903125 -0.9685182 -0.13519825 
0.8523563 -0.20604323 -0.48066083 
0.8536326 -0.5136983 0.0861714 
-0.1431667 0.0030401973 0.989694 
-0.67635363 0.18414114 0.71318847 
-0.698265 0.6958444 0.16800782 
-0.746354 0.2700905 0.6082819 
-0.6382401 -0.4574756 -0.61916536 
-0.59426093 -0.023986112 -0.80391467 
-0.16479671 -0.36673003 -0.91561514 
0.17477685 -0.31874597 -0.9315869 
-0.37730595 -0.2841754 -0.88141066 
0.6914383 -0.35629883 -0.62846184 
-0.08806198 -0.64578265 -0.758426 
-0.25932205 -0.63353014 -0.72896624 
-0.37754342 -0.68262386 -0.62568814 
-0.39690048 -0.23788105 -0.8865003 
-0.31752503 -0.07054874 -0.94562197 
-0.34568942 -0.12206704 -0.9303755 
0.0018025482 -0.28118142 -0.9596529 
-0.018557586 -0.99686396 0.07692848 
-0.44816178 -0.6954998 -0.56163263 
0.112011455 -0.34027135 -0.93363214 
-0.47158837 -0.034860376 -0.8811295 
-0.26865172 0.10432242 -0.9575715 
-0.24896157 0.45549974 -0.85471517 
0.045931797 0.17466901 -0.9835554 
0.2770726 0.6080369 -0.74399054 
-0.20175508 -0.92744714 -0.3148599 
0.124040805 -0.69234884 -0.7108214 
0.46813196 -0.549936 -0.6916812 
0.49653777 -0.49030104 -0.7162787 
-0.22233857 -0.100190245 -0.9698079 
-0.42554268 0.28771052 -0.8579838 
-0.095855795 -0.4253213 -0.89995193 
-0.3762804 -0.6611899 -0.6490308 
-0.02128381 -0.7092966 -0.70458883 
-0.11938549 -0.2625672 -0.9574996 
-0.042574078 -0.5003609 -0.8647697 
-0.50156087 -0.37807888 -0.7781343 
-0.0830802 -0.12430665 -0.9887596 
-0.41389856 -0.19626664 -0.88891363 
-0.36217603 -0.26596025 -0.8933609 
0.13116132 -0.19444112 -0.9721056 
-0.121192284 -0.099530436 -0.98762655 
0.79439175 0.30233213 -0.52681786 
0.29432106 -0.26670134 -0.9177394 
-0.24433133 -0.50465876 -0.82802284 
0.06395481 -0.8303639 -0.55353916 
0.32471243 -0.8967613 0.3006345 
0.5696025 -0.7388591 0.36005583 
0.8055587 -0.5231183 0.27824923 
0.3229552 -0.7358019 0.59522736 
0.17052498 -0.47816178 -0.86155826 
0.47541672 -0.65035886 -0.5924629 
0.2007876 -0.72632897 -0.65736645 
0.46770012 -0.876948 -0.110539176 
0.24379157 -0.7086714 -0.6620806 
0.74236566 -0.6371889 0.2070837 
0.18254988 -0.88508064 0.42814475 
-0.07238002 -0.37464592 0.92433846 
-0.4950409 -0.11051951 0.8618121 
-0.92111033 0.3210729 0.22015467 
-0.9953747 0.08966811 0.034482133 
-0.81223655 0.06559235 -0.5796287 
-0.04664258 0.956537 -0.28785658 
-0.5539475 0.8325196 -0.0073177414 
-0.61687946 0.15976886 -0.7706709 
-0.3972432 0.022515872 -0.91743714 
0.042076156 -0.007662451 -0.99908507 
0.28418395 0.0352216 -0.9581226 
0.09674458 -0.69062525 -0.7167129 
0.35331383 -0.62193805 -0.69882935 
0.0202251 -0.8185522 -0.5740762 
0.073277235 -0.29110238 -0.9538815 
-0.3053915 -0.62219894 -0.72083604 
-0.19122224 -0.6348159 -0.7486273 
0.75871605 -0.33063006 -0.56127876 
0.8166508 -0.46765468 -0.33820218 
0.11025277 -0.9717366 0.20873985 
0.4825246 -0.08578956 -0.871671 
0.49341995 0.7731218 0.39852178 
0.5482472 0.8144085 -0.19016816 
0.48818544 0.52531 -0.6969393 
0.8644414 -0.02635852 -0.5020421 
0.5882274 0.07306989 -0.80538774 
0.42431855 -0.707553 -0.5650863 
0.15293156 0.03341882 -0.98767155 
0.7336793 0.003136741 -0.6794888 
0.61288697 -0.43855932 -0.6572939 
0.6129962 -0.7756575 -0.1503034 
0.11095442 -0.7679926 -0.63077456 
0.38231602 -0.062323075 -0.9219275 
0.5821043 0.0856786 -0.80858755 
0.21524258 -0.16021769 -0.96332806 
0.33158147 -0.15316162 -0.930911 
0.92130476 0.11556271 -0.37127203 
-0.044465434 -0.99577236 -0.08037684 
-0.3053422 -0.61051303 -0.7307805 
0.74100184 -0.09518098 -0.6647232 
-0.21593156 -0.8550309 -0.47148263 
-0.78847694 -0.37807593 -0.48514214 
-0.66393024 -0.09547018 -0.7416752 
-0.65971065 -0.17302425 -0.73133063 
-0.3608016 0.32568052 -0.8739304 
0.23601654 0.018724153 -0.9715687 
-0.29217356 0.0062310323 -0.9563451 
0.46535218 -0.24428092 -0.85074914 
0.40033373 -0.10029922 -0.9108639 
0.73279923 -0.42119083 -0.53441894 
0.717752 -0.6835686 -0.13253738 
0.63733524 -0.7609339 -0.121586785 
0.2557706 -0.9346789 -0.24689437 
0.68501365 -0.32659078 0.6512257 
0.47498584 -0.6046559 0.63935894 
0.33295515 0.08731881 -0.93889105 
0.22383226 -0.14323965 -0.9640444 
-0.33069378 0.5765486 -0.74715024 
-0.18481773 -0.26524597 -0.94630176 
-0.011242795 -0.4259349 -0.90468395 
-0.019804241 -0.7555814 -0.65475535 
0.4020793 0.3665717 -0.8390218 
0.5724004 -0.0050915247 -0.8199585 
0.752807 0.052653477 -0.65613204 
0.056055263 -0.71526515 -0.69660157 
0.3391523 -0.7042815 -0.62366927 
-0.10782904 -0.05036444 -0.9928929 
-0.4161694 -0.7078264 -0.5707758 
-0.15712626 -0.8748478 -0.4582061 
-0.39347303 -0.9076225 0.14628814 
0.53043354 -0.6137696 -0.5847454 
-0.1462078 -0.7040562 -0.6949304 
0.3726338 -0.30483747 -0.8764805 
0.20162342 -0.8690873 0.4517028 
0.33682522 -0.8783987 -0.339064 
0.5857212 -0.8095835 -0.038796935 
0.08942546 -0.6425684 -0.76099205 
0.5295516 -0.62795985 -0.57029957 
0.083389945 -0.28913042 -0.9536508 
0.43003428 0.28338736 -0.85718274 
-0.40058434 -0.045934808 -0.9151077 
-0.56864905 -0.12782589 -0.81258774 
-0.55015093 0.35450983 -0.7560798 
0.37041095 0.35118172 -0.8599228 
0.1655568 0.45647708 -0.8741966 
0.7615521 0.28971404 -0.57974505 
0.8001056 0.21074668 -0.56161994 
0.3562164 0.43937096 -0.8246593 
0.30036572 0.21619324 -0.92899996 
0.497045 -0.5750454 -0.6498224 
0.5408939 -0.58764243 -0.601756 
0.54142815 -0.46326604 -0.70159835 
-0.15630311 -0.9249083 -0.34657478 
-0.17639767 -0.9404597 -0.29055032 
-0.16903158 -0.89324343 -0.41658688 
0.1650152 -0.6735968 -0.7204425 
0.43466502 -0.053834338 -0.89898175 
-0.04497988 -0.5160497 -0.85537696 
0.4385141 -0.3293417 -0.8362055 
0.106433935 -0.013971179 -0.9942217 
0.19407582 0.15405348 -0.9688148 
0.15592638 0.5509967 -0.8198107 
0.27299985 0.7023735 -0.6573756 
-0.27232438 0.5942195 -0.75679773 
0.13870496 0.62001485 -0.77223223 
0.14966607 0.056632567 -0.9871134 
-0.32460693 0.049064852 -0.9445756 
0.0022340394 -0.059874967 -0.9982034 
0.2094743 -0.5250946 -0.82486135 
-0.019213397 -0.28372878 -0.95871204 
-0.026302377 0.15280959 -0.9879056 
0.5099366 0.092622586 -0.855211 
0.34327912 -0.529895 -0.77548105 
-0.77613133 -0.31468362 -0.54643786 
-0.36654833 0.32413742 -0.8721108 
0.12513128 -0.21783286 -0.9679314 
-0.36982408 0.2260061 -0.90119445 
-0.22908919 0.5176796 -0.82433367 
-0.3160704 -0.67893785 -0.6626786 
-0.4424223 -0.85097927 -0.28301376 
-0.8751566 -0.20896174 -0.4363896 
-0.58022386 -0.70570374 -0.40659872 
-0.63369143 -0.25472987 -0.73044366 
0.29174075 -0.65999335 -0.69231224 
0.2484476 -0.52179 -0.81609386 
-0.106625974 -0.55064946 -0.8278986 
0.029884022 -0.2659969 -0.96351063 
-0.6768231 -0.07406721 -0.73241013 
-0.16134243 0.10571545 -0.9812202 
-0.039847404 0.340368 -0.93944764 
-0.0463751 -0.5892302 -0.8066333 
-0.44214636 -0.32975063 -0.8341291 
-0.5348831 -0.35423148 -0.7670855 
0.5124607 -0.32020178 -0.7967778 
-0.24058814 0.3668638 -0.8986258 
0.18362647 0.12875889 -0.97452676 
0.7285259 -0.23089123 -0.6449335 
0.44228947 -0.18721068 -0.87711585 
-0.12606385 -0.26857972 -0.9549728 
-0.45721838 0.42026645 -0.7837905 
-0.09302861 0.029779358 -0.99521804 
-0.20175713 -0.46373492 -0.86269575 
-0.63558793 -0.38849103 -0.6671602 
-0.06796033 -0.040237434 -0.9968763 
0.6089944 -0.034623362 -0.7924185 
0.91499907 0.4023792 0.029455818 
0.5732463 -0.44666854 -0.6869323 
0.36751375 -0.044338774 -0.92896056 
0.10949889 0.6395911 -0.76087666 
-0.054046836 0.041091636 -0.9976926 
0.65650845 0.23171712 -0.7178467 
0.92408824 0.043418642 -0.379705 
0.5435442 -0.46762553 -0.69705534 
-0.14200777 -0.84704655 -0.5121972 
-0.031906683 -0.8493007 -0.5269442 
0.038740024 -0.36333376 -0.93085325 
-0.20395648 -0.5962426 -0.77646416 
0.34276164 -0.82927233 -0.44138646 
0.42790842 -0.33567196 0.8391774 
-0.082189634 -0.9873296 -0.13573982 
-0.02093939 -0.89094335 -0.45363146 
-0.38982064 -0.9007961 -0.19132802 
-0.9226605 -0.23181227 -0.308157 
-0.5239827 -0.06253397 -0.84943026 
0.18892692 -0.18715803 -0.963991 
-0.54216737 -0.70700073 -0.45409757 
-0.115458995 -0.96576905 -0.23229153 
-0.004565397 -0.62605983 -0.7797617 
-0.06638927 -0.5365003 -0.8412847 
0.2619064 -0.09996323 -0.9599023 
0.6304767 -0.71169907 -0.30981234 
0.46216887 -0.8857904 -0.042135943 
0.19221336 -0.6762593 -0.71114516 
0.1624279 -0.15104537 -0.975091 
-0.02992334 -0.027899917 -0.99916273 
-0.06842818 -0.78250414 -0.61887383 
-0.47749534 0.087902114 -0.8742262 
-0.42153963 -0.6416269 -0.6407959 
-0.60617393 -0.18358055 -0.77385485 
0.42288172 -0.89361423 -0.15041536 
0.43660358 -0.51845133 -0.7352453 
0.7703879 0.4354505 -0.4657096 
0.81918985 0.13942003 0.5563183 
0.8212411 -0.086073235 0.5640519 
0.48554465 -0.2752514 0.8297489 
0.6359896 -0.116108656 0.7629129 
0.74680257 -0.08758362 0.6592535 
-0.28755465 0.37986785 0.8792115 
-0.30066213 0.70147467 0.64617 
-0.96996623 -0.14366929 0.19627725 
-0.82804966 0.55839455 0.05029437 
-0.70115757 -0.6129047 -0.36431572 
-0.5105905 -0.43634614 -0.74087745 
-0.5742502 -0.68643767 -0.44613907 
-0.41889602 -0.37535378 -0.8268227 
0.28986916 -0.8109911 -0.50820214 
0.047125354 -0.5915258 -0.8049078 
0.5560973 -0.08677409 -0.826575 
0.5152617 -0.5241776 0.6780438 
-0.58468 -0.47146657 0.66020346 
-0.6905088 -0.32848057 0.64443636 
-0.6568119 -0.31008568 0.6873464 
-0.9205857 -0.38989136 -0.022511635 
-0.47179943 0.16618922 -0.8659022 
-0.45975062 -0.104349755 -0.88189596 
-0.23918767 -0.20042752 -0.95006216 
0.28878716 0.21714057 -0.9324441 
-0.8869956 -0.059031025 -0.45798925 
-0.08068878 -0.3630445 -0.9282716 
-0.007689751 -0.12544172 -0.9920712 
0.287283 0.32697794 -0.90030766 
-0.07978013 0.16141626 -0.98365647 
-0.17095423 0.58790123 -0.79066235 
-0.12472681 -0.12808932 -0.98388845 
-0.16680665 0.052264024 -0.98460346 
0.3532483 -0.36638948 -0.8607987 
-0.26816928 -0.61788327 -0.73912483 
0.050071847 0.03834427 -0.99800926 
-0.46374655 -0.10061074 -0.8802367 
0.15061201 0.12681006 -0.9804261 
-0.38273537 0.032486234 -0.92328674 
-0.5313355 0.040992532 -0.84616923 
0.13625354 0.2291316 -0.9638121 
0.54753035 0.3378037 -0.76557124 
0.41065842 -0.6697934 -0.618657 
0.50787 -0.20931253 -0.83561736 
0.66793513 -0.6904826 -0.2776626 
0.46324596 -0.30208814 -0.8331542 
-0.3165582 0.07258677 -0.94579184 
-0.123575404 0.20099342 -0.9717668 
0.2546016 0.36319435 -0.8962522 
-0.32883334 -0.2453603 -0.9119578 
-0.43406782 -0.071492426 -0.8980389 
0.5452864 -0.14165404 -0.82619417 
-0.38897064 -0.31270978 -0.86655325 
0.15292692 -0.32271028 -0.9340619 
-0.31209055 0.18395443 -0.9320731 
-0.46728468 -0.22320157 -0.85546845 
-0.027011618 -0.048042223 -0.99848 
-0.15987878 -0.25608075 -0.9533423 
0.20562528 0.44718394 -0.8704854 
0.89848435 0.2641776 -0.3506224 
0.7981163 0.14684771 -0.584334 
0.041697152 -0.66816 -0.7428483 
0.25799108 -0.8983728 -0.3554814 
0.46668178 -0.88076514 -0.0803808 
0.20272814 -0.9417751 -0.26825553 
0.030219771 -0.9784066 0.20446825 
0.58031017 -0.6654888 -0.46943027 
-0.010249603 -0.99955064 -0.028168555 
0.004212092 -0.9924714 -0.122404605 
-0.05673842 -0.73206973 -0.67886287 
0.047462102 -0.3160071 -0.947569 
0.5564814 -0.8122784 -0.17473479 
0.6751402 -0.69161403 0.2566239 
0.64035213 -0.06232399 0.76554877 
-0.50186497 -0.4348674 0.7476777 
-0.9286336 0.0019088581 0.37099352 
-0.8792524 0.27334684 0.39012396 
-0.97857004 0.20590766 -0.0016293095 
-0.8228366 0.5339756 -0.19444837 
-0.9150594 0.20285177 -0.34859347 
-0.86561215 0.49687308 0.0619099 
-0.86616814 0.13430381 -0.481368 
-0.95388305 0.13006854 -0.2705353 
-0.8779743 -0.16560955 -0.44914895 
-0.39947295 -0.41553935 -0.8171587 
0.24257322 -0.3550233 -0.90283823 
-0.6111904 -0.5160438 -0.60012096 
-0.014402081 -0.6566495 -0.7540585 
-0.13075101 0.050372124 -0.99013484 
-0.48394322 -0.5647558 -0.66846836 
0.10025662 -0.4536086 -0.8855439 
0.40469807 -0.72174084 -0.56152445 
0.7996485 -0.39002427 -0.45655605 
0.4074776 -0.8292846 -0.38242513 
0.7535294 -0.44090495 -0.48764375 
0.72756124 0.36542538 -0.5806195 
0.8982064 -0.091289006 -0.42999008 
0.9193687 0.16657908 -0.35638827 
0.809442 0.1586621 -0.56535846 
0.96263 0.2503095 0.1033857 
0.30654073 0.24814552 -0.9189432 
0.38201958 0.20932847 -0.90013486 
0.20515418 -0.3601601 -0.910053 
0.08914401 0.18193066 -0.9792623 
-0.086128704 -0.71244425 -0.69642305 
0.19813332 -0.6063575 -0.7701128 
0.27334347 -0.5191364 -0.8098029 
0.12570477 -0.4955857 -0.85941446 
0.039619 -0.6707339 -0.7406392 
-0.807547 -0.5423276 -0.23183778 
-0.5286976 -0.8261402 -0.19486213 
-0.2701095 -0.765096 -0.5845246 
-0.36825517 -0.15090844 -0.91739565 
0.7049877 0.048525054 -0.7075576 
0.12610544 -0.5916135 -0.7962983 
-0.11886735 -0.6665963 -0.7358804 
-0.60314757 -0.37689364 -0.70296824 
-0.3730859 -0.4012641 -0.836537 
0.27150312 -0.04480479 -0.9613942 
-0.28218147 -0.5614874 -0.77788544 
-0.25323597 -0.66025823 -0.7070577 
0.49555922 -0.26273245 -0.8278845 
0.5128561 -0.37021232 -0.77454597 
0.82472557 -0.5651825 0.019916302 
0.34793666 -0.77987826 -0.5203173 
0.1272978 -0.5215005 -0.84370166 
0.18838939 -0.9555109 0.22695449 
0.49210635 -0.83616287 0.24220441 
0.6476695 -0.74850106 0.14237432 
-0.58716196 0.054885175 -0.8076067 
0.18638356 0.119465716 -0.97518677 
-0.24125282 0.35599816 -0.90280807 
-0.11400335 0.06684858 -0.9912288 
0.0035912688 0.26375747 -0.9645824 
-0.0084590865 -0.47581995 -0.87950206 
0.49128148 -0.47070318 -0.7328582 
0.17630173 0.062699854 -0.98233724 
0.30249056 -0.32655615 -0.8954667 
0.3802882 -0.85115945 -0.361813 
0.17561549 -0.87170756 -0.45747712 
-0.08842344 -0.9251457 -0.36917055 
-0.29508364 -0.8585481 -0.41930994 
-0.35569304 -0.83654946 -0.41673455 
0.36853418 -0.812892 -0.45098698 
0.1632678 -0.71371514 -0.6811419 
-0.18005323 -0.107986204 -0.9777115 
0.13087128 -0.96925783 -0.2083559 
0.10747901 -0.75295013 -0.6492415 
0.050095156 -0.98210776 -0.18153444 
0.5006554 -0.8639527 -0.054127973 
0.13019043 -0.90161157 -0.4124889 
-0.4467042 -0.6197817 -0.64523345 
-0.23584872 -0.07562799 -0.9688425 
0.15707594 0.32924497 -0.93108803 
-0.14863318 -0.019671377 -0.9886968 
-0.70842487 -0.0449045 -0.7043563 
-0.12565412 0.6606944 -0.7400635 
-0.110639416 0.5783312 -0.80826485 
-0.14352292 0.010377254 -0.9895927 
0.4432468 -0.100806914 -0.8907134 
0.31260738 -0.3126395 -0.8969578 
0.1957472 -0.24086134 -0.950615 
0.30445558 0.19614348 -0.93211293 
-0.039866697 -0.27134168 -0.96165717 
0.5089704 -0.55611783 -0.6570253 
0.8290862 -0.23181462 -0.50880075 
0.78668916 -0.34777313 -0.51007265 
0.41983196 -0.5999848 -0.6809989 
0.016775653 -0.7447268 -0.6671587 
-0.387953 -0.28430954 -0.87673295 
0.18632789 0.6032656 -0.77546936 
0.2593919 0.08795941 -0.9617584 
0.57476526 0.36819065 -0.7308082 
-0.50032127 0.7683631 -0.39911994 
-0.22412029 -0.022558564 -0.9743004 
-0.521047 0.24072622 -0.8188778 
-0.46327293 0.880692 0.09879169 
-0.34982687 0.7921393 -0.5001366 
-0.73567986 0.6645737 -0.13083185 
-0.5198842 0.61350685 -0.5944154 
-0.29029748 -0.30334565 -0.90758413 
0.45363194 -0.09164544 -0.8864644 
0.44197193 0.06770031 -0.8944706 
0.32544336 -0.37688667 -0.8672042 
0.8124771 -0.58037907 0.05514528 
0.6908786 0.29732215 -0.6590041 
0.29122385 -0.53613394 -0.79230624 
-0.19390583 -0.8298519 -0.52320784 
-0.76611227 -0.06500733 -0.6394107 
-0.7143953 -0.30170253 -0.6313596 
0.2732651 0.10066961 -0.95665663 
0.17540163 0.37686673 -0.9095086 
0.10831271 -0.3837509 -0.9170625 
-0.22850692 -0.39975145 -0.8876843 
-0.27796385 0.030405737 -0.96011025 
0.47028685 -0.16965763 -0.8660523 
0.115212396 0.05288314 -0.9919322 
-0.32968426 0.055166762 -0.94247806 
0.20665488 -0.27561474 -0.93879193 
0.5387172 0.0562914 -0.84060407 
0.19248644 0.03678566 -0.98061 
-0.018279148 0.0316215 -0.99933285 