# OOMMF: rectangular mesh v1.0
# Segment count: 1
# Begin: Segment
# Begin: Header
# Desc: Time (s) :  6.400000000000013e-07
# Title: m
# meshtype: rectangular
# meshunit: m
# xbase: 2e-09
# ybase: 2e-09
# zbase: 5e-10
# xstepsize: 4e-09
# ystepsize: 4e-09
# zstepsize: 1e-09
# xmin: 0
# ymin: 0
# zmin: 0
# xmax: 1.024e-06
# ymax: 1.024e-06
# zmax: 1e-09
# xnodes: 256
# ynodes: 256
# znodes: 1
# ValueRangeMinMag: 1e-08
# ValueRangeMaxMag: 1
# valueunit: 
# valuemultiplier: 1
# End: Header
# Begin: Data Text
0.61077994 0.098228134 -0.7856838 
0.17421876 -0.79045355 -0.5872232 
0.38404608 -0.08725336 -0.919182 
0.7376754 0.34104562 -0.5826859 
0.59386545 -0.71210283 -0.37447757 
0.15590926 -0.8914044 -0.42554754 
0.29475644 0.2647051 -0.9181775 
0.09249274 -0.15963164 -0.98283416 
0.26737404 0.33517793 -0.90341955 
0.30345222 -0.8156566 -0.49256602 
0.09926678 -0.9412434 0.32281122 
-0.4254551 -0.474521 0.7705958 
-0.21140625 -0.73473066 -0.6445761 
-0.68032384 -0.6244797 -0.3836464 
-0.4933181 -0.8576565 -0.14513035 
-0.68332887 -0.18813969 -0.7054538 
0.20309468 0.58985734 -0.7815504 
0.18897513 0.5142408 -0.8365674 
0.01947813 -0.021121627 -0.99958724 
-0.357569 -0.8623872 -0.35837522 
-0.9721544 0.21222903 -0.099371456 
-0.61947757 0.14980741 -0.7705876 
0.22820564 -0.54833204 -0.804521 
0.9109994 -0.23215649 -0.34085712 
0.8657231 -0.50045 0.008566753 
0.8643256 -0.13902624 -0.48333547 
0.6935997 -0.39033183 0.6054425 
0.5801643 0.051903617 0.81284404 
0.3772018 -0.3478935 0.8583059 
0.09713614 -0.970663 0.21994999 
0.1434927 -0.9811531 0.12941633 
-0.23827286 -0.76655364 -0.5963402 
0.07957277 -0.59224415 -0.8018199 
0.076022446 -0.332373 -0.94007915 
-0.30453673 -0.8916458 -0.33500025 
0.5523194 -0.67027205 -0.49565977 
0.8861523 -0.4570491 0.076421246 
0.11898308 -0.99288905 0.0037866568 
0.124389015 -0.8828296 0.45292306 
-0.051690217 -0.9806762 -0.18868586 
0.024703495 0.2551228 -0.9665931 
0.04898278 0.29411402 -0.95451444 
0.41036937 -0.016348971 -0.9117728 
0.6111639 0.20323493 -0.7649669 
-0.18429472 -0.70894265 -0.68076134 
-0.55106145 -0.8323547 -0.05930333 
-0.49900195 -0.48321027 -0.7193782 
-0.2547963 -0.64942753 -0.7164655 
-0.1523179 -0.38567197 -0.9099761 
-0.11101882 -0.10092888 -0.98868006 
-0.41495267 -0.7221256 -0.55348796 
-0.3285436 -0.7872132 -0.52187616 
-0.16377102 -0.8945855 -0.4158076 
-0.278433 -0.6047345 -0.7461711 
-0.18289864 -0.5646707 -0.804795 
0.22298904 -0.62236476 -0.75029206 
0.16429685 -0.821572 -0.5459177 
-0.06674222 -0.9063399 0.41724527 
0.3369288 -0.65333277 -0.67796415 
-0.25162873 -0.9676376 -0.018989393 
-0.11922284 -0.99265856 -0.020369146 
-0.92871255 -0.09632369 -0.35807112 
-0.9230638 -0.2533251 -0.2894469 
-0.30986768 0.23410152 -0.9215089 
-0.5836253 -0.2754565 -0.7638752 
-0.21895808 -0.35247397 -0.9098458 
0.16539252 -0.94587964 -0.27920812 
0.58683693 -0.18880412 -0.78738517 
0.09569598 -0.9198443 -0.38043228 
0.30636534 -0.38630944 -0.870003 
0.7154188 -0.6670351 -0.20794249 
0.599604 -0.117232054 -0.7916639 
0.25068402 -0.53107965 -0.80938995 
0.35261002 -0.19447626 -0.9153388 
0.2076189 -0.21934456 -0.9533008 
-0.5034289 -0.8638993 -0.015412574 
-0.28908658 -0.7796132 -0.5555467 
-0.31438756 -0.034589976 -0.9486643 
0.48775706 -0.41580033 -0.7675957 
0.45114368 -0.29887137 -0.8409194 
0.63564473 -0.73902786 -0.22314501 
0.7453803 -0.6593622 -0.098232925 
0.49523348 -0.81576496 0.29878342 
0.117526494 -0.67433226 -0.72901547 
-0.30716002 -0.7119829 -0.6314533 
-0.246987 -0.8675368 -0.4317147 
0.11087057 -0.67957556 -0.72517914 
-0.84714776 0.16586888 -0.50480515 
-0.75358987 -0.06430748 -0.6541918 
0.31779742 -0.20057653 -0.92670053 
0.052190486 -0.53726697 -0.8417959 
0.24457718 -0.8255728 -0.50853884 
0.01570601 -0.8123029 -0.58302426 
-0.70058286 -0.5356072 -0.47149608 
-0.16446884 -0.51070565 -0.8438779 
0.084393315 -0.473236 -0.8768839 
0.26938447 -0.8428682 -0.46583837 
0.14974168 -0.6290704 -0.7627896 
-0.37448466 -0.826663 -0.4199875 
0.76600796 -0.33143607 0.5508013 
0.47326958 -0.75637627 0.45156494 
0.3186768 -0.9417849 0.10717509 
0.09566367 -0.83916 0.5354054 
-0.016103657 -0.82222134 0.56894004 
-0.26286438 -0.94886804 0.17479053 
-0.46597078 -0.8500559 0.24551271 
-0.6597431 -0.5772995 -0.4811075 
-0.047235243 -0.60152096 -0.7974594 
0.276508 -0.43301287 -0.8579297 
0.7660281 -0.48528066 -0.42154914 
0.3856258 -0.5339434 -0.7524609 
0.06805337 -0.49690822 -0.8651306 
-0.32371372 -0.9168067 -0.23382677 
-0.5964309 -0.6353118 0.49056014 
-0.44515947 -0.74561375 -0.4958762 
-0.4885466 -0.744688 -0.45471093 
0.27034697 -0.74010324 -0.61575955 
-0.039969012 0.08848694 -0.99527514 
-0.44901928 -0.5592699 -0.69684935 
0.56384957 -0.82559264 0.021690082 
0.3632385 -0.21184883 -0.90729153 
0.2920511 -0.672817 -0.67972314 
0.2314402 -0.5376526 -0.8107806 
-0.0051643234 -0.8477027 -0.53044665 
-0.81381166 -0.56953 0.11552603 
-0.48737803 0.14418991 -0.86120373 
0.5242466 -0.422923 -0.73912233 
-0.14143126 -0.79493445 -0.58998007 
-0.6863149 -0.31935564 -0.65344006 
-0.37544313 -0.75831616 -0.5329159 
0.5717071 -0.6870003 -0.4485328 
-0.3430554 -0.70919895 -0.6159138 
0.22908829 -0.64015365 -0.73329526 
0.20981102 -0.9402305 -0.2682274 
-0.26284507 -0.7200792 0.6421827 
-0.15759571 -0.7133991 0.682807 
0.098084494 -0.8056643 0.58419573 
-0.58932143 -0.806629 0.04527752 
-0.39770177 -0.7294596 -0.55652684 
-0.027682656 -0.9955503 -0.09007475 
-0.062357955 -0.9904356 -0.12308116 
0.27755556 -0.87039673 -0.4066603 
-0.11151796 -0.9299751 -0.35030007 
0.35448006 -0.43177202 -0.8294075 
-0.15406784 -0.34567985 -0.925618 
0.19001944 -0.19382088 -0.9624584 
0.5217197 -0.6816235 -0.5130284 
-0.2616111 -0.45995092 -0.848531 
-0.08537292 -0.9650419 -0.24780165 
0.15848626 -0.5209016 -0.83877504 
0.29079446 -0.16844869 -0.94184065 
0.32114086 -0.36359978 -0.8744506 
-0.20454611 -0.30017024 -0.9316967 
0.21688621 -0.20803544 -0.95377237 
0.11816132 -0.6757856 -0.72756565 
0.59064597 -0.7999923 -0.10559211 
0.34633282 -0.93140996 0.11193326 
0.11762734 -0.7693758 -0.62787306 
0.35893962 -0.66199106 -0.6579744 
0.100161344 -0.9927387 0.06661537 
0.31116444 -0.6204914 0.7198383 
-0.12698102 -0.9278286 0.3507279 
0.7461692 -0.66511583 -0.029196128 
0.8070821 0.13569807 -0.5746343 
0.06840622 -0.94999725 0.30467358 
0.048702575 -0.9493492 0.31042585 
0.106245294 -0.8979592 -0.4270615 
0.39186084 -0.58278596 -0.7119029 
0.02683674 -0.60268205 -0.79753006 
-0.7637957 -0.26864013 -0.5868976 
-0.3232518 -0.32467455 -0.88887274 
-0.3081024 -0.58680737 -0.7488192 
-0.30208135 -0.44321173 -0.8439847 
-0.0358327 0.06727194 -0.9970911 
0.37210774 0.40447503 -0.83542556 
0.37039372 -0.5064743 -0.7786477 
-0.29961216 -0.47246304 -0.8288614 
0.6019298 -0.7950692 0.07446899 
0.5954132 -0.79111093 0.14009541 
0.6938914 -0.6455149 -0.31910077 
0.9633766 -0.1006953 -0.248528 
0.7679529 -0.14728388 0.62334245 
0.017853199 -0.5480693 0.8362425 
0.20131025 0.5110476 0.83564615 
0.080789514 -0.9077865 0.41157848 
0.19610022 -0.96902347 -0.15012749 
0.4564951 -0.8080171 0.3724524 
-0.75476944 -0.6550042 -0.035953984 
-0.3033134 -0.70548224 -0.64054334 
-0.15955727 -0.6614709 -0.7328014 
0.010914856 -0.7155429 -0.6984835 
0.118223086 -0.07597117 -0.9900766 
0.5003091 -0.5867152 -0.6367544 
0.51329696 -0.85529953 -0.07063313 
0.023137784 -0.9979518 0.059640266 
0.003917421 -0.99184155 -0.12741712 
0.03909351 -0.87686044 -0.47915283 
-0.036673497 -0.5056292 -0.86197114 
0.017550427 -0.12982401 -0.9913817 
0.5759381 -0.42645597 -0.69744575 
0.37956557 -0.91330963 -0.14763272 
0.11598348 -0.96057904 -0.25265723 
-0.76076376 -0.51590323 -0.3938051 
-0.54366755 -0.65919757 -0.5195037 
-0.55838996 -0.3358666 -0.7585475 
0.2744209 0.5650944 -0.7780499 
0.41145134 -0.39202455 -0.8228151 
-0.0580977 0.35714743 -0.9322394 
0.46669042 0.07023997 -0.8816272 
0.5142582 -0.66512305 -0.5414333 
-0.53714174 -0.31558013 -0.7822327 
-0.7850381 -0.15321697 -0.6001999 
-0.55640215 -0.62079644 -0.5522938 
-0.19364548 -0.59345 -0.78122884 
-0.14661308 -0.75224787 -0.6423611 
-0.52898955 -0.427648 -0.7329989 
-0.27132937 -0.39952454 -0.8756486 
-0.43794787 0.3752488 -0.81693953 
-0.2883699 0.9059248 -0.31006938 
-0.6363611 0.3188007 -0.70243204 
-0.05119459 0.35644263 -0.9329136 
0.31152758 -0.2897948 -0.9049694 
0.23821156 -0.27472904 -0.9315467 
0.35199073 -0.54464567 -0.7612251 
0.6144638 0.0015789835 -0.7889435 
0.33587605 0.003400193 -0.94190013 
0.7671338 -0.41841015 -0.48624966 
0.5740857 0.30537197 -0.75971955 
0.85311633 -0.021382462 -0.52128243 
0.18809748 -0.14013937 -0.97210103 
0.8295845 -0.20851439 -0.51798785 
0.2539037 -0.8064838 -0.53396344 
-0.046190843 -0.74915516 -0.66078216 
0.2096171 -0.088213734 -0.97379625 
0.70028466 -0.62664014 -0.34194094 
0.5123966 -0.7747575 -0.370406 
0.81996655 -0.54506826 0.1748015 
0.15535605 -0.8273027 -0.53984696 
-0.1907795 -0.20497406 -0.9599942 
0.29713622 0.4738361 -0.8289689 
0.12741752 -0.24705946 -0.9605865 
0.49190363 -0.24214694 -0.8362989 
0.5201178 -0.73866427 -0.42878044 
-0.5979512 -0.4592034 -0.6569526 
0.44315457 -0.039469372 -0.89557594 
0.5949301 -0.12940527 -0.79329216 
0.428959 -0.69536436 -0.57659566 
0.69762194 0.000921202 -0.7164656 
0.09696286 -0.17725654 -0.9793765 
-0.69324434 -0.10986545 -0.71227944 
-0.7062854 -0.7039715 0.07473355 
-0.42072374 -0.6765991 -0.60432214 
0.39388567 -0.6672735 -0.6321394 
0.16540478 -0.2211357 -0.9611141 
0.076398365 -0.08410168 -0.99352413 
-0.78106564 0.12739183 -0.61131644 
0.37913328 0.5372454 -0.7534093 
0.46111074 -0.3179935 -0.8284064 
0.6099285 0.1437274 -0.7793136 
0.285007 -0.07604884 -0.9555038 
0.5721273 -0.66334075 -0.48233747 
0.21517561 -0.26643527 -0.93952745 
-0.055264667 -0.08380021 -0.994949 
0.11359931 0.33944926 -0.9337395 
0.48033968 0.34091803 -0.80811435 
0.098328196 -0.6860527 -0.72087675 
0.80275095 -0.33213133 -0.4952573 
0.27146676 -0.9125906 -0.30575183 
-0.20078439 -0.5683475 -0.797914 
-0.83497393 -0.5311708 -0.14379197 
-0.8080184 -0.4791223 -0.34285283 
-0.6591636 -0.67394984 -0.33360922 
-0.12336776 0.03243308 -0.9918309 
-0.05473649 0.5839739 -0.80992496 
0.10991913 0.7068659 -0.69875485 
-0.23458047 -0.53115135 -0.8141562 
-0.24054031 -0.5780547 -0.77973926 
-0.35103938 -0.05642821 -0.9346589 
-0.13844694 -0.52663326 -0.83874303 
0.6858912 -0.27343428 -0.674379 
0.5084988 -0.674989 -0.5346204 
0.550189 -0.8288963 0.1011089 
0.3134213 -0.88460135 0.3453223 
-0.4660264 -0.4897437 0.73686534 
-0.6059806 -0.7088727 0.3609531 
-0.26022115 -0.89929146 0.35151106 
0.12341431 -0.9922789 0.012317444 
-0.8597073 -0.30245003 -0.41161555 
-0.043609746 -0.5354537 -0.843438 
0.13567112 -0.58073026 -0.80271155 
0.20779568 -0.6892057 -0.69413 
0.2596507 -0.42981127 -0.8647797 
0.45119324 -0.67647654 -0.58206886 
-0.41703483 -0.86311316 -0.2848117 
0.27656874 -0.7728178 -0.57119375 
0.35737422 -0.5917686 -0.7225605 
0.42592388 0.08092044 -0.901133 
-0.27687287 0.2542142 -0.92666966 
-0.15267141 0.5124559 -0.8450328 
-0.23440039 0.6273489 -0.7426237 
0.17247254 -0.3789208 -0.9092153 
-0.25539052 -0.64212906 -0.72280425 
-0.24024484 -0.78137815 -0.5759607 
0.2271013 -0.88040894 -0.4162993 
-0.2976056 -0.4323022 -0.8512026 
0.4912708 -0.084143475 -0.866933 
-0.046221677 -0.5369776 -0.8423293 
-0.09071421 -0.43270263 -0.89696115 
-0.04035771 -0.043710914 -0.9982288 
-0.37360656 -0.20150103 -0.90543664 
0.2587765 -0.54532516 -0.79727995 
-0.049606733 -0.47788286 -0.8770218 
-0.41656044 -0.3655474 -0.8323777 
-0.13217299 -0.8333054 -0.53677976 
0.44778597 -0.5358816 -0.71576446 
-0.43111256 -0.83860487 0.33299232 
-0.33655316 -0.29515842 -0.8942111 
-0.6956309 -0.029118242 -0.717809 
-0.7028205 -0.5810413 -0.4104077 
-0.020927295 0.23947547 -0.9706769 
-0.07191286 0.4600428 -0.8849797 
-0.24800116 -0.35403234 -0.901752 
-0.30708694 -0.33014515 -0.8925816 
-0.3887821 -0.48789737 -0.7815399 
0.47696522 -0.3145232 -0.8207189 
0.5547338 -0.06764493 -0.8292735 
0.49906552 -0.8379798 -0.22073418 
-0.78745604 -0.27574518 -0.55125105 
-0.64332384 -0.23511396 -0.72859865 
-0.32717162 0.121982664 -0.9370587 
-0.38002083 -0.23555912 -0.89448094 
-0.7707177 -0.5638376 -0.29678524 
-0.8156635 -0.47779217 -0.32620192 
0.121550396 -0.12322454 -0.9849067 
0.21949759 0.18433142 -0.9580411 
-0.23579702 0.1869016 -0.95366013 
0.28843886 -0.5998783 -0.7462902 
-0.0788952 -0.42099163 -0.903627 
0.44050688 -0.5596167 -0.701985 
0.2658737 -0.023198113 -0.9637288 
0.3696224 0.15843952 -0.91557425 
0.33015147 -0.895985 0.29700345 
0.3290548 -0.7335568 -0.59465736 
0.16069715 -0.60691863 -0.77834845 
-0.08182973 -0.6609495 -0.7459556 
0.34599766 -0.66286254 -0.66400224 
-0.13513502 -0.4193272 -0.8977212 
0.10690564 -0.7962164 -0.59549195 
0.3803617 -0.90627444 -0.18436794 
-0.2360112 -0.69871944 -0.6753442 
-0.63872254 -0.5393247 -0.54878265 
0.5089717 -0.5473392 -0.66435504 
0.50191724 -0.4754272 -0.72252893 
-0.08472922 -0.5586835 -0.8250416 
0.3255323 -0.42524207 -0.84451056 
0.58350444 -0.7640411 -0.27525252 
0.38273975 -0.86571306 0.3225699 
0.5723768 -0.8165687 0.074835755 
-0.18555033 -0.97416383 0.12874737 
0.24323459 -0.9463693 0.21265523 
0.47780672 -0.72616863 0.49434808 
0.06943823 -0.99380267 -0.08680238 
0.376825 -0.53249764 -0.75792426 
0.19846015 -0.6808693 -0.705004 
-0.10068483 -0.38740754 -0.916394 
0.68547106 -0.5145326 -0.515156 
0.17763436 -0.74411714 -0.64399976 
0.265372 -0.75281864 -0.6023636 
-0.14208128 -0.7852402 -0.6026698 
-0.17237626 -0.9496131 -0.26176587 
-0.38067728 -0.8436324 -0.37864113 
0.005263023 -0.91929376 -0.3935371 
-0.8808956 -0.20902939 -0.4246525 
-0.5265494 0.021323802 -0.84987706 
-0.10557395 -0.028895957 -0.99399155 
-0.23423488 -0.37361872 -0.89752054 
0.28128538 -0.44424397 -0.8506032 
-0.07719515 -0.6102195 -0.78846246 
0.46033123 0.20123865 -0.86463755 
-0.1810401 -0.46921477 -0.8643275 
0.4177397 -0.65370744 -0.6309994 
0.16483133 -0.8409698 -0.5153645 
0.038494974 -0.96021986 -0.27657923 
0.2116883 -0.6541533 -0.7261348 
0.23475759 -0.81247866 -0.533636 
0.7531233 -0.52377665 -0.39807454 
0.033629917 -0.81154054 -0.5833275 
0.38813576 -0.5096015 -0.76789135 
0.1250596 -0.090407565 -0.9880216 
0.93571144 -0.2308735 -0.266724 
-0.5828194 -0.7348869 0.3467894 
-0.2836674 -0.8557287 0.43273696 
-0.14222254 -0.8819382 -0.4493973 
-0.40670547 -0.73018485 -0.54901814 
-0.67710084 -0.6697504 -0.30490822 
0.043326285 -0.85492605 -0.5169376 
0.13584922 -0.98818946 -0.07089926 
0.20828487 -0.9274323 -0.3106232 
-0.15948063 -0.76042295 -0.62954175 
-0.3075517 0.11591456 -0.9444447 
0.31718552 -0.040495213 -0.94749856 
-0.30764607 -0.34284213 -0.88758844 
-0.28869417 -0.3145254 -0.90428394 
0.031602178 -0.0589084 -0.99776304 
0.5960626 -0.4455009 -0.6680107 
0.4603728 0.033181906 -0.8871054 
0.138363 -0.3606466 -0.9223826 
0.010243963 -0.08882361 -0.9959947 
-0.01085036 -0.7273674 -0.6861626 
0.509322 -0.2805061 -0.813577 
0.6424902 -0.68366015 -0.34614328 
0.82345974 -0.39243788 -0.4097642 
0.67576987 -0.68478984 0.27276012 
-0.10449917 -0.4906799 -0.865051 
-0.11547339 -0.98294365 -0.14313526 
-0.35221037 -0.9340987 0.05837388 
-0.31960255 -0.9289572 0.1867957 
-0.16269854 -0.87613165 -0.45378712 
0.38463494 -0.8114318 -0.4400391 
0.7312886 -0.6340606 -0.2513647 
0.36117598 -0.9237402 -0.12749903 
-0.0335783 -0.6818481 -0.7307227 
0.10932432 -0.7724428 -0.62560403 
0.35712832 -0.84289277 -0.40248132 
-0.13300869 -0.20712271 -0.96923107 
-0.29051706 -0.22251187 -0.93063873 
0.39661485 -0.5415272 -0.74124557 
-0.062184513 -0.37484354 -0.9250003 
-0.95753646 -0.04750824 -0.28437108 
-0.5293546 -0.15539351 -0.8340484 
0.051363204 -0.5345429 -0.8435792 
-0.08912185 0.05792509 -0.99433494 
-0.23234332 -0.90000665 -0.36878815 
0.55949277 -0.82766855 -0.04396233 
0.9532798 -0.06126725 -0.29581082 
0.8538172 -0.43448743 -0.28673512 
0.8318518 -0.43455702 -0.34522876 
0.2649729 -0.95302504 -0.14674008 
0.1265889 -0.4242486 0.896654 
-0.08185313 -0.36011443 0.9293104 
-0.57759804 -0.81498176 0.046748754 
0.124260865 -0.9922082 -0.009071277 
0.72453743 -0.5943989 -0.34890625 
-0.52011204 -0.7509033 -0.40697417 
-0.10348341 -0.947786 -0.30165023 
-0.048216723 -0.4518762 -0.8907767 
-0.7123116 0.08740632 -0.6963996 
-0.21930084 -0.5500359 -0.8058336 
0.24203098 -0.35414276 -0.9033293 
-0.545834 -0.46681246 -0.69580996 
-0.48362762 -0.6440784 -0.59267825 
-0.123557076 -0.39479142 -0.91042495 
-0.51242685 -0.34953117 -0.7843767 
-0.15455924 -0.5386325 -0.8282431 
0.28402248 -0.8515055 -0.44076034 
0.15390377 -0.8086063 -0.56786406 
0.18427594 -0.7195859 0.6695062 
0.28074786 -0.9395608 -0.19597517 
-0.54522127 -0.82198733 -0.1645319 
-0.47697827 -0.7854426 -0.39442605 
-0.5059122 -0.30555275 -0.8066538 
-0.011183663 0.3739645 -0.9273757 
0.48013213 -0.22790925 -0.8470717 
-0.49528307 0.41854605 -0.7612581 
0.24879842 0.008657318 -0.96851665 
0.4463181 -0.2219719 -0.8669075 
-0.76952463 -0.32990953 -0.5468012 
-0.57498336 0.15949616 -0.8024681 
-0.5700308 -0.49604967 -0.6549807 
-0.10509277 0.06235793 -0.99250543 
-0.43092448 0.34814122 -0.8325274 
0.39783308 -0.3218319 -0.8591584 
-0.026572844 0.31040832 -0.9502319 
-0.12733263 0.1436209 -0.9814069 
-0.3025706 0.618748 -0.72498417 
-0.7064947 0.21461095 -0.67439413 
0.21987222 0.0942076 -0.9709692 
0.45259836 -0.108452745 -0.8850949 
0.084713675 -0.35838073 -0.92972416 
0.408951 -0.15719704 -0.898915 
0.22182405 0.3905159 -0.89347154 
0.09389172 0.55188423 -0.8286182 
0.4896184 0.072847895 -0.86888844 
0.5703291 0.14085057 -0.8092502 
-0.09691642 0.4353767 -0.8950164 
0.029463226 -0.0494102 -0.99834394 
0.6794464 0.26570407 -0.68392545 
0.5086263 -0.75243837 -0.41849265 
0.65714264 -0.73683125 -0.15888132 
0.65385276 -0.10143779 -0.7497913 
0.20470996 -0.13497423 -0.96947193 
0.649775 -0.17298442 -0.7401816 
0.786894 -0.35790375 -0.5026955 
0.26083022 -0.36883575 -0.8921479 
0.16662934 -0.112841226 -0.97954154 
-0.5454633 0.2153653 -0.8099924 
0.11864707 0.31193623 -0.9426657 
0.2540115 0.44441134 -0.8590558 
0.18770409 0.07396182 -0.97943705 
-0.44772422 -0.34497958 -0.8249438 
-0.2517877 -0.39736748 -0.882441 
-0.11018603 -0.56626505 -0.81682503 
0.38326818 -0.2277903 -0.8951073 
0.08551026 0.053631946 -0.9948928 
-0.24008633 0.1062334 -0.9649213 
-0.40294287 0.04191781 -0.91426474 
-0.026801616 -0.47990927 -0.87690866 
-0.5284757 -0.07333537 -0.8457751 
0.39377442 -0.5385898 -0.74489117 
0.89673436 0.1290549 -0.42333478 
0.80223805 -0.079199746 -0.59172773 
0.3232166 0.28592193 -0.90209734 
-0.665634 0.5547733 -0.49915743 
0.3303681 0.7841264 -0.5253597 
-0.13442758 0.9730613 -0.18729909 
-0.0795677 0.5062372 -0.85871595 
0.5123126 -0.2785021 -0.81238693 
0.74880546 0.21091452 -0.62833554 
-0.0794588 -0.06823721 -0.9944999 
-0.13926391 0.62021005 -0.7719749 
0.38812366 -0.45480457 -0.80156904 
0.16765748 -0.22434762 -0.9599787 
0.51183915 0.24295051 -0.824012 
0.19604103 -0.7774379 -0.5976271 
-0.27054846 -0.31151795 -0.9109118 
-0.6932748 -0.43533912 -0.5743257 
-0.81287897 -0.35031348 -0.4653045 
-0.72265124 -0.40447327 -0.56051457 
-0.11526006 0.242113 -0.9633776 
0.7012778 0.31833592 -0.637865 
-0.10110874 0.30391607 -0.9473183 
-0.121111974 -0.18040182 -0.9761082 
-0.14256144 -0.90380675 -0.40349692 
0.17843068 -0.4831627 -0.8571559 
-0.17624904 -0.5892691 -0.7884785 
0.27687496 -0.5105389 -0.814058 
0.49128076 -0.586311 -0.64411384 
0.61916476 -0.78435403 0.03773256 
-0.056634553 -0.9980067 -0.027843276 
-0.7503843 -0.5915603 0.29492378 
0.05248261 -0.6674542 -0.74279916 
-0.3030202 0.07702556 -0.94986624 
-0.051743023 0.048059143 -0.9975034 
-0.3107216 -0.6147007 -0.72497946 
-0.25494847 -0.58710563 -0.7683153 
0.15194996 -0.7854102 -0.6000351 
0.73227996 -0.67999876 -0.03698466 
0.25469065 -0.46859726 -0.84590155 
0.39212367 -0.5122619 -0.7640857 
-0.035310242 -0.9686298 -0.24598719 
0.20171979 -0.6600134 -0.7236653 
-0.39190215 -0.31297094 -0.8651369 
-0.00042133403 0.4059603 -0.91389066 
0.012284644 0.8566459 -0.5157585 
-0.3862799 0.9220931 0.023074089 
-0.64171433 0.26722872 -0.71888214 
-0.29457694 -0.42564768 -0.85559845 
-0.6557923 0.2761544 -0.7026203 
-0.084185466 0.20780042 -0.97454184 
0.050804492 -0.6041386 -0.7952582 
0.26785386 0.13010095 -0.954635 
0.5412112 0.2333905 -0.8078487 
-0.16191682 0.24154428 -0.9567859 
0.17013036 -0.12425137 -0.9775568 
-0.015939424 0.1679351 -0.98566926 
0.13754052 -0.2634215 -0.9548256 
-0.3804831 -0.69416785 -0.6110349 
-0.22781713 -0.5703521 -0.7891755 
-0.87421083 0.19449914 -0.44488823 
0.009690841 -0.13403918 -0.99092865 
0.41618973 -0.22537306 -0.88090473 
0.5890713 -0.3796055 -0.71336865 
0.41302124 -0.61411136 -0.67251825 
-0.15353574 0.31901696 -0.93522996 
-0.73188025 -0.054316454 -0.6792651 
-0.2621213 0.39443538 -0.8807459 
0.59352463 0.18380648 -0.7835456 
0.16896324 0.21847163 -0.96110433 
-0.26599804 -0.8472083 -0.45987305 
-0.27652606 -0.2971742 -0.9139042 
0.26828107 -0.7646346 -0.5859688 
-0.010883676 -0.4408684 -0.89750576 
0.032939605 -0.4253762 -0.904417 
-0.3655075 -0.11730383 -0.9233873 
0.044455614 -0.098132215 -0.99417996 
-0.7543045 -0.43129975 -0.49497992 
-0.4892916 -0.44033974 -0.7527913 
-0.93829817 -0.16057856 -0.306286 
-0.464158 -0.12733532 -0.87655187 
-0.11609917 -0.39670652 -0.9105741 
-0.37413186 0.06694991 -0.9249557 
0.21518531 -0.0142661305 -0.9764691 
0.43069026 -0.7746009 -0.4631408 
0.5469833 -0.2422415 -0.80132914 
0.33909598 0.1135813 -0.93387 
0.32148474 0.17156863 -0.93124217 
0.75141907 -0.08627122 -0.65416104 
-0.09489313 -0.65115124 -0.7529922 
0.32210383 -0.85703105 -0.40217784 
-0.6206485 -0.7486182 -0.23316579 
-0.33863327 -0.45706204 -0.8224487 
0.35712194 -0.25452784 -0.89871 
0.25209537 -0.29325956 -0.92219675 
0.42759407 -0.6500851 -0.62813437 
-0.05675068 -0.9292434 -0.36508393 
0.40095326 -0.33819792 -0.8513863 
-0.027290761 -0.16362089 -0.9861458 
0.26010883 -0.50027853 -0.8258722 
0.09663632 -0.259577 -0.9608753 
0.20527649 -0.33674794 -0.91894644 
0.91034293 -0.16548851 -0.37932742 
0.63678205 -0.764475 -0.100432575 
0.5489135 -0.83079076 -0.09209102 
0.50543505 -0.8590086 -0.081483826 
-0.004568458 -0.9997837 -0.020291556 
0.20841622 -0.9588074 -0.19300555 
0.33988988 -0.9343163 -0.10736869 
0.5463896 -0.8054967 -0.22942044 
0.30157438 -0.3623238 -0.88191515 
0.32259858 -0.4963897 -0.80593264 
0.21726456 -0.25595295 -0.94195765 
-0.367583 -0.7627554 -0.5320592 
0.24893735 -0.556731 -0.7925155 
0.4627727 -0.32170296 -0.82604396 
0.30884638 -0.50721985 -0.8045756 
0.17355938 -0.49303958 -0.85251933 
-0.26820534 -0.58343446 -0.76659644 
-0.5164007 -0.2541486 -0.8177646 
-0.31897554 -0.6135018 -0.7224059 
-0.91463596 -0.21763928 -0.34069684 
-0.43070802 0.10228268 -0.89667654 
0.16697901 -0.2535437 -0.9528031 
-0.36402896 -0.1803613 -0.91375744 
0.5358192 -0.26021218 -0.8032357 
0.3795883 0.14321615 -0.9140033 
0.7361342 -0.036650818 -0.6758426 
0.20626831 -0.49420434 -0.8445208 
0.19543798 -0.69397867 -0.69296294 
-0.26366597 -0.8185442 -0.5103584 
-0.3879246 -0.72370434 -0.57075965 
0.057342205 -0.9635461 -0.26132515 
0.7835977 -0.0043361597 -0.62125355 
-0.56558335 -0.72850597 -0.38651586 
0.4738396 -0.13298622 -0.87051183 
0.19866644 0.53170794 -0.82329726 
0.31774834 0.3409422 -0.88475674 
0.14951809 -0.8955537 -0.4190799 
0.1457946 -0.7933291 -0.5910777 
0.37706515 -0.51489896 -0.7698708 
-0.32717085 -0.94473785 -0.020730665 
-0.6381993 -0.74000496 -0.21235448 
-0.2558381 -0.6787435 -0.68837076 
-0.094072565 -0.36486125 -0.92629737 
0.2881656 -0.19601013 -0.937305 
0.50136274 -0.8064555 -0.3134728 
0.52223235 -0.2906927 -0.8017302 
0.17360003 0.045479216 -0.9837656 
0.30702573 -0.40358558 -0.8618898 
0.43812653 0.12722737 -0.8898643 
0.06009591 0.16790253 -0.98397017 
0.3688866 -0.53934765 -0.7569854 
0.5659419 0.37449047 -0.73448396 
0.29587314 0.14818685 -0.94366294 
0.58622754 -0.1286949 -0.7998593 
0.4576886 -0.59901863 -0.65703726 
0.14227062 -0.70611674 -0.6936558 
0.51056904 -0.48525897 -0.7098191 
0.11768136 -0.29127166 -0.94937456 
0.11708991 -0.37373295 -0.9201161 
0.65274274 -0.5078547 -0.5621482 
-0.21565516 -0.5031491 -0.8368595 
-0.41357923 -0.24420871 -0.87710565 
0.57033 -0.5790577 -0.5825942 
-0.034935877 -0.26562002 -0.96344465 
-0.011809647 -0.49972746 -0.8661022 
0.23253922 -0.80948055 -0.5391354 
-0.20674466 -0.95421296 -0.21618107 
-0.2099357 -0.4757151 -0.85417926 
0.6919059 -0.51301396 -0.50801873 
0.6994227 -0.20817912 -0.68371737 
0.7348239 0.29948646 -0.60855716 
0.4485389 -0.3527329 -0.82121396 
0.50272167 -0.07133487 -0.86149997 
0.14802815 0.07378623 -0.98622686 
0.17037478 -0.41383326 -0.89426756 
-0.16675726 -0.649436 -0.7419063 
-0.018232113 0.05168836 -0.99849683 
0.13476554 0.21920414 -0.966327 
-0.39825204 -0.48990375 -0.7754931 
-0.011494168 -0.33742186 -0.94128346 
-0.015534411 -0.9272621 -0.37409046 
0.25556716 -0.9597094 0.11680554 
0.12433643 -0.84989554 -0.5120724 
0.12603647 -0.9160841 -0.3806636 
-0.100059725 -0.92339545 0.37057912 
0.18231891 -0.9047359 0.384984 
-0.38361144 -0.9129316 -0.1392779 
0.086021625 -0.99034977 -0.10866368 
0.23342523 -0.700762 -0.6741256 
-0.5902545 -0.67964286 -0.43552884 
-0.17730907 -0.66570395 -0.7248447 
0.08465563 0.0035678227 -0.9964039 
0.09583092 -0.67573345 -0.73089045 
-0.24200624 -0.9442703 -0.22312912 
-0.45914897 -0.802447 -0.3811314 
-0.24262254 -0.31843403 -0.91637003 
-0.5620457 -0.4226562 -0.71096164 
0.14513005 -0.38833585 -0.91001797 
-0.2389645 -0.32442373 -0.91522956 
-0.19482401 -0.44354877 -0.874819 
0.35099894 -0.23735449 -0.9057939 
0.21346131 -0.73453015 -0.64412713 
-0.01622975 -0.1637668 -0.9863656 
0.26593253 -0.74219483 -0.61516404 
-0.16972017 -0.7925164 -0.5857584 
-0.13382207 -0.5058302 -0.8521898 
-0.06451395 -0.50236374 -0.8622464 
-0.33819494 -0.45919278 -0.82144153 
0.12809765 -0.32223403 -0.9379532 
0.7212318 0.26963 -0.638063 
0.34223428 0.18632239 -0.92095584 
-0.087304816 0.00892508 -0.99614173 
-0.19927539 -0.20865704 -0.95747143 
-0.30291307 0.17496464 -0.9368197 
-0.3853239 -0.7521025 -0.5346655 
-0.81062835 0.14933223 -0.56619936 
-0.8205502 -0.012127023 -0.57144594 
-0.24174109 0.24820712 -0.9380589 
-0.02150415 -0.06675988 -0.9975374 
0.036508407 0.73732555 -0.6745504 
-0.5389916 0.44576323 -0.714691 
-0.4074541 -0.0978923 -0.9079639 
-0.34719154 0.12248137 -0.9297615 
0.06784306 -0.25286284 -0.9651206 
0.18891937 -0.15153055 -0.9702309 
0.42307472 -0.32479256 -0.8458828 
-0.027287787 0.3382638 -0.94065565 
0.367798 0.4031251 -0.83798265 
0.5660349 -0.29604566 -0.76939046 
0.50029165 0.30757406 -0.8093866 
0.0833532 -0.1627184 -0.9831455 
0.31758505 0.83638036 -0.44677457 
0.68329954 -0.166473 -0.7109068 
0.5908705 -0.4059778 -0.69717586 
-0.08186811 -0.99656534 0.012455534 
-0.16710787 -0.65881765 -0.7335082 
0.058344085 -0.46515763 -0.8833031 
-0.044571396 -0.18322362 -0.9820604 
-0.354396 -0.58577543 -0.7288832 
-0.36923227 -0.45497528 -0.8103488 
0.47840333 -0.08303977 -0.8742051 
0.77221614 -0.4214652 -0.4754464 
0.3050448 0.6361844 -0.7086729 
-0.32172328 0.4627262 -0.8260621 
-0.3075579 0.7830393 -0.54060864 
0.4433781 -0.06211152 -0.89418006 
0.29269448 0.36538523 -0.88364226 
-0.0033787591 -0.20824377 -0.9780711 
0.23399046 -0.5686805 -0.78857535 
-0.08297011 -0.059178416 -0.9947935 
-0.5161307 0.3292723 -0.7906888 
-0.28691712 -0.25016963 -0.9247128 
-0.12272914 -0.83423394 -0.5375792 
-0.22295468 -0.6200572 -0.7522104 
0.22606386 -0.73514915 -0.6391016 
0.5030463 0.14466676 -0.8520658 
0.45066813 0.43885335 -0.7773713 
0.47591865 -0.36920816 -0.79823995 
-0.90514016 0.009109141 -0.42501563 
-0.6886341 0.6552224 -0.31059098 
-0.5148192 0.85054755 -0.10737854 
0.21356578 0.71022785 -0.67079514 
0.8293659 -0.20447978 -0.51994246 
0.8197075 0.36582336 -0.44074148 
0.4822861 -0.6164807 -0.62237585 
-0.04440518 -0.39560583 -0.9173463 
-0.05506431 -0.049839146 -0.9972382 
0.23763865 -0.60370374 -0.76096636 
0.21660416 -0.40928236 -0.8863243 
-0.27309978 -0.30025026 -0.9139291 
-0.32906443 -0.5728376 -0.75071543 
-0.68985003 -0.33681202 -0.64083123 
-0.43992725 -0.035612084 -0.8973271 
-0.5333709 0.4814464 -0.6955033 
-0.19712913 0.011157576 -0.9803141 
0.14863345 0.1384852 -0.9791476 
0.7333936 -0.21743469 -0.6440932 
-0.43753636 0.41129705 -0.79962283 
-0.570577 -0.473417 -0.6710576 
0.016921788 -0.83109564 -0.5558721 
0.3686402 -0.34703 -0.8623658 
0.43025684 -0.60730946 -0.66787297 
0.30363587 -0.11239155 -0.94613606 
0.21788566 -0.8043564 -0.5527538 
-0.07355272 -0.9784623 -0.1928772 
-0.36130583 -0.9269886 -0.10074892 
0.08937991 -0.52898735 -0.8439098 
0.16161142 -0.3379464 -0.9271861 
-0.05211345 -0.38147044 -0.92291087 
-0.2533811 -0.24799173 -0.9350392 
0.055259034 -0.20221019 -0.97778195 
0.5920576 -0.4980613 -0.63356364 
0.6987844 -0.28919244 -0.65426916 
0.6196485 -0.10880954 -0.7773006 
0.20770396 -0.27202028 -0.9396085 
0.13627042 -0.16256137 -0.9772431 
0.14459608 -0.38202927 -0.9127682 
-0.10819596 0.36306658 -0.9254601 
0.41233718 0.12897031 -0.90185624 
0.045288824 0.42208084 -0.90542626 
-0.39877334 0.78215873 -0.47875634 
-0.08915181 0.88068634 -0.46523494 
-0.46043837 -0.07772271 -0.88428265 
-0.70734555 -0.4415228 -0.5520145 
-0.22933899 0.5441018 -0.8070669 
0.050273146 -0.39713693 -0.9163814 
-0.28253415 0.4207921 -0.8620375 
-0.16500773 -0.020898158 -0.9860709 
-0.5669958 -0.24336675 -0.78694874 
-0.1196725 -0.5229586 -0.8439153 
0.11001949 -0.48593011 -0.8670454 
-0.07896446 -0.6384964 -0.76556325 
-0.2510964 -0.02705749 -0.96758384 
-0.11562297 -0.43521023 -0.8928737 
-0.22542278 -0.9192735 -0.32267755 
-0.47686404 -0.41704282 -0.7737415 
0.3794026 -0.27923542 -0.88208926 
0.088782154 -0.4299267 -0.8984881 
0.34569588 -0.07076369 -0.9356746 
-0.15734495 0.1909928 -0.96889853 
-0.33583063 -0.0885606 -0.93774986 
0.42057112 0.21825257 -0.8806168 
0.6758646 0.18186884 -0.71423453 
0.88808346 -0.30195206 -0.3466019 
0.4614319 -0.7996643 -0.38421032 
0.37384883 -0.71052366 -0.5961487 
0.041252706 -0.33209336 -0.94234407 
0.64854354 -0.47266206 -0.59664214 
0.10234516 0.15571773 -0.9824854 
0.10998144 0.50148714 -0.85814613 
0.5276873 -0.07623601 -0.8460107 