# OOMMF: rectangular mesh v1.0
# Segment count: 1
# Begin: Segment
# Begin: Header
# Desc: Time (s) :  6.490000000000013e-07
# Title: m
# meshtype: rectangular
# meshunit: m
# xbase: 2e-09
# ybase: 2e-09
# zbase: 5e-10
# xstepsize: 4e-09
# ystepsize: 4e-09
# zstepsize: 1e-09
# xmin: 0
# ymin: 0
# zmin: 0
# xmax: 1.024e-06
# ymax: 1.024e-06
# zmax: 1e-09
# xnodes: 256
# ynodes: 256
# znodes: 1
# ValueRangeMinMag: 1e-08
# ValueRangeMaxMag: 1
# valueunit: 
# valuemultiplier: 1
# End: Header
# Begin: Data Text
-0.70137495 0.44102687 -0.559972 
-0.6980704 -0.67843884 0.22895089 
-0.77724165 -0.6261325 0.062077153 
-0.7868869 0.39540395 0.47377715 
-0.516948 -0.7746366 0.36428407 
-0.6716812 -0.6233809 0.40030077 
0.14296952 -0.419775 0.8962972 
-0.7369958 -0.613249 -0.28418815 
-0.3045837 0.059693076 -0.95061326 
-0.24723907 -0.94950706 -0.19315605 
-0.37431452 -0.8788031 -0.29596275 
-0.36354473 -0.66281134 -0.65461177 
0.2634263 -0.60888875 -0.7482387 
-0.70168823 -0.52265155 -0.48422003 
-0.3503519 -0.017800832 -0.936449 
0.36484674 -0.15491024 -0.9180902 
0.79631454 -0.19503653 -0.5725767 
0.9800038 -0.012509171 -0.19858514 
-0.31883553 -0.792669 -0.51963437 
0.6356935 -0.76417834 0.1092032 
0.2754434 -0.94402444 0.18151815 
0.16715242 -0.6463627 -0.74449676 
0.11476005 -0.70107853 -0.7037891 
-0.92701966 -0.36853266 -0.06941409 
-0.6415603 -0.45966536 -0.6140914 
-0.62417334 0.7507546 -0.21627598 
0.33968344 0.28823203 -0.8952862 
0.00745671 0.09161541 -0.99576664 
-0.2501111 0.14512698 -0.95727885 
-0.53528214 -0.5535082 -0.6380453 
0.41880777 -0.72799605 0.54279083 
-0.028823199 -0.9917705 0.12474247 
0.3111294 -0.9475565 0.07304192 
0.028580926 -0.9991612 0.02932888 
-0.41572028 -0.6293946 0.6565358 
0.6816208 -0.56642455 0.46320227 
0.13205786 -0.92310685 0.36115715 
0.8281034 -0.55515534 -0.07776458 
0.12537163 -0.9746416 0.18535273 
-0.12304496 -0.8702153 -0.47705913 
0.24532062 -0.9222192 -0.29888058 
-0.34890515 -0.79604965 -0.49454048 
0.22783238 -0.017348556 -0.97354585 
0.7145408 0.021502092 -0.69926333 
-0.16040695 -0.4433341 -0.8818869 
-0.7716281 -0.19123037 -0.60664755 
-0.19540846 0.2518431 -0.94783473 
-0.39857492 -0.16778508 -0.9016576 
-0.09962612 -0.14461593 -0.98445976 
0.51372296 -0.5131981 -0.6875438 
0.5034552 -0.7361046 -0.45241907 
0.38754997 -0.47677198 -0.7889826 
-0.6774362 -0.6841921 -0.2701137 
-0.38697514 -0.34202397 -0.8563118 
-0.28517213 -0.37484875 -0.8821368 
0.35126847 -0.43597192 -0.82857645 
-0.12653866 -0.7224818 0.6797118 
0.37947255 -0.91292614 -0.15022172 
0.6362372 -0.6301935 -0.4450376 
0.21375023 -0.93865305 0.27063116 
-0.48012906 -0.86196357 0.1627724 
-0.80060905 -0.23240702 -0.5522792 
-0.9911289 -0.111778826 -0.07189677 
-0.56577766 -0.4446662 -0.6943829 
-0.8437598 -0.53170985 0.073172905 
-0.14494771 -0.7111628 -0.6879227 
-0.0060801315 -0.49934435 -0.86638236 
-0.6078556 -0.5847775 -0.5371656 
-0.17620982 -0.9695537 -0.17004651 
0.46973637 -0.76823264 -0.43493256 
0.8726463 -0.4882258 0.011143292 
-0.03295151 -0.68629706 -0.72657454 
0.3755438 -0.5225389 -0.7654541 
0.20541424 -0.94937116 0.23769592 
-0.1630155 -0.92939264 0.33114234 
-0.51237553 -0.57174134 -0.6407677 
-0.44809124 -0.6333444 -0.63094306 
-0.2177764 -0.97119874 0.09667765 
-0.32238135 -0.7693184 -0.5515609 
-0.7355709 -0.62307477 0.26591966 
-0.47646493 -0.5184867 -0.7100371 
-0.48125967 -0.483952 -0.730876 
-0.4210171 -0.24551067 -0.8731949 
0.7133862 -0.26862735 -0.6472399 
0.516647 -0.85454947 0.053116065 
0.46186718 -0.35459232 0.812984 
-0.44183978 -0.8433757 0.30576977 
-0.13455653 -0.7113375 0.68985045 
-0.5958415 0.18693721 0.7810426 
-0.6850047 -0.7072486 0.17483687 
-0.6118353 -0.6873198 -0.39147034 
-0.2541922 -0.85195196 -0.45778194 
0.095006846 -0.738178 -0.6678825 
0.21967448 -0.9604709 -0.1709935 
0.0038024487 -0.99990654 -0.013134702 
-0.49164167 -0.6747158 0.5504972 
-0.08620521 -0.32078266 -0.9432217 
-0.85041517 -0.036773242 -0.52482545 
-0.5303853 0.50266224 -0.6826582 
-0.993003 0.082973234 -0.08402687 
-0.83686304 -0.45611823 -0.3026821 
-0.21048301 -0.37146446 -0.90427387 
0.14696763 -0.8069931 0.57198143 
-0.38112053 -0.6847957 0.62112963 
-0.36909884 -0.892123 -0.2605433 
-0.14483301 -0.17767246 -0.9733735 
-0.8641668 -0.1636344 -0.4758568 
-0.57427347 0.19196269 -0.79583937 
-0.108184345 -0.8724741 -0.47653463 
0.069846146 -0.98620224 0.15008923 
-0.039015356 -0.5535586 -0.83189595 
0.85095805 -0.5220946 0.05733861 
-0.16128118 -0.9370411 0.3097456 
-0.7767976 0.030157942 0.62902796 
-0.9520418 0.0581274 0.30039576 
-0.8223145 -0.41101515 -0.39352944 
-0.42400166 0.4956322 -0.75800496 
-0.8964097 0.1054094 -0.43050963 
-0.5330308 -0.81527096 -0.22629967 
0.51755756 0.21131909 -0.8291433 
0.40520355 -0.8304531 -0.3823058 
-0.46988356 -0.78725916 -0.39929006 
-0.21409495 -0.5558501 -0.80323976 
-0.35418996 -0.6816447 -0.6402422 
-0.45997584 -0.8090561 -0.36585575 
-0.52070284 -0.83876115 0.15921146 
-0.0972567 -0.726451 -0.68030155 
-0.5284863 -0.26573747 -0.80627906 
0.026536116 -0.051072452 -0.99834234 
-0.23701744 0.15902276 -0.95840216 
0.41093487 -0.5345037 -0.738538 
0.5338672 -0.5144407 -0.6710713 
0.34593424 -0.7964418 -0.49599385 
0.1531402 -0.5456208 -0.82392126 
-0.3952112 -0.61584175 -0.68157697 
-0.59500545 -0.66922516 -0.44509128 
-0.16006844 -0.9727558 -0.16770296 
-0.5681284 -0.76843745 -0.2945064 
-0.1281119 -0.81997645 0.5578764 
-0.64778465 -0.74858135 0.14142531 
0.081142 -0.3613693 -0.9288855 
0.1281264 -0.41575366 -0.90040696 
0.1604034 0.199484 -0.9666835 
0.48657545 0.04536845 -0.87245977 
-0.37430885 0.12801453 -0.91842544 
-0.43099836 -0.5022336 -0.7496679 
-0.22412965 -0.8821832 -0.4141482 
-0.17865199 -0.96585906 -0.18761627 
0.3671211 -0.20325242 -0.9076952 
0.20843807 0.2836102 -0.9360122 
0.43431127 0.42890322 -0.79209584 
0.46161297 -0.11371025 -0.8797634 
0.5516411 -0.008835588 -0.8340349 
0.27232164 -0.41759956 -0.86686313 
-0.3070658 -0.7523019 -0.58288294 
-0.7327031 -0.6749258 -0.08730108 
-0.32254717 -0.9428657 0.08347241 
-0.2169009 -0.6124892 -0.76013887 
0.2879838 -0.9505763 -0.11606033 
-0.085137025 -0.87303555 0.48016733 
-0.12393419 -0.8268311 -0.5486263 
-0.28979102 -0.70706594 -0.6450418 
0.27728453 -0.9403289 -0.19721812 
-0.01844989 -0.97056425 0.24013461 
-0.074550286 -0.9115629 -0.4043455 
-0.16039771 -0.14101943 -0.9769269 
-0.8917454 -0.051057406 -0.44964796 
-0.67125994 -0.05354276 -0.7392857 
-0.037525427 0.67195123 -0.7396441 
0.7338419 0.59942037 -0.31964245 
0.37071204 0.743985 -0.55593073 
0.14897189 -0.72648424 -0.67084134 
0.69091135 -0.63710105 -0.34167796 
0.19924738 -0.7684367 -0.6081165 
0.23182352 -0.056837507 -0.971096 
0.075048335 -0.32279235 -0.9434898 
-0.0016743354 -0.0010155109 -0.99999815 
-0.13599677 -0.78370833 -0.6060578 
0.013373086 -0.99921316 0.037341535 
0.35189548 -0.9356597 0.026656087 
0.8198663 -0.47391626 0.32128304 
-0.19172119 0.0063134674 0.98142916 
-0.10097704 -0.02365557 0.99460757 
-0.19455309 -0.78480065 0.588419 
-0.8056565 -0.48025298 0.34680647 
-0.1882089 -0.8262904 -0.53086877 
0.057584483 -0.16706327 -0.9842632 
-0.1747597 -0.13234405 -0.97567624 
-0.5013425 -0.09863346 -0.8596087 
-0.12961571 -0.031386435 -0.99106747 
-0.470106 0.093224645 -0.8776729 
-0.19836763 0.17792736 -0.96384245 
-0.90702975 -0.35894272 -0.22013018 
-0.45678565 -0.15691401 -0.87562835 
-0.65028185 -0.7481093 -0.13215956 
-0.31894258 -0.80674136 -0.49743736 
-0.88784397 -0.23496994 -0.39562917 
-0.3644373 -0.34870812 -0.86347455 
-0.91905326 -0.3452191 0.19017093 
-0.9199317 0.3169582 -0.2307882 
-0.82319766 -0.49785417 -0.272923 
-0.8508482 -0.28207645 -0.44327217 
-0.27786174 -0.844491 -0.45785138 
0.18656191 -0.902921 -0.38720563 
0.046919055 -0.82097244 -0.5690368 
0.19233485 -0.5905674 -0.78373307 
0.8483016 -0.0972859 -0.52049965 
0.24965654 -0.8455164 -0.47198907 
0.6518047 -0.7580649 -0.022096112 
0.32240844 -0.7805165 0.5355809 
-0.50800323 -0.71550137 0.47957325 
-0.484076 0.023947863 -0.8746982 
-0.260706 -0.92345124 -0.2815498 
-0.4001704 -0.44514722 -0.8010667 
0.10851371 -0.17885959 -0.97787225 
-0.05481054 -0.85506094 -0.51562256 
-0.42735022 -0.5605665 -0.70932156 
-0.8952586 -0.4092226 -0.17620735 
-0.45277694 -0.039676446 -0.8907407 
0.06593574 -0.53540266 -0.8420194 
0.7542617 -0.64133614 -0.14063196 
-0.059574865 -0.5123857 -0.8566864 
-0.42946178 -0.56391054 -0.70538473 
-0.72744304 -0.6339706 -0.2625032 
-0.4671689 -0.88113046 -0.07322899 
-0.42679358 -0.7568789 -0.4949563 
-0.7894832 -0.60692567 -0.091419056 
-0.42961213 0.16717733 -0.88740367 
-0.10628068 0.22747403 -0.967967 
0.088913426 0.76591474 -0.6367646 
0.32295272 0.073510125 -0.943556 
-0.28863195 -0.51282793 -0.8085166 
0.022579134 -0.93309975 -0.35890812 
-0.24974135 -0.93367344 -0.2566774 
-0.36220288 -0.41053697 -0.8368205 
0.116771296 -0.7448226 -0.6569656 
0.44438082 -0.8833551 -0.14902848 
0.2710673 -0.7169812 -0.6422309 
0.7937971 -0.037485868 -0.6070265 
0.48694313 -0.38156822 -0.7856794 
0.22784992 -0.3915327 -0.89150816 
-0.34244984 0.008048796 -0.93950164 
-0.40639767 -0.59306115 -0.695068 
-0.64294773 -0.2729599 -0.7156194 
0.028910689 -0.16190447 -0.9863829 
0.2561427 -0.17699045 -0.95029753 
-0.2564676 -0.55816954 -0.7890952 
0.20231369 -0.58606154 -0.7846025 
0.5086406 -0.83450073 -0.21188058 
-0.006470559 -0.9478878 -0.31853896 
0.35989782 -0.26294884 -0.8951712 
-0.28618804 -0.24016969 -0.92758554 
-0.19188106 -0.98031133 -0.04659892 
0.48603946 -0.8658114 -0.11889595 
0.44176853 -0.8100256 -0.3856153 
0.708005 -0.21966043 -0.67117685 
-0.4461617 0.085336365 -0.8908746 
-0.19293882 -0.14512198 -0.9704197 
-0.21202247 -0.4118172 -0.886258 
-0.53053427 -0.51650673 -0.67212665 
-0.3619489 -0.46112618 -0.81015784 
-0.05150107 -0.99819785 -0.030802371 
-0.31573746 -0.94488496 0.0866166 
-0.48036012 -0.55308634 -0.680698 
-0.40945446 -0.55491936 -0.72416264 
0.15659077 -0.68236536 -0.7140427 
-0.16260011 -0.39273044 -0.9051652 
-0.1703962 -0.8886292 -0.42579743 
0.29021645 -0.44810405 -0.8455633 
0.1676002 -0.4532228 -0.8754994 
0.34638387 -0.06993607 -0.9354824 
-0.13911128 -0.3725688 -0.9175187 
0.6341301 -0.5724144 -0.5198276 
0.7009546 -0.5539737 -0.44919467 
-0.100270376 -0.48627126 -0.86803585 
0.5891432 -0.7175594 -0.37150878 
0.41699117 -0.87862414 -0.23267558 
0.44134387 -0.87671524 -0.19127475 
0.6697767 -0.69239014 0.2683192 
-0.5118167 -0.8588876 -0.018861411 
-0.7690878 -0.16540033 -0.61737096 
-0.5125988 0.79315084 -0.32886794 
-0.03267773 -0.024937807 -0.99915487 
-0.25929552 0.20838228 -0.94304967 
-0.26888636 -0.6259119 -0.7320755 
0.2610719 -0.6749849 -0.6900993 
0.14493422 -0.96226007 -0.23032503 
-0.23045154 -0.7120188 -0.6632657 
0.037725035 -0.96691966 -0.25227612 
0.09275412 -0.5872203 0.8040952 
0.26834005 -0.96322614 0.013755365 
0.47281164 -0.88011616 -0.04295177 
0.18660197 -0.96034324 -0.2071731 
0.29981652 -0.55634725 -0.774976 
0.41303977 -0.24712946 -0.8765417 
-0.5214161 -0.6793121 -0.51639175 
-0.054586656 -0.50988793 -0.8585072 
-0.19712399 -0.94002277 -0.27838695 
-0.28104103 -0.30157495 -0.91108096 
0.63001484 0.02244069 -0.7762589 
0.11841265 0.19896232 -0.9728271 
-0.086241275 0.18830554 -0.9783167 
0.17209496 -0.478103 -0.8612787 
-0.267711 -0.44519138 -0.8544797 
-0.23501953 -0.58369523 -0.77721673 
-0.36969295 -0.23108193 -0.8999602 
-0.26128724 -0.54036164 -0.7998365 
-0.021010563 -0.62022686 -0.7841411 
-0.41023648 -0.26667747 -0.8721177 
-0.54786325 -0.21085793 -0.80955845 
0.07649321 -0.88379186 -0.4615852 
-0.10930399 -0.7264468 -0.6784746 
-0.2103422 -0.9773164 0.02467751 
0.40930852 -0.91003466 0.065600514 
-0.32963192 -0.8529862 -0.40466943 
0.011387907 -0.91742295 -0.3977506 
-0.07301987 -0.74909717 -0.65842354 
-0.19373874 -0.7395348 -0.6446345 
-0.7012585 -0.67686075 0.22382163 
-0.69202435 0.19341806 -0.6954795 
-0.53933966 0.057290703 -0.84013724 
-0.30323508 -0.6991391 -0.64749753 
-0.50870174 -0.49891654 -0.7016445 
-0.23288438 -0.86767393 -0.43921164 
-0.29020226 -0.8192572 -0.49457094 
0.21067558 -0.9769929 -0.03317723 
0.4764741 -0.8248065 -0.30441207 
0.46082932 -0.64218366 -0.6125655 
0.42608187 -0.0073116366 -0.90465504 
0.2617813 -0.79518783 -0.5469432 
-0.30418313 -0.9054895 -0.2959076 
-0.14933196 -0.92443746 -0.35087782 
0.110463776 -0.9138812 -0.3906649 
-0.4376021 -0.89810365 -0.043753643 
-0.46873575 -0.42379066 -0.77504075 
-0.0879612 -0.95886236 -0.26989993 
-0.78953403 -0.613232 0.024138173 
-0.41695204 -0.48082593 -0.77133477 
0.17219065 -0.5272083 -0.8321068 
0.27319172 -0.8593127 -0.43237484 
0.8359741 -0.5485534 -0.015381092 
0.550587 -0.6949193 0.46253774 
-0.45286226 -0.7551894 0.47392488 
-0.25340116 -0.9602244 0.11729034 
-0.8521763 -0.51298636 -0.103153534 
-0.18864857 -0.9817667 0.023364095 
-0.8255217 -0.5561016 0.09625435 
-0.11002451 -0.9638839 -0.24253362 
0.24569625 -0.35362628 -0.90254194 
0.3436424 -0.61534846 -0.7094056 
0.5299454 -0.8336278 -0.15563592 
0.68072945 -0.73253363 -0.0014286094 
0.30146146 -0.59164417 -0.74771535 
-0.25870314 -0.34368855 -0.9027463 
-0.40565434 0.619133 -0.6723979 
-0.2940554 0.40803605 -0.86431366 
0.8272607 -0.24824947 -0.503996 
0.43442744 -0.799287 -0.4152265 
0.2077417 -0.97797585 -0.020168465 
-0.8743339 -0.45712978 0.16301103 
-0.65561795 -0.62050563 -0.43027657 
-0.20362474 -0.48219144 -0.8520731 
-0.11754391 -0.3401828 -0.93298393 
-0.9214737 -0.2164439 -0.32254958 
-0.26890558 -0.8981646 -0.34783646 
0.30924034 -0.91252357 -0.26771477 
0.3603405 -0.37558743 -0.85386693 
0.2944532 -0.4759015 -0.82874316 
-0.6286876 -0.76828605 0.120368406 
-0.47929004 -0.8629612 0.1599352 
-0.81263685 -0.35913444 -0.45895943 
-0.9152791 -0.12614864 -0.3825582 
-0.8447694 0.18713363 -0.5013439 
-0.5048589 -0.7589926 -0.4111544 
-0.79331946 -0.6068864 -0.048302546 
-0.5410709 -0.015104321 -0.8408414 
-0.46240595 -0.071988605 -0.88374126 
-0.80288106 -0.50457597 -0.31746677 
-0.92462903 -0.3350987 -0.18102477 
-0.11210382 -0.5123643 -0.8514197 
-0.38489437 -0.76739544 -0.5127968 
0.24324165 -0.39609367 -0.8854057 
0.64627534 -0.1482177 -0.74857175 
-0.13406852 0.31690708 -0.93893325 
-0.2575313 0.48949996 -0.83310723 
-0.1435353 0.13554734 -0.98031867 
-0.11691594 0.8028332 -0.5846277 
-0.12298753 -0.32712665 -0.93694305 
-0.35147166 -0.68900293 -0.63383174 
-0.2748193 -0.39431912 -0.876919 
-0.31447384 0.35015354 -0.88232577 
-0.016762944 -0.4859978 -0.87379926 
-0.41491076 -0.5242855 -0.74362206 
-0.18988636 -0.5476334 -0.814887 
-0.15266186 -0.75409126 -0.63878065 
-0.2688044 -0.8793486 0.39305285 
-0.3528528 -0.4785276 -0.8040561 
-0.1981561 -0.3766866 -0.9048985 
-0.72711515 -0.084852025 -0.68125165 
-0.17481203 -0.038781323 -0.9838378 
0.3719459 0.5931371 -0.71403414 
-0.25676712 -0.63489413 -0.7286839 
0.36232233 -0.5973375 -0.71547925 
-0.22958183 -0.48959762 -0.8411816 
0.03522109 -0.5172687 -0.85509807 
-0.28421414 -0.6831638 -0.6726883 
-0.32098514 -0.05457407 -0.94551057 
-0.26485705 -0.35103709 -0.89812243 
0.8451425 -0.29725552 -0.4442671 
0.4995652 -0.7520047 -0.43002743 
-0.15075196 -0.45489797 -0.87769115 
-0.2826253 -0.74729675 -0.60139054 
-0.3777771 -0.83286434 -0.40450162 
-0.14834353 -0.74902797 -0.64571774 
0.25405785 -0.96466285 -0.06985811 
-0.83251226 0.038703877 0.5526532 
-0.7530814 -0.39865592 -0.52339464 
-0.09959629 -0.90956014 -0.4034615 
0.7113341 -0.2098315 -0.67080146 
0.6096204 -0.059974927 -0.7904215 
0.65732586 -0.4785918 -0.58212775 
-0.25031298 -0.6626343 -0.70587486 
0.28376827 -0.5413335 -0.7914757 
0.056751862 0.06758459 -0.9960982 
-0.25747317 -0.30890158 -0.9155804 
0.020083582 -0.28058824 -0.95961815 
0.59363353 -0.21811861 -0.7746119 
0.5137446 -0.09699897 -0.8524422 
0.58232373 0.13993739 -0.80082244 
-0.51598316 0.39683464 -0.7591336 
-0.06780716 -0.07395414 -0.9949538 
-0.8536942 -0.34063977 -0.39391735 
-0.71447223 0.029430648 -0.6990446 
-0.27509236 -0.5303234 -0.80192363 
-0.23968592 -0.9045432 -0.35263628 
0.053722706 -0.92857724 0.36723042 
0.08499087 -0.95500296 0.28415835 
-0.09943188 -0.89863026 0.42729023 
-0.55129874 -0.7086344 0.4403489 
-0.49060935 -0.6041411 0.62794584 
-0.5277115 -0.71452415 0.45932108 
-0.59868944 -0.78905886 0.13768514 
-0.614472 -0.771911 -0.16302603 
-0.65575176 0.5405813 -0.52703094 
0.08607988 0.63233954 -0.7698941 
-0.2516324 0.48828843 -0.83561695 
-0.08827636 0.921474 -0.37827644 
-0.6305417 -0.09106458 -0.77079463 
-0.8983647 -0.033524536 -0.437969 
-0.4313454 0.004314205 -0.9021766 
0.19553083 0.0013110933 -0.9806967 
0.022150405 -0.23877943 -0.9708212 
-0.20424068 0.002189623 -0.97891825 
-0.21110074 -0.34875396 -0.91313046 
-0.68954736 -0.61049265 -0.38964507 
-0.7727857 -0.5768492 -0.26466444 
-0.6773194 -0.5318824 -0.50827116 
-0.63677156 -0.11115851 -0.762998 
-0.3642518 -0.11576124 -0.924078 
-0.1938764 -0.65790755 -0.7277154 
-0.11788567 -0.333835 -0.93523115 
0.046109766 -0.63858 -0.7681728 
0.1490763 -0.47872797 -0.8652143 
0.16938621 -0.9780229 -0.12157113 
0.15800318 -0.7078411 -0.68847364 
-0.07407147 -0.8262373 -0.5584311 
-0.35568252 -0.9245681 0.13661577 
-0.4073234 -0.51922995 -0.7513241 
-0.17588268 -0.12396377 -0.9765748 
-0.29029256 -0.2555172 -0.92219365 
-0.39699546 -0.17610508 -0.90076727 
-0.4341097 -0.6952633 -0.57285064 
-0.005774368 -0.8587022 -0.51244235 
0.11909058 -0.91101676 -0.39479873 
-0.23356153 -0.41588202 -0.8789148 
-0.4761849 -0.055244908 -0.87760806 
0.22640117 -0.15631457 -0.96140957 
0.33468738 -0.05126891 -0.9409335 
0.3453639 -0.12839669 -0.92964417 
0.68625826 -0.02237905 -0.72701365 
0.1694778 -0.9359393 -0.3086986 
-0.6693238 -0.6550058 -0.35067508 
-0.65963054 -0.5952212 -0.4589111 
-0.5013698 0.13430674 -0.8547456 
-0.10437863 0.21573015 -0.97085816 
0.119122766 0.52914405 -0.8401288 
0.21270616 0.03583377 -0.97645897 
0.14175473 -0.4441012 -0.88469195 
0.014226871 -0.72549486 -0.6880806 
0.17356357 -0.2699716 -0.9470961 
-0.047127824 -0.5914498 -0.8049635 
0.18916264 -0.39957625 -0.8969706 
0.06994962 -0.49469608 -0.86624646 
0.20110808 -0.7389147 -0.6430868 
0.74561995 0.49029943 -0.4512841 
-0.009313717 -0.2786035 -0.96036106 
0.054468438 0.19814466 -0.9786582 
0.23158403 -0.2946909 -0.9271063 
0.07454835 -0.5050137 -0.859886 
-0.12525237 -0.729339 -0.6725894 
0.66140413 -0.22937337 -0.71409565 
-0.5207304 -0.4298711 -0.73759806 
-0.18417732 -0.47695687 -0.8594131 
0.38844192 0.2304136 -0.89220095 
0.0038671612 -0.47606537 -0.87940145 
-0.2655409 -0.80534834 -0.5300019 
0.8214108 -0.25125083 -0.51201314 
0.057151344 -0.076422885 -0.9954363 
0.48058516 -0.25339136 -0.83954203 
0.6489825 -0.60176617 -0.46550956 
0.43046287 -0.6674002 -0.6076831 
0.3789611 -0.5824004 -0.7191651 
-0.46651214 -0.28642032 -0.83685714 
-0.4336804 -0.1865415 -0.8815462 
-0.038953874 -0.0017111502 -0.99923956 
-0.35975233 -0.34544596 -0.8667441 
0.28166297 -0.0462577 -0.9583978 
-0.66087836 -0.7405031 -0.12204571 
-0.91342527 -0.21320422 -0.3466965 
0.5039704 -0.08421079 -0.859606 
0.594058 0.19196197 -0.7811823 
0.5090142 -0.59165746 -0.6251769 
-0.07580733 -0.5204104 -0.8505447 
0.40440494 -0.74564815 -0.5295901 
0.3219838 -0.52928746 -0.78497213 
0.29092425 -0.16363335 -0.94264907 
-0.10423315 -0.3395891 -0.9347806 
0.0707261 -0.42687038 -0.9015429 
-0.10237683 -0.85264754 -0.5123584 
-0.07389941 -0.5289905 -0.845404 
-0.45837528 -0.2664333 -0.847883 
-0.18845843 -0.5326054 -0.82511514 
0.3041125 -0.3055303 -0.902312 
0.07993815 -0.785232 -0.61402005 
0.3011704 -0.8349736 -0.46056005 
-0.3264233 -0.82329154 -0.46436945 
-0.42711046 -0.2728175 -0.8620599 
-0.66726965 0.41979873 -0.61524004 
-0.18292509 0.052697115 -0.9817136 
-0.097948484 -0.22248594 -0.9700032 
0.061451055 -0.19849455 -0.9781737 
0.40075204 -0.6509129 -0.644756 
0.4365662 -0.82158107 -0.3666259 
-0.11515717 -0.7845882 -0.60922915 
0.23011236 -0.5556341 -0.79894876 
-0.4115085 -0.89423233 -0.17609444 
-0.12680908 -0.5861159 -0.8002423 
0.48014256 -0.796647 -0.36717388 
0.6825238 -0.6677835 -0.29702964 
-0.6377606 -0.3004736 -0.7092088 
-0.23117396 -0.086179726 -0.9690881 
-0.11258514 -0.4687307 -0.876137 
-0.27323973 -0.21548004 -0.9375012 
-0.22961132 -0.46321434 -0.8559855 
0.29972684 -0.10905105 -0.947772 
0.6061079 0.26296988 -0.7506531 
0.51970136 0.37897906 -0.76569283 
0.3650144 0.40035215 -0.8405252 
0.8576606 0.255272 -0.4463792 
0.6815056 -0.48844352 -0.54495233 
0.42617494 -0.67387354 -0.60354733 
0.2515943 -0.35263595 -0.90130365 
-0.11367181 -0.57283014 -0.81175387 
0.17640682 -0.673462 -0.71786463 
-0.40466177 -0.888587 -0.21601376 
-0.2804797 -0.8641689 -0.417784 
0.44821858 -0.87836856 -0.1660385 
-0.449374 -0.85924923 -0.24444593 
0.02623783 -0.60501325 -0.79578304 
-0.45959818 -0.8413665 -0.28438002 
0.49622655 -0.8178697 -0.29128766 
0.4056835 -0.69426084 -0.5944938 
0.5744705 -0.73835176 -0.35329914 
-0.7066674 -0.65266335 -0.2732249 
-0.9197567 -0.21967538 -0.32525444 
-0.7622117 -0.21907781 -0.60912913 
-0.56260276 -0.8036614 -0.19392435 
-0.7416099 -0.5426933 -0.3943335 
-0.5695284 -0.6521433 -0.5003464 
-0.196856 -0.8075246 -0.5560142 
-0.14874035 -0.92849916 -0.34024364 
-0.43464658 -0.89367914 0.11144542 
-0.0065323813 -0.844397 -0.53567815 
-0.032473907 -0.49964008 -0.8656242 
-0.042337053 -0.61945415 -0.7838904 
-0.45470342 -0.57597846 -0.67933327 
-0.018243559 -0.8810593 -0.47265387 
-0.037093367 -0.585185 -0.810051 
-0.038176335 -0.6987097 -0.714386 
-0.14909592 -0.57412916 -0.80507517 
-0.044326484 -0.21268542 -0.9761148 
0.64012694 -0.58747244 -0.4950896 
-0.053640895 -0.7012104 -0.7109337 
-0.28222796 -0.3700141 -0.8851198 
0.48503494 -0.5133283 -0.7079797 
0.52019626 -0.8037098 -0.28887093 
0.64034325 -0.76545966 -0.0634985 
0.45901236 -0.7510891 -0.4745237 
0.13394526 -0.9408139 -0.31133246 
-0.26741603 -0.9553096 -0.12598473 
-0.11301175 -0.8256897 -0.55268884 
0.025814991 -0.6528942 -0.75700915 
-0.7846014 -0.61562693 -0.07351277 
-0.38973448 -0.7290902 -0.56261414 
0.30679256 -0.41887707 -0.8546463 
0.603317 -0.2597333 -0.7540207 
-0.08933698 -0.5599207 -0.82371587 
0.18295331 -0.5133647 -0.8384419 
-0.25576547 -0.45487309 -0.85303843 
-0.48285004 0.5522707 -0.6795977 
0.44155437 0.5125892 -0.73639804 
0.40017617 -0.05495731 -0.9147889 
0.66198814 0.18942666 -0.72518224 
0.21801704 -0.90048754 -0.37628567 
0.2544221 -0.8078585 -0.53163344 
-0.26183987 -0.61599416 -0.7429611 
-0.020503635 -0.68625075 -0.727076 
-0.053895414 -0.45502883 -0.88884425 
-0.2761354 0.017991628 -0.9609503 
-0.4642763 -0.79351974 -0.39341345 
0.26147076 -0.60393715 -0.7529229 
0.01733546 -0.5942707 -0.80407834 
0.610881 -0.17389257 -0.7723897 
0.66741943 -0.5884015 -0.45643735 
0.15834895 -0.62987435 -0.760384 
0.35373884 -0.59417576 -0.72237396 
-0.44868216 -0.707863 -0.5455405 
-0.76470405 -0.31834596 -0.56025314 
-0.8961418 -0.2194667 -0.38569966 
-0.73029757 -0.54056746 -0.41767493 
-0.8820205 -0.4248531 -0.20381337 
-0.7479093 -0.45642212 -0.4819862 
-0.18658444 -0.8582291 -0.47815186 
-0.6587582 -0.19855803 -0.72568065 
-0.94887036 -0.2732342 -0.15807629 
-0.6828414 -0.56879216 -0.45847917 
-0.37772706 -0.18098809 -0.9080559 
-0.17260718 -0.27664933 -0.9453422 
0.23952779 0.420254 -0.8752217 
0.95164806 0.08235593 -0.2959454 
0.3463942 0.6317414 -0.6934796 
0.05374451 0.3941885 -0.91745675 
-0.25715214 0.3587014 -0.89733285 
0.10614282 -0.16235472 -0.981007 
0.0902351 -0.20041096 -0.9755476 
-0.15664643 -0.24487594 -0.95681643 
0.18792023 -0.052572876 -0.98077637 
-0.10167075 -0.452428 -0.88598645 
0.38507232 -0.40551466 -0.8290218 
0.15775193 -0.8296321 -0.5355604 
-0.06769287 -0.8271265 -0.5579243 
0.83089936 -0.4219222 -0.36275062 
-0.46934777 0.2871988 -0.8350027 
-0.38206038 -0.4741082 -0.7932537 
0.1619661 0.4560398 -0.8750969 
0.018228358 0.007519059 -0.99980557 
0.8500978 0.52509314 -0.040135954 
0.7630276 -0.33809656 -0.5508899 
0.05679408 -0.8925379 -0.44738182 
-0.11995055 0.37806478 -0.9179754 
-0.0077185524 -0.2885189 -0.9574431 
0.27186435 -0.40075675 -0.8749194 
-0.087970175 -0.091291025 -0.9919311 
0.3311237 0.024032468 -0.94328135 
0.58706605 -0.0166756 -0.8093673 
-0.31342056 -0.27400243 -0.90922505 
0.09544721 -0.10727922 -0.98963684 
-0.049777 -0.46777725 -0.8824436 
0.77020466 -0.5353836 -0.34662554 
0.73964506 -0.48297393 -0.46868047 
-0.18305974 -0.94722295 -0.2631689 
-0.23570235 -0.44936812 -0.8616918 
-0.56027645 -0.42713803 -0.7096784 
-0.2695749 -0.3627942 -0.89202565 
0.54884034 -0.8234956 -0.14362913 
0.44972274 -0.7237925 -0.5233297 
0.33134487 -0.5507961 -0.76605123 
-0.35178944 -0.23982973 -0.9048348 
-0.10961039 0.3945002 -0.9123351 
-0.012238988 0.86635756 -0.49927428 
-0.85783607 0.38797995 -0.33702976 
-0.4874517 0.02881307 -0.8726745 
0.0033087207 -0.14617462 -0.9892533 
0.057503793 -0.45127884 -0.8905283 
0.2707942 0.27305502 -0.9230989 
-0.29844144 0.5795464 -0.75832635 
-0.14522025 -0.17885795 -0.9730987 
-0.55703306 -0.39730787 -0.72928786 
-0.29088542 -0.10085206 -0.95142764 
-0.09152263 -0.724832 -0.6828193 
-0.48650697 0.3205926 -0.81273085 
-0.55533403 -0.7550858 -0.34849623 
-0.5288366 -0.7531399 -0.39129546 
-0.07707019 -0.96781415 -0.23957482 
-0.43587935 -0.87859756 -0.19512998 
-0.44510937 -0.8911163 -0.08825836 
-0.9453766 0.024970213 0.32502273 
-0.5188836 -0.84156334 0.15010378 
-0.49117193 -0.6828292 -0.54082763 
-0.20384827 -0.22302301 -0.95326114 
0.14423509 -0.016769014 -0.9894014 
0.5850355 0.7762163 -0.2349929 
-0.40104008 0.7875907 0.46783325 
-0.96159023 0.24404381 -0.1256456 
-0.96205676 0.20448814 -0.18064201 
-0.06309872 -0.11084377 -0.9918328 
-0.433541 0.62826127 -0.6460108 
0.4587387 0.08034229 -0.8849316 
0.3697985 0.06567064 -0.9267883 
0.15699111 -0.5577867 -0.8150018 
-0.19957705 -0.16540714 -0.9658206 
-0.46070832 -0.6208062 -0.6343087 
-0.103439644 -0.22171284 -0.96961015 
0.20801115 -0.51506186 -0.83153033 
-0.021335984 -0.06052511 -0.9979387 
-0.26829165 0.12604278 -0.9550565 
-0.72713596 -0.32846498 -0.60281354 
-0.9454071 -0.13641682 -0.29596615 
0.37550312 -0.2818997 -0.88290995 
-0.18237217 -0.6873076 -0.7030993 
0.19042914 -0.49400008 -0.84835184 
-0.024268702 -0.56506896 -0.82468677 
0.010732165 -0.37247193 -0.92798144 
0.20562176 -0.88259727 -0.42277882 
-0.23665628 -0.8086229 -0.5386305 
-0.25708413 0.04443166 -0.96536714 
-0.18765682 0.3606921 -0.9136116 
-0.1544875 0.011041266 -0.98793304 
-0.42869958 -0.32167235 -0.8442414 
0.31584582 -0.8414741 -0.43836385 
-0.32521358 -0.7119676 -0.6223651 
0.52255404 -0.5893068 -0.6161614 
0.08759855 -0.004762431 -0.99614453 
0.02060187 0.07467417 -0.9969952 
0.11096463 0.021713369 -0.9935872 
0.27892616 0.119695716 -0.95282376 
0.3199897 -0.3140297 -0.8938635 
-0.49167147 -0.36159632 -0.7921536 
-0.51158744 0.37584916 -0.77266794 
-0.63759965 0.32568955 -0.69813544 
-0.3195272 -0.21809474 -0.92213726 
-0.54471827 -0.49473011 -0.67714417 
0.33357114 -0.74996036 -0.57121783 
0.053199977 -0.67293173 -0.73778903 
-0.3454067 -0.7058707 -0.618418 
-0.020767666 -0.42921123 -0.9029654 
0.31758842 -0.0186926 -0.9480444 
0.30590174 -0.067203306 -0.94968826 
-0.59681237 -0.10029363 -0.7960881 
0.057586707 -0.3818763 -0.92241764 
0.6257235 0.17550026 -0.7600459 
0.16271947 0.06075963 -0.98479986 
0.34138533 0.45349738 -0.8232838 
0.20240495 -0.35431764 -0.9129575 
0.36310896 -0.21041143 -0.9076778 
-0.11677774 -0.14203063 -0.98294985 
0.35089242 -0.46271047 -0.814109 
-0.024661373 -0.7107654 -0.70299673 
0.423246 -0.5220384 -0.740499 
0.6656534 -0.32227764 -0.6730845 
-0.24422881 -0.95474154 -0.16976695 
-0.30209702 -0.32176304 -0.8973328 
-0.011986032 -0.70302427 -0.7110649 
0.24281855 -0.097405896 -0.965169 
0.14392725 0.030504525 -0.9891181 
0.3945081 -0.06298374 -0.9167314 
0.08503186 0.21569587 -0.97275126 
0.31958878 -0.34967002 -0.8806782 
-0.77524644 0.3913876 -0.49579108 
-0.31290314 0.21722353 -0.9246111 
0.07136386 0.11249979 -0.99108577 
-0.2632398 -0.26975045 -0.9262503 
-0.42554313 -0.2620822 -0.866156 
-0.32425728 -0.08919808 -0.9417543 
0.28773 -0.13209109 -0.9485586 
0.57096785 -0.028345898 -0.82048297 
0.47413135 0.12202688 -0.87195694 
0.49898988 -0.31733772 -0.80641556 
0.22490126 -0.78337866 -0.5794285 
0.012257517 -0.8942435 -0.44741303 
-0.14100564 -0.9645082 -0.22325177 
0.35521355 -0.85339874 -0.38148904 
0.14109065 -0.4739136 -0.8691946 
0.376193 -0.3902607 -0.84034246 
-0.49162772 -0.40525153 -0.7707616 
-0.01996735 -0.46505335 -0.88505757 
0.08662895 -0.38944533 -0.9169666 
-0.22055708 -0.6316469 -0.7432206 
0.66445965 -0.3467505 -0.66201025 
0.4018057 -0.614708 -0.67873883 
0.9893979 0.062050413 -0.13130724 
-0.1207934 -0.64839244 -0.75166243 
0.3056077 -0.7866551 -0.53644913 
-0.6683057 -0.019612841 -0.74362826 
-0.6736717 0.023723932 -0.7386499 
-0.5851772 0.3875774 -0.71228606 
-0.5724063 0.49634773 -0.65267915 
-0.4796779 0.6280462 -0.6127538 
-0.40023598 0.32610294 -0.85642743 
-0.20230962 0.122967795 -0.97157085 
0.28056413 -0.42903557 -0.85861075 
0.4456198 -0.19430348 -0.8738817 
-0.050712287 -0.16167212 -0.98554075 
0.05811367 -0.5767533 -0.81484884 
-0.06556867 -0.68271565 -0.7277363 
-0.25189868 -0.20878871 -0.9449626 
0.036183234 -0.50662893 -0.8614047 
-0.012286732 0.40141124 -0.91581553 
-0.8256647 -0.4183119 -0.3785405 
-0.18272632 -0.33948123 -0.92269367 
0.47441277 -0.7434959 -0.47132403 
-0.04117169 -0.4612861 -0.8862957 
0.3212889 0.14006771 -0.93656534 
0.16548903 0.23617868 -0.957514 
0.3853467 0.7406307 -0.5504309 
0.6955024 -0.08700072 -0.7132372 
0.27332205 -0.119112894 -0.95451933 
0.18286437 -0.47414115 -0.86124957 
0.11020965 0.25056478 -0.96180624 
-0.32745776 -0.5310624 -0.78150123 
-0.23447272 -0.8948728 -0.37977013 
-0.007843528 -0.92814714 -0.37213096 
-0.2596161 -0.8911081 -0.3721907 
-0.07887282 -0.96163934 0.26273367 
-0.24288781 -0.83744764 -0.48957834 
-0.61004764 -0.004689397 -0.79235095 
0.08730487 -0.18644007 -0.9785796 
0.44221693 -0.16192822 -0.8821698 
0.85742426 -0.4108351 -0.30990034 
-0.98814225 -0.10342396 -0.113483354 
-0.7621252 -0.6126626 -0.20930807 
-0.6274091 -0.40220466 -0.6667753 
-0.34166864 -0.5686872 -0.74823624 
-0.47977084 -0.35672203 -0.8016043 
-0.4551433 -0.65917057 -0.59861404 