# OOMMF: rectangular mesh v1.0
# Segment count: 1
# Begin: Segment
# Begin: Header
# Desc: Time (s) :  6.520000000000013e-07
# Title: m
# meshtype: rectangular
# meshunit: m
# xbase: 2e-09
# ybase: 2e-09
# zbase: 5e-10
# xstepsize: 4e-09
# ystepsize: 4e-09
# zstepsize: 1e-09
# xmin: 0
# ymin: 0
# zmin: 0
# xmax: 1.024e-06
# ymax: 1.024e-06
# zmax: 1e-09
# xnodes: 256
# ynodes: 256
# znodes: 1
# ValueRangeMinMag: 1e-08
# ValueRangeMaxMag: 1
# valueunit: 
# valuemultiplier: 1
# End: Header
# Begin: Data Text
-0.85960144 -0.49364138 0.13192277 
-0.23029746 -0.52786785 -0.8175076 
0.13746057 0.42205247 -0.89608955 
0.41226444 -0.2380092 -0.8794258 
0.421662 -0.5071001 -0.7516985 
-0.019237097 -0.75929016 -0.6504679 
0.45028532 -0.6904228 -0.5661799 
0.46320552 -0.32428697 -0.82479006 
0.34595224 -0.187092 -0.9194094 
0.80726504 -0.23653086 -0.54071826 
0.9502616 -0.16278118 -0.26552826 
0.40008414 -0.4891518 -0.7750248 
0.75616825 0.0031966118 -0.6543695 
0.2809611 -0.9584917 -0.04852409 
0.9487312 0.2826394 -0.1415069 
0.7157657 -0.50919926 -0.47790748 
0.82584566 -0.32164088 -0.46316978 
0.92385703 0.3614946 0.1257378 
0.9420828 -0.1945538 0.273183 
0.8320364 0.35419008 0.42692494 
0.34104165 0.07870253 0.9367479 
0.10303812 -0.7671497 0.6331387 
-0.30504644 -0.93847317 -0.1619103 
-0.21908425 -0.9737329 -0.062018983 
-0.38887206 -0.8656523 -0.31531665 
-0.62748027 -0.38809043 -0.6750218 
-0.25971934 -0.9587602 -0.115433395 
-0.63702595 -0.569269 -0.5197412 
-0.7143281 -0.670832 0.19929835 
-0.5249249 -0.39986393 -0.75137395 
0.06431459 -0.8177032 -0.57203615 
-0.21660012 -0.9278289 -0.3036743 
0.093582265 -0.97897595 -0.1812415 
0.68536633 -0.72118086 -0.10085269 
0.4972886 -0.8469826 0.18794867 
0.09948727 -0.9581128 -0.26855612 
0.41253012 -0.8555349 -0.31285638 
0.9508092 -0.25730434 0.17250055 
0.43777192 -0.8733279 0.21366864 
0.21343312 -0.9630286 0.16438475 
0.60162276 -0.79697365 -0.053694177 
0.2995973 -0.93434536 0.19297776 
0.8254129 -0.5426731 -0.155562 
0.7479762 -0.656383 -0.0984536 
0.18598048 -0.3934032 0.90035844 
-0.46034855 -0.86792856 0.18649212 
-0.13608725 -0.95254177 -0.272295 
0.25758266 -0.6972607 -0.6689385 
-0.106259726 -0.96315277 -0.24707444 
0.48047423 -0.59828186 -0.64125144 
-0.24486102 -0.96679777 -0.07311155 
-0.12151104 -0.9638843 -0.23698597 
-0.60300475 -0.79688776 -0.03681278 
-0.7166055 -0.69346553 -0.07471436 
-0.5646156 -0.66286665 -0.49174908 
0.11638995 -0.69350356 -0.71098965 
-0.67584187 -0.30488786 -0.6710299 
-0.3298936 -0.7539317 -0.5681174 
-0.017987508 -0.86032534 -0.5094281 
0.1875734 -0.40615636 -0.8943451 
-0.07166922 -0.41373166 -0.9075735 
0.09853739 0.2250335 -0.96935564 
-0.8712496 -0.2818708 -0.40183708 
-0.1337698 -0.28727862 -0.9484602 
-0.12856223 -0.45473975 -0.8812965 
0.44835585 -0.71788406 -0.5325595 
0.45863205 -0.8783893 -0.13449496 
0.38311234 -0.9184757 0.09812027 
-0.18719316 -0.92898774 0.3192812 
0.101629555 -0.9392533 -0.3278334 
-0.011257231 -0.87613463 -0.48193505 
0.094166845 -0.96174955 0.2572363 
-0.7374836 -0.61685807 -0.27496198 
-0.4752668 -0.6648783 -0.576245 
-0.43124777 -0.74126756 -0.5143421 
-0.21310882 0.18740569 -0.9588867 
-0.5706455 -0.518202 -0.6370483 
-0.043466527 -0.5710512 -0.819763 
-0.6705115 -0.16015793 -0.7244059 
0.5714251 -0.10983872 -0.81327045 
0.55867356 -0.6591634 -0.5033762 
-0.010318087 -0.70801324 -0.7061238 
-0.5656618 -0.07663011 -0.8210693 
0.11542509 -0.9826153 -0.14541045 
-0.06606134 -0.99508196 -0.07380973 
0.5739522 -0.8100052 -0.12029298 
0.6568366 -0.48918518 -0.5738149 
0.3512101 -0.93616986 -0.015411767 
-0.10904291 -0.98669654 -0.12058038 
0.4992509 -0.7816605 -0.37383866 
-0.72338015 -0.2925448 -0.6254108 
-0.7723284 -0.37680426 -0.5113974 
-0.37645593 -0.7731782 -0.5103689 
-0.26205808 0.08032934 -0.9617031 
-0.41863 0.043353267 -0.9071216 
-0.03747411 -0.20188715 -0.9786917 
-0.24858077 -0.34211725 -0.9061807 
0.05383978 -0.6923309 -0.71956885 
0.5926862 -0.56067383 -0.5782457 
0.26437578 -0.64403814 -0.7178582 
-0.15653571 -0.49492824 -0.85471785 
-0.2036842 -0.17664659 -0.96296877 
-0.3649532 -0.30133444 -0.8809125 
-0.73354495 -0.67955285 -0.010945611 
-0.8409509 -0.12881166 -0.5255562 
-0.52588445 -0.3684627 -0.7666035 
-0.23827758 0.1884809 -0.9527323 
-0.0047335047 -0.47341055 -0.8808293 
0.23611207 0.18776923 -0.9534117 
0.32261732 0.31936753 -0.8910233 
-0.09565245 0.8367095 -0.53922904 
-0.2392432 0.6720517 -0.7007919 
-0.22986536 -0.54307914 -0.8076058 
-0.16806571 -0.96775955 -0.18760444 
0.09099124 -0.5939174 -0.799364 
-0.31490678 -0.9029691 -0.2923706 
-0.059095867 -0.60570014 -0.7934955 
-0.22294699 -0.95572966 -0.19202983 
-0.622643 -0.7816484 -0.036627684 
-0.23186985 -0.9634659 0.13405149 
0.047456518 -0.99886364 -0.0043889037 
-0.07849551 -0.59700876 -0.7983853 
0.103861846 -0.6118684 -0.78411084 
0.22890623 -0.4589269 -0.8584801 
-0.6887558 -0.017553741 -0.7247809 
-0.15700437 -0.061147965 -0.9857031 
-0.26574638 -0.34738442 -0.8992791 
0.17826316 -0.6640963 -0.7260843 
-0.40632775 -0.7162537 -0.56734335 
-0.0038702753 -0.84148693 -0.5402637 
0.015368807 -0.6675045 -0.74444723 
-0.06816987 -0.9551246 -0.28825307 
0.044299845 -0.9145724 -0.4019887 
0.24492869 -0.85519886 -0.45677674 
0.03794096 -0.33019188 -0.94315106 
-0.38722575 -0.34246677 -0.8560215 
0.02896279 -0.010849004 -0.9995216 
-0.55481285 -0.3880722 -0.73592305 
0.043896865 -0.059962727 -0.997235 
-0.2601965 -0.08170972 -0.96209216 
0.068117425 0.40791672 -0.91047466 
0.6074669 -0.27236333 -0.7461919 
0.16331229 -0.43169257 -0.88711363 
0.14601731 -0.75129336 -0.6436127 
0.109889925 -0.7553193 -0.6460782 
-0.45028237 -0.73502433 -0.5069369 
-0.54369336 -0.026006557 -0.838881 
-0.83801985 0.039629452 -0.54419875 
-0.55638057 -0.68168896 -0.475122 
0.28352445 -0.943339 -0.17241107 
-0.8244065 -0.3859287 -0.41402072 
0.037357803 -0.68412894 -0.7284038 
0.24229483 -0.531242 -0.8118344 
0.36825892 -0.17304556 -0.9134773 
0.055731878 -0.43955582 -0.8964847 
0.3507919 -0.6692203 -0.6550491 
-0.00869724 -0.9316558 -0.36323795 
0.37932542 -0.88901424 -0.25644866 
0.5617536 -0.107528105 -0.820287 
0.5009018 -0.8012889 -0.32715958 
0.21000409 -0.91132873 -0.3540879 
-0.3353151 -0.93610144 0.10619759 
0.17488545 -0.8454381 -0.5046281 
0.062175952 -0.38856208 -0.91932243 
0.40142924 -0.8895418 0.21810515 
0.10900435 -0.9940292 -0.004902454 
0.018235274 -0.7881173 -0.61525506 
0.4981222 -0.16189212 -0.85185987 
0.5346186 0.060796883 -0.8429037 
0.7135223 -0.038931746 -0.6995501 
0.6415032 -0.5507551 -0.53398734 
0.6103659 -0.427002 -0.6671752 
-0.05072905 -0.63124305 -0.77392423 
0.22190681 -0.4731999 -0.8525488 
0.6739067 -0.62450784 0.3947656 
0.6692807 -0.65925765 -0.34269908 
-0.39976943 -0.9112447 -0.09908415 
-0.6905317 -0.4254075 -0.5849739 
-0.9924722 -0.11995523 -0.024695246 
-0.96084404 -0.13122445 -0.24404682 
-0.1349765 -0.08818166 -0.98691714 
-0.087081805 -0.89931405 -0.4285452 
-0.27295518 -0.90327287 -0.33104962 
0.3519877 -0.93539834 -0.033685606 
0.97742826 -0.15018961 0.14858375 
0.39527577 -0.3757176 -0.83820844 
0.48246357 -0.5853772 -0.6515847 
0.2015368 -0.6284867 -0.7512573 
0.4318829 -0.9012724 -0.034429636 
-0.22509272 -0.94170773 0.25003982 
0.25408983 -0.95571095 -0.14850904 
0.34330192 -0.9295619 -0.13438238 
-0.56013894 -0.66910946 -0.48840243 
0.457609 0.17673856 -0.87141126 
0.29308596 0.09042323 -0.95180064 
0.875228 0.15326314 -0.4587881 
0.5877248 -0.13523269 -0.79767895 
0.86795664 -0.06524241 -0.492336 
0.5427869 -0.38770875 -0.7450264 
0.39883488 -0.68441534 -0.6103331 
0.75681555 -0.49007303 -0.43250263 
0.57559204 -0.8167345 0.040480047 
0.7480331 -0.54515415 0.3784885 
0.44208497 -0.8791909 -0.17772 
0.8273717 -0.56148165 -0.013945704 
0.06678098 -0.88545454 0.459903 
0.1833074 -0.96334064 -0.19589126 
0.028479887 -0.92963696 -0.3673745 
0.1263616 -0.9845002 -0.12162261 
0.41698405 -0.62663335 -0.658373 
0.7836495 0.056570098 -0.6186221 
0.6446021 -0.7291776 -0.22975688 
0.3319928 -0.6884143 -0.64487725 
0.77178377 -0.6294173 0.09046374 
0.19845867 -0.9589133 0.20273007 
0.2867632 -0.77332854 0.5654465 
-0.5584841 -0.60739756 0.56494594 
-0.90126705 -0.38368085 0.20126307 
-0.6177509 -0.42117643 0.664074 
0.18779132 -0.9424428 -0.27665168 
-0.35886118 -0.9283596 -0.09678407 
0.3555945 -0.5844521 -0.7293616 
-0.19047642 -0.5595454 -0.806615 
0.5786153 -0.59146494 -0.5615813 
0.2622149 0.036518045 -0.96431834 
0.008591973 -0.076078355 -0.9970648 
0.526508 -0.6908756 -0.49545985 
0.5709255 -0.77929914 -0.25833544 
0.11707431 -0.50587946 -0.8546225 
-0.23515089 -0.27636302 -0.931841 
-0.40022635 -0.111709036 -0.9095824 
0.32492587 -0.24360423 -0.9138272 
0.67238384 -0.63533825 -0.3797964 
0.5094457 -0.18968736 -0.83933526 
-0.53613263 -0.16908036 -0.827027 
0.6004989 -0.28251258 -0.74805593 
0.60320276 -0.5953205 -0.5307918 
0.47787285 -0.8605925 -0.17611998 
0.5245402 -0.8510944 -0.022268258 
-0.033127572 -0.94230944 0.33310005 
0.057206187 -0.960368 0.2728019 
0.030807873 -0.30165058 -0.95292073 
0.7211858 -0.46717536 -0.51150596 
0.69470066 0.43612334 -0.572003 
0.25026816 0.7448086 -0.6185678 
0.5559668 -0.71409035 0.4254128 
0.31906816 -0.6933565 -0.6461055 
-0.2865557 -0.5670818 -0.7722074 
-0.019366065 -0.99976724 -0.009510217 
0.620798 -0.5747272 -0.53319657 
0.7483857 -0.62796605 -0.21348897 
0.7170822 -0.4303211 -0.54828537 
0.22989129 -0.7223015 -0.6522504 
0.16080837 -0.71187615 -0.68364686 
0.5868449 0.022374004 -0.8093902 
-0.23814622 0.84449834 -0.47969675 
-0.50084704 -0.7446697 -0.4411568 
-0.5210771 0.1651262 -0.8373841 
-0.019143803 -0.27361134 -0.96164984 
-0.21689884 -0.10928103 -0.9700581 
0.6421298 -0.106322154 -0.75918704 
0.8810472 -0.03049901 -0.47204414 
0.2609988 -0.04016196 -0.9645034 
0.60577327 0.16883577 -0.7775174 
0.06395448 -0.6592438 -0.7492045 
0.72302985 -0.4137228 -0.55322814 
0.77005583 -0.35293922 0.53145844 
0.5187559 -0.5671603 -0.6397043 
0.42839804 0.03766246 -0.902805 
0.89478076 0.10415041 -0.43418902 
0.5849754 -0.012309434 -0.8109576 
0.5645191 -0.8236718 -0.053693615 
0.314399 -0.598303 -0.737012 
0.88255847 -0.43975285 0.16645758 
0.93538153 -0.14903657 -0.32070178 
0.27374 -0.728471 0.62801 
-0.11440725 -0.07526904 0.9905784 
-0.618803 -0.7744704 -0.13144812 
-0.4700549 -0.82769954 -0.3065321 
-0.03827414 -0.99913514 -0.016253702 
-0.22165523 -0.9248292 -0.30912778 
0.21972549 -0.8008005 -0.5571708 
0.14266217 -0.9388071 -0.31351042 
0.07659604 -0.9962753 0.039605513 
-0.49093068 -0.8597475 -0.14078817 
-0.75251466 -0.4941546 -0.43535385 
-0.15835574 -0.98702717 -0.026473284 
-0.2888162 -0.9573835 0.0014832902 
-0.22928998 -0.7962314 -0.5598586 
-0.15984109 -0.64694464 -0.7455961 
0.1336339 -0.888948 -0.43807918 
0.34116477 -0.73998594 -0.5796788 
0.51109225 -0.7246903 -0.4621782 
0.6831938 -0.6827743 0.25897023 
0.64686894 -0.73196757 -0.21397206 
0.760231 -0.6489083 0.03109536 
0.40799955 -0.86350036 0.29648522 
0.02604536 -0.9718661 0.23408997 
0.2695293 -0.9419581 0.20017248 
-0.17254737 -0.89461005 0.41218966 
-0.31902814 -0.59142274 0.74056756 
-0.5188103 -0.7689667 -0.37353194 
-0.5823521 -0.6276311 -0.5166675 
-0.3991288 -0.9164845 -0.027430132 
-0.03465241 -0.9231336 -0.38291478 
0.018391008 -0.9853644 -0.1694663 
-0.08261231 -0.89366925 0.4410561 
-0.99120235 -0.115382776 0.0648444 
-0.5792431 -0.52503693 -0.6235492 
-0.93952674 -0.1490152 0.30835706 
-0.66609114 -0.6950168 -0.27069238 
-0.68395823 -0.45926046 -0.5668166 
-0.67720765 0.07018938 -0.73243654 
-0.0982208 -0.7389015 -0.6666163 
-0.07626164 -0.31678554 -0.9454264 
-0.2151659 -0.5659307 -0.79588073 
0.32549796 -0.38118356 -0.86530364 
0.2929034 -0.7939312 -0.53280467 
-0.5826417 -0.7232514 -0.37072378 
0.603091 -0.13004902 -0.78699976 
0.4601099 -0.67620695 -0.5753635 
0.17074706 -0.83909124 -0.51649916 
-0.23361258 -0.55603415 -0.79765356 
0.25129282 -0.8737217 -0.41648817 
0.09995062 -0.89673674 -0.43112993 
0.3132034 -0.88850754 -0.3353476 
-0.12332507 -0.97934306 0.16024402 
-0.0023036601 -0.9963724 -0.08506907 
-0.40568626 -0.8846638 -0.22975792 
-0.7080101 -0.080524825 -0.7015964 
0.092930965 -0.36435765 -0.92661077 
0.7549741 0.10633858 -0.6470751 
0.33257556 0.072825655 -0.94026065 
0.5125488 0.14341639 -0.8465964 
0.3392034 -0.16740112 -0.9256987 
0.29341894 -0.45982715 -0.8381314 
0.4373269 -0.44134954 -0.78355336 
-0.2855854 -0.07720237 -0.9552387 
0.020028267 -0.36429697 -0.9310675 
0.21928571 -0.28879976 -0.93193805 
0.42733473 -0.84917474 -0.31030226 
0.11017054 -0.060912568 -0.9920444 
0.62541306 -0.037272226 -0.77940315 
-0.3483431 -0.8268638 -0.44153532 
-0.08042981 -0.9951879 -0.055965126 
0.7379697 -0.38244608 -0.5559998 
0.13235739 -0.56174165 -0.81665653 
-0.19873208 -0.8203632 -0.5361994 
0.24434145 -0.7160954 -0.6538384 
-0.20354784 -0.60242015 -0.77178895 
0.07239599 -0.99165225 -0.10669971 
0.108185686 -0.45562983 -0.88357085 
0.08902667 -0.22269872 -0.9708139 
0.029490495 -0.53557336 -0.84397376 
0.048037283 -0.99524033 -0.08478841 
-0.21057776 -0.39675382 -0.8934448 
-0.82631534 -0.55560637 -0.09222131 
-0.5005196 -0.8270675 -0.25581124 
-0.47862756 -0.4760841 -0.7377396 
-0.94050384 -0.16858278 -0.2950124 
-0.6721335 -0.10963577 -0.7322681 
-0.36626658 -0.4672622 -0.804683 
-0.49697822 -0.71821254 -0.48701492 
0.262223 -0.39608377 -0.8799754 
-0.08663143 -0.21611044 -0.972518 
0.015253687 -0.049918924 -0.99863684 
-0.54516876 0.118600786 -0.8298946 
-0.9091326 0.2196867 -0.3538582 
-0.4147669 -0.43199337 -0.80084354 
-0.49296364 -0.31281748 -0.8118695 
-0.65962154 -0.3203636 -0.67990196 
-0.027451944 -0.65624356 -0.7540497 
0.059816506 -0.44652745 -0.8927683 
0.27680582 -0.84700996 -0.45382023 
-0.27867833 -0.7614875 -0.58521384 
-0.4868739 -0.72596073 -0.48573142 
-0.2379263 -0.7335516 -0.6366264 
-0.007987246 -0.45304728 -0.8914507 
0.09351076 -0.20885107 -0.9734665 
-0.43334708 0.0012118025 -0.90122634 
0.010792061 0.37052187 -0.9287611 
0.3213141 -0.4429165 -0.837008 
-0.33230683 -0.10920544 -0.9368279 
0.108620904 -0.63789684 -0.7624232 
-0.19643189 0.19409893 -0.9611141 
0.61897707 -0.2622323 -0.74033886 
0.42377463 -0.78279054 -0.455691 
-0.820653 -0.5389395 -0.18992874 
-0.033598233 -0.4583085 -0.88815796 
0.23418573 -0.9586304 -0.16181771 
-0.6879165 -0.7190562 -0.09863626 
-0.5587964 -0.5291828 -0.63852346 
-0.049735975 -0.064182594 -0.996698 
0.16720246 -0.18114135 -0.9691394 
0.10549481 0.29985788 -0.94813305 
0.3291909 -0.08317572 -0.94059306 
0.011067853 -0.09744292 -0.9951796 
-0.024307987 -0.36748752 -0.92971075 
0.01700645 -0.43479002 -0.9003714 
-0.05149284 -0.3114348 -0.94887143 
0.02243821 -0.76281095 -0.6462321 
0.08798763 -0.820829 -0.5643562 
-0.3437516 -0.12422761 -0.9308074 
-0.6529467 0.36810616 -0.6619354 
-0.4501551 -0.26852292 -0.8516196 
-0.05096963 -0.70818496 -0.7041848 
-0.16291872 -0.15286349 -0.9747257 
-0.016337588 -0.73548114 -0.6773482 
-0.055935662 -0.99830323 0.016187552 
-0.06278692 -0.7689381 -0.6362326 
0.053190164 -0.68146974 -0.7299109 
0.25894627 -0.6749084 -0.6909744 
0.25291133 -0.56860024 -0.7827706 
-0.06355556 -0.6843276 -0.72639966 
0.7103981 -0.32744545 -0.62298805 
0.70727783 -0.7019179 -0.0840795 
0.02989115 -0.8852113 0.46422797 
0.30458248 -0.8718736 0.38349187 
0.27410477 -0.6982922 -0.6612523 
-0.19880198 -0.38681018 -0.90047526 
0.3307175 -0.6778166 -0.65665114 
0.7111976 -0.2305505 -0.66411185 
0.44734246 -0.44522163 -0.77566904 
0.5820229 0.72526157 -0.36775696 
0.66013116 0.4785468 -0.57898176 
0.77570885 -0.3684839 -0.5123431 
0.42466167 -0.6022828 -0.6759571 
0.09205231 -0.5552095 -0.82660085 
-0.112167366 -0.6095287 -0.7847886 
-0.09943353 -0.52782667 -0.84351164 
0.29368925 -0.6142453 -0.73242706 
0.09937241 -0.80798024 -0.5807695 
-0.6028758 -0.7963077 -0.04934503 
-0.684771 -0.67625374 -0.2716056 
-0.9136631 0.25436172 -0.31704867 
-0.9071538 -0.24892847 0.33927384 
-0.7873678 0.22708352 -0.57313627 
0.10457758 -0.6439069 -0.7579231 
0.20439783 -0.3244505 -0.92355484 
0.8803072 -0.32331082 -0.34717357 
0.7473972 0.39517796 -0.53407115 
-0.11851835 -0.3855029 -0.9150634 
0.4702309 -0.55069125 -0.6896536 
0.075078666 -0.485641 -0.8709283 
-0.4568078 -0.17185818 -0.8728066 
0.8108934 -0.5224219 -0.26368025 
0.62598073 -0.58459955 -0.5161313 
-0.33980334 -0.23133934 -0.9116007 
0.36650458 -0.222917 -0.90331745 
0.33463177 -0.056451045 -0.9406567 
0.120563164 -0.0039622057 -0.99269783 
0.62558454 -0.6954979 -0.3534498 
0.5887102 -0.23586917 -0.7731663 
0.76113147 -0.13825871 -0.6336904 
0.4365353 -0.23061092 -0.86962956 
0.66141415 -0.38199493 -0.64545435 
0.88121164 -0.2690459 -0.3886906 
0.13460283 -0.99082565 0.012115218 
0.5783301 -0.77136505 -0.2655754 
0.28299823 -0.33793688 -0.89761394 
0.89044094 -0.11043525 -0.44149634 
0.15056491 -0.9849899 -0.08441103 
-0.09399763 -0.92835206 -0.35962063 
-0.17696154 -0.7389243 -0.65013504 
-0.072273664 -0.8670631 -0.49292812 
-0.027874975 -0.34788805 -0.93712157 
0.26552144 -0.24742983 -0.93181384 
0.6482152 -0.2157621 -0.7302492 
0.40074727 -0.17036909 -0.90020883 
0.77555656 -0.627545 0.06855202 
0.1008354 -0.7515961 0.65187085 
-0.1777764 -0.8554729 0.48637626 
-0.6552876 -0.6848535 0.31870648 
-0.8357492 -0.24326709 0.49228498 
-0.728963 -0.6829627 0.04663608 
-0.51575696 -0.77123654 -0.37308034 
-0.4424161 -0.42464355 -0.78990245 
0.110477164 0.08096554 -0.9905753 
-0.4630917 0.046202205 -0.8851053 
-0.40174845 -0.31994036 -0.8580422 
-0.38747177 -0.7309241 -0.5617967 
-0.08203844 -0.27137238 -0.9589718 
0.033663716 -0.06905171 -0.99704504 
-0.088148765 -0.68424255 -0.7239075 
0.2820672 -0.71792054 -0.6364183 
0.21810505 0.7920159 -0.5702115 
0.00028409384 0.30912757 -0.9510206 
-0.36550072 -0.5078085 -0.78008956 
-0.5765299 -0.457498 -0.6769852 
-0.4838257 -0.1120564 -0.8679608 
-0.1218452 -0.69398475 -0.70960474 
0.41247022 -0.58962137 -0.694417 
0.68329924 -0.20315287 -0.70130676 
0.9092355 -0.3847172 0.1590081 
0.7537027 -0.4320793 0.49521703 
0.4017427 -0.8398036 0.36514756 
-0.16333954 -0.97491485 0.15119976 
0.7059884 -0.52247053 -0.47812644 
0.57637274 -0.23077832 -0.78392345 
0.45973232 0.3310628 -0.82404107 
0.545535 0.7532682 -0.36739415 
0.4604521 -0.8808278 -0.11011992 
0.21189271 -0.943381 0.25521317 
-0.22145692 -0.9730728 0.06392358 
-0.40167433 -0.7472826 -0.52936435 
0.018328033 -0.29725984 -0.9546208 
0.7346636 -0.3551867 -0.57802415 
0.18996333 -0.7088811 -0.67926544 
0.66571367 -0.5349737 -0.5202197 
0.5976698 -0.38409224 -0.7037501 
0.5367366 0.19743808 -0.8203244 
0.52809346 0.17540142 -0.830874 
-0.21645316 0.07337677 -0.9735317 
-0.66005325 0.59106106 -0.4636558 
0.30460572 0.14798637 -0.94091207 
0.30935597 -0.24975885 -0.91756177 
-0.026688673 -0.03138532 -0.999151 
0.64174604 -0.12577626 -0.7565332 
0.77257794 -0.33982283 -0.53632444 
0.7403545 0.1824313 -0.6469885 
0.21247394 -0.15269242 -0.9651631 
0.07919397 -0.6369132 -0.76685727 
0.6638785 -0.74549395 -0.05919598 
0.7947494 -0.5828942 0.16913834 
-0.048752338 -0.34692568 -0.93662477 
0.56206393 -0.78230405 -0.2684859 
0.7710297 -0.1934454 -0.6067061 
0.8026484 -0.200159 -0.56186473 
0.98624337 0.16352953 0.024127875 
0.99651337 -0.0828221 0.010082039 
0.81957847 -0.46256402 -0.33812088 
0.29211593 -0.9367048 -0.19300866 
0.067810826 -0.78055644 0.6213963 
0.033606865 -0.9156258 0.40062454 
-0.503583 -0.8620581 0.057097197 
-0.40756106 -0.8998895 -0.15521866 
0.078461714 -0.51141536 -0.85574424 
0.084770694 -0.6622431 -0.7444784 
0.26145893 -0.72396904 -0.6383637 
-0.5318828 -0.6113787 -0.5859324 
-0.1273739 -0.00017242528 -0.99185485 
-0.96864724 -0.19368461 -0.15559192 
-0.6115219 -0.2656511 -0.745299 
0.15900403 -0.7878964 -0.5949261 
0.13668723 -0.1659775 -0.97661054 
0.17746769 -0.4812157 -0.8584502 
0.10858459 -0.38631293 -0.915954 
-0.07024501 -0.18192573 -0.9808001 
0.5307881 -0.84679526 0.03466746 
0.3133522 -0.9398586 0.13592741 
0.07905042 -0.6397216 -0.7645309 
0.5916825 -0.80442035 -0.05310127 
0.34618348 -0.8990515 -0.26807353 
0.5420646 -0.77068555 -0.33497748 
0.20908454 -0.64834577 -0.7320734 
-0.08602023 -0.080425434 -0.99304193 
0.0055108145 -0.87315834 -0.4874057 
-0.21043281 -0.55628794 -0.8039041 
-0.1873072 0.13156013 -0.97345155 
-0.63481385 -0.47814786 -0.6069481 
0.04739858 -0.9589388 -0.27962428 
0.33076134 -0.94188327 -0.058760375 
0.48289728 -0.8750021 -0.034375273 
0.107280806 -0.9132927 -0.3929215 
-0.08251973 -0.9057854 -0.41562408 
-0.46917266 -0.8258903 -0.31270185 
0.06833018 -0.8555381 -0.5132112 
-0.05858953 -0.82180655 -0.5667463 
-0.06988403 -0.35831863 -0.93098015 
0.05618328 -0.30061162 -0.9520904 
-0.7018635 0.39629447 -0.5918939 
0.01063689 -0.042405583 -0.9990439 
0.085586645 -0.006236323 -0.99631125 
0.10546234 -0.61902815 -0.77825576 
-0.58337814 -0.07372375 -0.8088478 
0.06112681 -0.23506695 -0.97005516 
0.08188888 -0.6360606 -0.7672817 
0.45590657 0.2225203 -0.8617621 
0.515825 0.16029532 -0.84156406 
0.34684855 -0.91022825 -0.22623132 
0.46844143 -0.45983303 -0.75439805 
0.81689185 -0.532353 -0.2220094 
-0.7505801 -0.37571236 -0.5435714 
-0.21335866 -0.49298945 -0.8434688 
-0.47419754 0.3277673 -0.81713235 
-0.42827314 -0.13365692 -0.8937102 
-0.64004016 -0.11940525 -0.7590066 
0.036051888 0.28313828 -0.95840126 
-0.028675256 0.6177579 -0.7858454 
-0.36653638 0.4752401 -0.7998737 
-0.11484797 -0.06534269 -0.9912317 
0.28205806 -0.41440982 -0.8652791 
0.45999795 -0.2652498 -0.8473751 
0.8518488 0.31650028 -0.4173504 
0.75617075 -0.26660755 -0.5976004 
-0.11246151 -0.73215914 -0.6717853 
0.40527856 -0.29134512 -0.8665261 
0.3078268 0.14161761 -0.9408438 
0.35800758 0.044562068 -0.9326548 
-0.02133219 0.11537718 -0.99309266 
0.22324526 -0.11675256 -0.967745 
0.016947083 -0.9690039 -0.24646379 
0.09758197 -0.6901095 -0.7170961 
0.018037837 -0.32529512 -0.94544053 
-0.51722735 -0.6809567 -0.51843417 
-0.63658714 -0.3889213 -0.66595584 
-0.014108196 -0.96019304 0.27898082 
0.3671471 -0.7058624 -0.6057733 
0.40666184 -0.5120735 -0.7565757 
0.65490335 -0.7001039 -0.28452793 
0.36653984 -0.77087885 -0.52095526 
0.44385648 -0.35742918 -0.82172734 
-0.15149036 -0.6612614 -0.7347001 
-0.2558773 -0.53650403 -0.8041705 
-0.24184397 -0.6502195 -0.7202265 
-0.3848707 -0.88306314 -0.2684661 
-0.7732644 -0.3580493 -0.5233192 
-0.009052302 -0.52266234 -0.85249174 
-0.084818244 -0.47904634 -0.8736822 
0.7639455 -0.16838145 -0.62292445 
0.5743075 0.30170408 -0.7610162 
-0.26004308 -0.044822227 -0.96455616 
-0.22450216 0.17264637 -0.959058 
-0.5096874 0.3265192 -0.7959925 
0.3682474 -0.48749217 -0.7916725 
0.060954493 -0.2596601 -0.9637745 
0.13872012 -0.5297306 -0.836745 
-0.47203463 -0.6362064 -0.6102662 
-0.24127749 -0.3100227 -0.91960377 
-0.01186378 -0.653436 -0.75688887 
0.6649366 -0.06622424 -0.7439581 
0.35196987 -0.8612801 0.36648864 
-0.18254784 -0.93092585 -0.31631216 
-0.651224 -0.13820468 -0.74619496 
0.15128066 -0.118369475 -0.9813781 
0.3053531 0.12896174 -0.9434661 
-0.015640954 -0.27647504 -0.96089387 
0.10445287 0.1505908 -0.98306257 
0.07483347 -0.07113858 -0.9946554 
-0.6089663 -0.38719565 -0.69227135 
-0.2058712 0.22942087 -0.95130605 
-0.07969175 -0.06305822 -0.9948231 
-0.05121607 -0.7201592 -0.69191605 
-0.034788262 -0.49426806 -0.86861324 
0.19161834 -0.69400334 -0.69400424 
-0.5882014 -0.02926645 -0.80818474 
0.0041959886 -0.3762249 -0.926519 
-0.43494117 -0.3903875 -0.81143326 
-0.17682415 0.25992733 -0.94930035 
-0.14015417 0.20913272 -0.96779156 
-0.18055618 0.71113384 -0.67947644 
-0.47239125 0.698742 -0.53722084 
-0.22589022 0.31804228 -0.92077285 
-0.84055054 0.06861355 -0.5373706 
0.3614045 -0.56044227 -0.7451787 
0.11902404 -0.19917881 -0.9727081 
0.17230588 -0.14006597 -0.9750345 
0.04570493 -0.508046 -0.8601165 
-0.6362703 -0.062737584 -0.768911 
-0.3538977 0.23546627 -0.9051587 
0.46400616 0.18385315 -0.86654276 
0.17326306 -0.8837953 -0.43460998 
0.4841406 0.025393775 -0.8746216 
-0.18869938 -0.6117516 -0.76821387 
-0.5007853 -0.66807956 -0.5503489 
0.027213147 -0.7456446 -0.665788 
-0.31462094 -0.8780102 -0.3607103 
-0.022435466 -0.80982465 -0.5862428 
-0.2412133 -0.9702737 -0.019627115 
-0.5186202 -0.62699383 -0.581302 
-0.059266433 -0.38577923 -0.92068565 
-0.029732052 -0.9593352 -0.2806994 
-0.52591026 -0.644258 -0.55529284 
-0.11237902 -0.94601285 0.30402425 
0.28410387 -0.77476245 -0.5648259 
-0.45032245 -0.00036569583 -0.892866 
-0.19538365 0.14246988 -0.97032344 
0.60831165 -0.36079744 -0.7069528 
0.829 -0.5481577 0.11082523 
0.7157448 0.13957426 -0.6842722 
0.77742463 -0.061671022 -0.6259453 
0.94644153 -0.20108162 -0.25261578 
0.6016947 0.03462235 -0.79797554 
0.3981487 -0.7539104 -0.5225866 
0.14764729 -0.7168755 -0.68138814 
0.37633973 -0.361393 -0.85309064 
0.15538606 -0.49283755 -0.85613453 
0.92480063 -0.33674464 -0.1770506 
-0.10628328 -0.34696645 -0.93183595 
-0.93797255 0.13645427 -0.31872845 
-0.7480495 -0.66051215 -0.064387545 
-0.3457478 -0.91481644 -0.20873256 
-0.4806079 -0.57529163 -0.6618578 
0.48644194 -0.62757176 -0.60788816 
-0.108285785 -0.67777264 -0.72725403 
0.18367754 -0.93301713 -0.30942154 
0.75329816 -0.55711657 -0.34951863 
0.1707878 -0.6662466 -0.72591114 
-0.20558302 -0.6464521 -0.7347349 
0.19203316 -0.896813 -0.3985595 
0.1480101 -0.77194095 -0.6182235 
0.07249671 -0.82104325 -0.56624407 
-0.26085502 -0.20141709 -0.9441324 
0.40518266 -0.26197764 -0.8758966 
0.9444218 -0.29566678 -0.14369611 
0.58926064 0.22762191 -0.7752163 
0.4882752 -0.3913612 -0.78001523 
0.49440295 -0.86721593 -0.059179828 
0.32510468 -0.76747316 -0.55253226 
0.61962235 -0.039628565 -0.7838992 
0.6715914 -0.039583318 -0.7398637 
0.6724554 -0.2945689 -0.6789941 
0.58403134 -0.80755967 -0.082188465 
0.34388906 -0.90019184 -0.2671982 
-0.09286729 -0.23800248 -0.9668146 
-0.048970684 0.29518756 -0.9541836 
0.5909019 -0.18435755 -0.78539634 
0.15372534 -0.24261454 -0.9578658 
0.034533754 -0.57796985 -0.81532717 
-0.36673024 -0.6890036 -0.6251264 
-0.3935594 -0.9096213 -0.13304193 
-0.15426053 -0.94815874 -0.27784654 
-0.2572758 0.119705856 -0.958895 
0.47915328 -0.566388 -0.6705347 
0.79643774 -0.24355836 -0.55350375 
0.67882144 -0.28422862 -0.67706406 
0.4926802 -0.75130516 -0.4390978 
-0.51436335 -0.8567597 -0.037324425 
-0.13762417 -0.98765945 -0.07475684 
-0.5366778 -0.80408823 0.25577185 
-0.68362397 -0.72046113 -0.11659421 
-0.0567407 -0.94621146 -0.31853473 
-0.30229554 -0.9460172 -0.11691447 
-0.292424 0.004510893 -0.95627815 
-0.09426385 -0.21281308 -0.9725353 
-0.14720307 -0.025217207 -0.98878485 
-0.44719374 0.24309415 -0.8607689 
-0.23427932 0.1242972 -0.96419054 
-0.39571184 0.76396704 -0.5096731 
0.14699222 -0.083069384 -0.9856433 
0.20313068 -0.4623652 -0.86310863 
0.25361514 0.20492618 -0.945349 
0.5673159 -0.59482 -0.56951016 
0.22187291 -0.24870059 -0.94282585 
0.067943804 -0.1623276 -0.9843949 
0.5617472 -0.14065088 -0.81526536 
0.9742692 -0.14301983 -0.17419806 
0.6237458 -0.3271379 -0.7098747 
0.74283 -0.36465997 -0.5614506 
0.9248133 -0.076823704 -0.37258366 
0.7342146 -0.43877482 0.51807886 
0.11646633 -0.99319434 -0.00083442713 
-0.38059655 -0.92446244 -0.022705039 
0.20492506 -0.7106179 -0.6730736 
0.09524003 -0.3244447 -0.9410978 
-0.024481222 -0.6661193 -0.7454434 
0.64423686 0.105704784 -0.7574862 
0.6262941 -0.58605015 -0.5141021 
-0.37953916 -0.91871625 -0.10913509 
-0.40779564 -0.792625 -0.45326412 
-0.26843333 -0.5992314 -0.75423163 
0.85783684 -0.16639052 -0.48624095 
0.1448463 -0.16548711 -0.97551715 
0.3867399 0.29252717 -0.8745628 
0.5244054 -0.7252632 -0.4460855 
0.025030965 -0.52281064 -0.8520813 
0.21121699 0.3580501 -0.9094985 
0.16562617 0.026697055 -0.98582727 
-0.15292712 0.21852496 -0.9637739 
-0.41154942 0.67528325 -0.61206186 
-0.076944 0.6688894 -0.7393691 
-0.0107913185 0.80856705 -0.58830506 
-0.0022656939 -0.30615735 -0.95197827 
0.601149 0.61372256 -0.5118248 
0.75665253 -0.08165137 -0.6486988 
0.8813189 -0.22890614 -0.41337508 
0.72183305 -0.22896121 -0.6530956 
0.35042393 -0.52253354 -0.77727854 
-0.23578389 -0.25690404 -0.9372334 
-0.023865711 -0.9263371 -0.3759388 
0.55090904 0.0349606 -0.8338327 
0.0075181946 -0.53109866 -0.84727675 
0.34968123 -0.093685 -0.9321729 
0.13263385 -0.18598652 -0.9735591 
0.96014637 -0.15776376 -0.2307156 
0.4121728 -0.88927877 -0.19823468 
0.17002356 -0.4970621 -0.85089445 
0.6340983 -0.24657308 -0.7328855 
0.7301258 -0.6797014 -0.07015976 
0.49409974 -0.8633045 -0.10281394 
0.34712842 -0.8768661 -0.33257726 
-0.06898427 -0.7153361 -0.69536716 
-0.34430826 -0.62794816 -0.6979492 
-0.1434271 -0.8220813 -0.55100906 
0.21550782 -0.2662783 -0.93949574 
-0.03140047 -0.49145448 -0.8703371 
-0.2841 -0.3150626 -0.9055511 
-0.49825096 -0.22906296 -0.8362273 
-0.6244167 -0.5862295 -0.5161772 
0.28882045 0.18377729 -0.939579 
0.30988553 0.07779041 -0.94758624 
0.25891858 -0.5004459 -0.8261448 
0.46247083 -0.5311358 -0.7099405 
0.6672764 -0.41496018 -0.61850655 
-0.40569293 -0.9064569 -0.11725731 
-0.07222199 -0.97045416 -0.23022322 
-0.69133306 -0.34070858 -0.6371627 
0.22988622 -0.7205185 -0.65422124 
0.7348828 -0.5493444 -0.39770356 
0.94704753 -0.15362197 -0.28195998 
0.4094737 -0.6444576 -0.6457598 
0.20639999 0.07802302 -0.9753519 
0.2209918 -0.9458594 -0.23772408 
-0.58766234 -0.6020633 -0.54053015 
-0.7130237 0.005058502 -0.70112175 
0.1927054 -0.65486723 -0.73076236 
0.11077913 -0.42811045 -0.896911 
0.9553648 -0.2953971 -0.004316419 
0.81246555 -0.5298263 -0.24327736 
-0.25448585 0.11942332 -0.9596745 
-0.22375701 -0.28973344 -0.9305844 
-0.17497309 -0.32552156 -0.92920405 
-0.085659936 -0.35303807 -0.9316795 
-0.13589877 -0.5394484 -0.83097965 
0.38220763 0.035237428 -0.92340434 
-0.31330907 -0.18928742 -0.93059534 
-0.73948014 -0.22684729 -0.6338055 
-0.45571443 0.16988188 -0.8737646 
-0.4381102 0.32869178 -0.8366727 
-0.5361276 0.067080155 -0.84146744 
-0.5141708 -0.425946 -0.744445 
-0.030489486 -0.11709361 -0.9926528 
0.659572 -0.55282754 -0.5092609 
0.54448485 -0.33826855 -0.7675354 
0.5843327 0.5379871 -0.60755676 
0.3551862 0.00015199972 -0.93479556 
0.71066546 -0.3129389 -0.6300983 
0.26907438 -0.80060655 -0.5353767 
-0.16311485 -0.16466112 -0.97276944 