# OOMMF: rectangular mesh v1.0
# Segment count: 1
# Begin: Segment
# Begin: Header
# Desc: Time (s) :  6.550000000000014e-07
# Title: m
# meshtype: rectangular
# meshunit: m
# xbase: 2e-09
# ybase: 2e-09
# zbase: 5e-10
# xstepsize: 4e-09
# ystepsize: 4e-09
# zstepsize: 1e-09
# xmin: 0
# ymin: 0
# zmin: 0
# xmax: 1.024e-06
# ymax: 1.024e-06
# zmax: 1e-09
# xnodes: 256
# ynodes: 256
# znodes: 1
# ValueRangeMinMag: 1e-08
# ValueRangeMaxMag: 1
# valueunit: 
# valuemultiplier: 1
# End: Header
# Begin: Data Text
0.4155348 -0.9090468 -0.031058416 
0.15763883 -0.9015942 -0.40283746 
-0.17380008 -0.54891884 -0.81760734 
0.17866775 0.250683 -0.95143884 
0.60083526 -0.21903871 -0.7687776 
0.49738467 -0.8572805 -0.1329614 
-0.49401376 -0.6299812 -0.599228 
-0.3082467 -0.5767753 -0.7565146 
-0.29823092 -0.22211769 -0.92828995 
-0.24072295 -0.8530297 -0.46302557 
0.117018916 -0.9699045 -0.21352284 
-0.03699498 -0.84798557 -0.52872664 
-0.46974954 -0.22751683 -0.85297805 
-0.32656947 -0.21800068 -0.9196891 
0.8014126 -0.53668 -0.2640314 
0.9814919 0.13326281 -0.1375306 
0.6341776 -0.5948398 -0.49394765 
0.25718406 -0.714544 -0.6506022 
-0.021810276 -0.7539178 -0.6566066 
-0.43007907 -0.4070274 -0.80582935 
0.14466295 -0.98594165 0.08361597 
-0.004920637 0.053490534 -0.9985563 
-0.0749022 -0.30539006 -0.9492769 
0.5038108 -0.6293932 -0.59164083 
0.03899853 -0.03526242 -0.9986169 
-0.44734547 -0.75909686 -0.47292098 
-0.6145287 -0.6042535 -0.5071807 
-0.7780075 -0.57999086 -0.24148464 
-0.20536195 -0.76086897 -0.61555254 
-0.69298923 -0.56937635 -0.4422405 
-0.8528969 -0.4802856 -0.20467712 
0.11705476 -0.7094093 -0.6950084 
0.006841594 -0.9984011 -0.056111287 
0.2620499 -0.8915724 -0.36936235 
0.0672999 -0.99177974 -0.10882875 
-0.28747997 -0.5507541 -0.7835976 
0.48371765 0.05441908 -0.8735306 
0.7330285 0.049752627 -0.67837596 
0.42364463 0.051061902 -0.90438825 
0.4001907 0.067264855 -0.9139601 
0.13116957 0.69630253 -0.705661 
0.55300987 0.57181436 -0.6059773 
0.49291763 -0.78156406 -0.3823479 
0.41433337 -0.82506126 0.38418987 
0.9715188 0.07036308 -0.22627468 
0.92875564 -0.37068325 0.0026457554 
0.8528665 -0.39407006 0.34253109 
0.7223252 -0.68112516 -0.11964482 
0.2571104 -0.8838361 0.39080432 
0.31392902 -0.72835773 0.6090515 
0.2245969 -0.9599805 -0.1673137 
0.86679405 -0.21755128 0.4487088 
0.4588036 -0.65803033 -0.5970724 
-0.1503079 -0.95195884 0.2667997 
-0.39697725 -0.7997715 0.45030528 
-0.5730351 -0.7170097 0.3968978 
-0.4887217 -0.52965134 0.6932681 
-0.30416873 -0.5274586 0.7932646 
-0.6160066 -0.68367267 -0.39131516 
-0.90009457 -0.23477879 -0.36702695 
-0.03095852 -0.8238386 -0.56597835 
0.19696856 -0.90539455 -0.3761173 
-0.2236031 -0.9706107 -0.08897552 
-0.6165138 -0.620971 -0.48405153 
-0.38136607 -0.2609186 -0.88683796 
-0.2717693 -0.5979508 -0.75405335 
-0.05449588 -0.8490702 -0.52546173 
0.2243304 -0.84421545 -0.48680213 
0.6856868 -0.70378256 -0.18580572 
0.51005995 -0.32014844 -0.79833823 
0.28666213 -0.0049207862 -0.9580192 
0.15887491 -0.4407321 -0.883467 
0.8199187 -0.42019594 -0.3888041 
0.6491605 -0.44807774 -0.6146683 
0.5158696 -0.25090533 -0.81910014 
0.6625738 -0.49558333 -0.5615987 
0.83163893 -0.020110838 -0.5549526 
0.4261702 -0.88285744 -0.19733685 
0.3363068 -0.8491134 -0.4073136 
0.3837424 -0.7657972 -0.5160392 
0.08350987 -0.9787283 0.1873958 
-0.15692553 -0.7285414 0.6667848 
0.127728 -0.7826844 0.6091723 
0.19543421 -0.9070864 0.37282676 
0.5048754 -0.56000066 -0.6568867 
-0.1255209 -0.9529653 -0.2758655 
0.46586084 -0.88318974 0.054310564 
0.045440372 -0.9959477 0.07761072 
-0.9356927 0.09585681 -0.33954462 
0.25376445 -0.7100303 -0.65685666 
-0.035537776 -0.80775476 -0.58844656 
0.031171357 -0.93717337 -0.34746853 
-0.3636214 -0.65458107 -0.66279954 
-0.42594942 -0.59998655 0.67718786 
-0.51689583 -0.8527605 -0.0749551 
-0.37960556 -0.9086283 -0.17405277 
-0.66665167 -0.5107253 -0.5428953 
-0.7925759 -0.3527352 -0.49739465 
-0.40369868 -0.32184112 -0.8564144 
0.6793534 -0.18566702 -0.7099343 
0.45577452 -0.61020404 -0.6480128 
-0.18723586 -0.9676935 0.16885555 
-0.18608497 -0.9432029 0.27521017 
0.17838864 -0.9790501 0.09817567 
-0.39919552 -0.9143986 0.06721747 
-0.44309914 -0.88427603 -0.14737372 
-0.7081384 -0.56149143 -0.4280974 
-0.25938883 -0.9024342 -0.3439916 
0.2495962 -0.9206751 -0.30009857 
0.6092611 -0.49874052 0.61648923 
0.016445555 -0.7680747 0.6401491 
0.5046676 -0.86023414 -0.072854616 
0.05672466 -0.99813443 -0.022582566 
0.30511847 -0.8014822 -0.5143239 
0.0916709 -0.9336063 -0.3463751 
-0.17442343 -0.79685044 0.5784514 
-0.16367841 -0.5970384 0.7853372 
-0.3135078 -0.023608217 0.9492921 
-0.49390414 -0.8384638 -0.23029816 
-0.6579782 -0.6765039 -0.33076778 
-0.21587625 -0.97041225 0.10815486 
0.23683016 -0.95612305 0.17245387 
-0.65976965 -0.64810145 -0.38035333 
-0.5815307 -0.5106408 -0.63329935 
-0.28182027 -0.6166478 -0.73506665 
0.2532062 -0.35967445 -0.89806515 
0.8006888 -0.009244173 -0.59900916 
0.20391075 0.32258293 -0.92431635 
0.3665939 -0.18046702 -0.9127106 
0.70395094 -0.31123093 0.6384265 
0.23561394 -0.86086315 0.45099968 
-0.94170636 -0.33609673 0.015109529 
-0.3976319 -0.8653241 -0.3051279 
-0.3017332 -0.910389 0.2831061 
0.030620195 -0.85701466 -0.51438147 
-0.22229281 -0.46922815 0.8546408 
-0.6765512 -0.66868204 -0.3084523 
0.3911538 -0.7347301 -0.5542295 
-0.06807744 -0.8695682 -0.4890977 
0.26074556 -0.9520989 -0.15974836 
-0.29734382 -0.86418307 -0.40592405 
-0.8628063 -0.47976953 0.1593313 
-0.62415695 -0.3147404 -0.71509904 
-0.70296174 -0.24459681 -0.66784525 
0.35309064 -0.65414387 -0.66889673 
0.31165516 -0.5796256 -0.7529311 
0.24321526 -0.9697981 0.018388292 
0.26421642 -0.5958769 -0.75836694 
0.78687537 -0.09050012 -0.61043984 
0.7348961 0.49719495 0.4612211 
0.30486044 0.046776637 -0.9512477 
-0.48884413 -0.21124014 -0.8464095 
-0.65239245 0.34716687 -0.67369086 
-0.2516146 -0.032332473 -0.9672873 
-0.11614296 -0.62098104 -0.7751732 
-0.32620713 -0.29437298 -0.89829475 
-0.47688735 -0.22869612 -0.84869117 
0.39537668 -0.5158165 -0.760007 
0.40466142 -0.65135026 -0.6418661 
-0.35479107 -0.7491386 0.5593878 
-0.75537467 -0.51230687 -0.40859598 
-0.028828925 -0.5609365 -0.82735676 
-0.6988193 0.0719799 -0.7116675 
0.15300415 0.19827472 -0.9681307 
0.7922113 0.6085887 -0.044957265 
0.48005188 -0.459929 0.7470044 
0.80377316 -0.18686181 -0.5648286 
0.73229724 -0.24922219 -0.63374215 
0.37609413 -0.28600186 -0.8813377 
-0.48613018 -0.103315584 -0.86775774 
-0.72670245 0.17177075 -0.66513044 
-0.3133876 -0.5280818 -0.7892515 
0.15278974 -0.8537113 -0.4978278 
-0.21134621 -0.76402235 -0.6095922 
-0.9303034 0.3583861 0.07807069 
-0.92381084 -0.006503739 -0.3827941 
-0.8491835 0.1872494 -0.49378657 
-0.44671577 -0.5999675 -0.6636898 
-0.4806646 -0.5448292 -0.68711185 
-0.020523464 -0.8979964 -0.439524 
-0.29019266 -0.9430166 -0.16281238 
-0.01793171 -0.92838854 -0.37117803 
-0.15033127 -0.32044932 -0.93526083 
0.374325 -0.91457903 -0.15305576 
0.8939456 -0.39426902 -0.21310389 
0.693562 -0.7191149 -0.042960536 
0.30407208 -0.94108635 0.1479753 
0.4124432 -0.6061093 -0.6800899 
0.15178046 -0.9806662 0.12351719 
-0.36797094 -0.5203553 -0.7706022 
0.48484564 -0.5188664 -0.70406145 
0.638333 -0.24330148 -0.73029816 
-0.35523626 -0.32668355 -0.8758339 
0.75129133 -0.41540107 0.51283854 
0.5654935 -0.82439005 -0.024458796 
0.9218939 -0.22876054 -0.31269848 
0.46460116 -0.87830776 -0.112788774 
-0.5873516 -0.6976763 -0.41020238 
-0.51888734 -0.8347638 0.18418865 
-0.69428885 -0.14007543 -0.7059334 
-0.26785302 -0.73284364 -0.62545586 
0.6736999 -0.678735 -0.29231355 
0.14692229 -0.98630965 -0.07488185 
0.0014982936 -0.982411 0.18672544 
0.4578578 -0.7936287 0.40064943 
0.3893571 -0.8762504 0.28387722 
0.47974288 -0.07444579 0.8742451 
-0.22815871 -0.44244462 0.8672868 
-0.23521459 -0.34367988 0.9091525 
-0.94402546 -0.15434137 0.29153842 
-0.95397365 0.25042447 0.16499043 
-0.6028492 -0.67199326 -0.43011388 
-0.7965697 -0.19789176 0.57124037 
-0.9043292 -0.08311367 0.4186658 
-0.37650284 -0.7803626 -0.49927938 
-0.7219543 -0.48837593 -0.4901744 
-0.21487238 -0.31274682 -0.9252132 
-0.7524417 -0.21639268 -0.6220978 
0.34914577 0.31770408 -0.88156766 
0.59311867 -0.028743938 -0.8046018 
0.586791 -0.026842643 -0.8092935 
0.21922323 -0.4686467 -0.8557521 
0.8959208 -0.43838573 0.07172154 
-0.17853148 -0.7624543 0.62192464 
-0.29952094 -0.9425423 -0.14799103 
0.2327044 -0.5660399 -0.79085237 
-0.36466706 -0.9311365 0.001666161 
-0.68570644 -0.7273103 -0.028747907 
-0.32880557 -0.7392319 -0.5877272 
-0.9097842 -0.24826959 -0.33264828 
-0.9661129 -0.05644058 0.25187364 
-0.8123223 -0.53883713 -0.22313027 
0.13490532 -0.9783444 -0.15698072 
-0.36768663 -0.60867876 -0.7030766 
-0.5978564 -0.77489877 -0.2051819 
-0.6540399 -0.7428249 0.1429794 
-0.64789224 -0.76173174 -0.0006200124 
-0.7127436 -0.6816109 -0.16553916 
-0.5269001 -0.7713465 -0.35693255 
0.35288075 -0.9126346 -0.2063333 
0.030087255 -0.63996124 -0.76781803 
0.026511302 -0.7701027 -0.6373688 
0.38138628 -0.9103537 0.16062637 
0.26429707 -0.8365233 -0.479975 
-0.24748085 -0.77329075 -0.5837591 
-0.13946639 -0.98714304 0.07808787 
-0.46000397 -0.8876459 -0.021935334 
-0.44432995 -0.85103154 0.27985018 
0.6112542 -0.42852846 -0.6653809 
0.24549173 -0.96837443 0.044550348 
-0.6727134 -0.7355944 -0.079734795 
-0.6927314 -0.31576222 -0.6483961 
-0.3026333 -0.7052523 -0.64111805 
0.38188645 -0.91929895 -0.09514325 
0.5825237 -0.8113868 0.04814092 
0.07099715 -0.95418733 -0.2906648 
0.6003078 -0.44416246 -0.6650942 
0.14349253 -0.27023587 -0.95204127 
0.3579278 -0.07383793 -0.9308253 
0.5546439 -0.43418875 -0.70982414 
-0.10222449 -0.4406425 -0.89184326 
0.090072185 -0.6839294 -0.7239666 
-0.46440107 -0.6317148 -0.6206997 
-0.1686199 -0.5237015 -0.83504736 
-0.19084223 -0.2375334 -0.95244795 
-0.45017636 -0.6003233 -0.66102433 
-0.27449757 -0.8513507 -0.44704926 
0.33969885 -0.7783514 -0.5279905 
-0.21719676 -0.732986 -0.6446373 
0.25829995 -0.8133971 -0.5212162 
0.14907245 -0.8737083 -0.46304575 
0.38226882 -0.058279287 -0.9222116 
0.7876015 -0.33992735 -0.5139392 
0.22984964 0.32004645 -0.91909707 
0.21992548 -0.76387596 -0.6067342 
0.14536755 -0.7050666 -0.6940817 
-0.40430167 -0.6320473 -0.6611025 
-0.132592 -0.88547224 -0.44537443 
0.32012454 -0.86071193 -0.39584756 
0.5073929 -0.39951774 -0.76350373 
-0.3444874 0.2519399 -0.90435326 
-0.59828424 -0.43546382 -0.6726271 
-0.44636688 -0.56671345 -0.69252616 
-0.65232265 -0.512957 -0.55798775 
-0.98541546 -0.09913287 -0.13830817 
-0.7500327 -0.1811497 -0.6361098 
-0.2400941 -0.13775261 -0.96092623 
0.5276704 -0.73487073 -0.42606223 
0.040676996 -0.9793269 -0.19815232 
0.2276508 -0.96551335 -0.12632942 
-0.07026811 -0.96148676 -0.2657173 
-0.39024836 -0.41457823 -0.8220896 
0.029808152 -0.24638632 -0.9687133 
0.5054658 -0.074262455 -0.85964495 
0.45590928 0.55298305 -0.6973927 
0.39453417 -0.04024226 -0.9179997 
0.3256868 -0.055023924 -0.94387525 
0.5801238 0.1650556 -0.79762965 
0.8704726 -0.3377747 -0.35803053 
0.9592906 -0.13659787 -0.24718945 
0.7387864 -0.46279854 -0.48991036 
0.8770077 -0.21135609 -0.43149298 
0.9540087 -0.29971182 0.0063541476 
0.7106577 -0.5877276 -0.38670656 
0.5508908 -0.64942575 0.5241808 
0.39973527 -0.68783313 0.60588557 
0.5372343 -0.83411896 0.12500021 
0.39037767 -0.8986388 -0.20013459 
-0.1873296 -0.8920225 -0.41134337 
-0.41544092 -0.84679216 -0.3321929 
-0.64559966 -0.71523285 0.26766226 
-0.87665933 -0.433284 0.2091253 
-0.3147984 -0.7958333 0.5172538 
-0.1998877 -0.6836176 0.70193446 
-0.2555445 -0.95873904 0.12456541 
-0.3548474 -0.6933563 0.62716866 
-0.37080896 -0.9075471 -0.19712676 
0.22713406 -0.65449953 -0.7211384 
-0.037475385 -0.63579726 -0.7709459 
-0.34217763 -0.08729912 -0.9355712 
0.18411739 0.3185985 -0.9298365 
-0.10024233 -0.43809023 -0.8933244 
0.2373152 -0.26519954 -0.93453234 
0.12422139 -0.10252588 -0.9869436 
0.553296 -0.053589646 -0.8312591 
0.34211916 -0.66730696 -0.6615557 
0.6290653 -0.45411128 -0.6309199 
0.74362713 0.011596504 -0.66849405 
0.7832577 -0.6162423 -0.082175545 
0.8209356 -0.5707414 -0.017865516 
0.11385232 -0.8336423 -0.54044276 
0.24753322 -0.8126763 -0.5275269 
-0.06379321 -0.55860245 -0.8269787 
0.70013756 -0.6802914 -0.21682037 
-0.10321998 -0.9574275 -0.2695892 
-0.025951652 -0.9730199 -0.22925696 
-0.4150518 -0.9071011 -0.069997445 
-0.960044 -0.27082062 0.07051144 
0.012341657 -0.7692793 -0.6387935 
-0.6706579 -0.22632606 -0.70639545 
0.042850185 -0.3255178 -0.9445645 
0.3216277 -0.5059006 -0.8003876 
0.27080247 -0.7912992 -0.5481894 
0.08575543 -0.93826324 -0.33512393 
-0.58071023 -0.68394786 -0.44157788 
-0.5198297 -0.85389227 -0.025401734 
-0.1374587 -0.57678986 -0.8052445 
-0.32847533 -0.6981977 -0.63610053 
-0.492405 -0.64344925 -0.5860977 
-0.47224703 -0.7851836 0.4005863 
-0.58931065 -0.80745184 -0.0271 
-0.5434103 -0.579269 -0.6075794 
0.041378003 -0.49740487 -0.86653125 
-0.18474512 -0.21031775 -0.9600187 
0.2112539 -0.32028893 -0.92346466 
0.3248436 -0.13963188 -0.93540347 
0.3531567 -0.7209535 -0.5962436 
0.114156745 -0.9747093 0.1921199 
0.06283932 -0.6795338 -0.7309481 
0.11167024 -0.909533 -0.40034938 
0.23591886 -0.9495467 -0.20664814 
0.22124098 -0.9746807 -0.032403007 
-0.35679406 -0.9036853 -0.23675078 
-0.49655074 -0.6871174 -0.53038394 
-0.041554417 -0.91250265 -0.40695488 
-0.5922731 -0.7649607 0.2530766 
-0.44149265 -0.8239952 -0.3551286 
-0.20640919 -0.9225398 -0.32606107 
-0.5223143 -0.8371153 -0.16255973 
0.07675321 -0.21441205 -0.973723 
0.024685228 -0.34935105 -0.9366667 
0.66632056 -0.71485543 -0.21212886 
-0.49192 -0.6740168 0.55110455 
-0.8913676 -0.4305005 0.14189169 
-0.7646655 -0.5657683 -0.3085336 
-0.7378854 -0.2887559 -0.6100371 
0.18004003 -0.56782776 -0.8032168 
0.3627585 -0.88216656 -0.30031413 
-0.8539555 -0.37605804 -0.35963914 
-0.2942355 -0.15158783 -0.94363487 
-0.28591743 -0.43265557 -0.8550208 
0.3366522 -0.6079211 -0.71909475 
0.26748583 0.1583276 -0.950465 
0.67485636 0.47342536 -0.5660719 
0.51306933 0.10795052 -0.85153186 
0.8372137 -0.14014742 -0.5286133 
0.7642308 -0.62803113 0.1467254 
-0.06857504 -0.9413159 -0.33048722 
0.06561892 -0.84039587 -0.5379861 
0.81197065 -0.4049182 -0.42041063 
0.06557206 -0.8841314 -0.4626145 
-0.14599122 -0.844421 -0.5154025 
-0.45907232 -0.6605464 -0.59408003 
0.058099557 -0.42470253 -0.9034668 
0.1269024 -0.839391 -0.5285059 
-0.25954732 -0.478562 -0.8388169 
0.09663453 -0.13657306 -0.9859055 
0.082841724 -0.7676197 -0.6355292 
-0.03825468 -0.55307 -0.832256 
-0.04473922 -0.4044857 -0.91344947 
0.3444624 -0.46774298 -0.81397927 
-0.12058697 -0.92575914 -0.35836968 
0.022103513 -0.556072 -0.8308402 
-0.0012209779 -0.3318243 -0.9433404 
0.48892832 0.09340293 -0.86730903 
-0.051208086 0.24450722 -0.9682944 
0.30795443 0.25284743 -0.9171872 
0.46132 -0.33406848 -0.82193816 
-0.40653902 -0.30109334 -0.8625942 
-0.43632922 0.120998085 -0.8916145 
-0.72044617 -0.56081927 -0.40796944 
-0.63532 -0.24866101 -0.7311198 
-0.37273407 -0.4228259 -0.82600695 
-0.37859654 -0.84127724 -0.38589805 
-0.22209452 -0.76484627 -0.60471827 
-0.9633983 -0.25222173 -0.090819016 
-0.72850454 -0.31623536 -0.6076812 
-0.1646984 -0.2661079 -0.94976896 
-0.48137483 -0.5250811 -0.70183206 
0.78100735 -0.1561197 -0.6046934 
0.8654364 0.14574079 -0.47935328 
0.96498615 -0.16811779 -0.20134076 
0.5761082 -0.08226287 -0.8132233 
0.66270983 -0.26698944 -0.6996659 
0.24773723 0.39672396 -0.8838758 
0.07835035 -0.13342755 -0.98795664 
-0.10509188 0.64220095 -0.75929815 
-0.76470476 -0.5608704 -0.3172555 
-0.38983095 -0.49064118 -0.7792965 
-0.76279837 -0.32352695 -0.559883 
-0.6740523 0.3560786 -0.6471952 
-0.44310236 0.044509467 -0.8953655 
-0.41652882 -0.17025562 -0.89303803 
-0.5866693 -0.12721273 -0.7997726 
-0.5667797 -0.035467576 -0.8231057 
-0.26092675 -0.22203343 -0.9394777 
0.0124069685 -0.4685881 -0.8833297 
0.74797034 -0.42492524 -0.5098813 
0.42942357 -0.14430052 -0.89150023 
0.6475231 -0.2515696 -0.7193237 
0.7726271 -0.2614463 -0.5785267 
0.61200154 -0.76636016 -0.19531116 
0.0005991971 -0.8543263 -0.5197366 
-0.10649896 -0.978683 -0.17560667 
0.090404935 -0.8141624 -0.5735563 
0.293919 -0.6472518 -0.70333266 
0.7001629 -0.006722923 -0.7139515 
0.1752891 -0.36688197 -0.9136035 
0.6676633 -0.2991226 -0.6817268 
0.8805025 -0.47238085 0.03964536 
0.39667973 -0.9167746 0.046579104 
0.47619733 -0.77494997 -0.41555846 
0.46849295 -0.7782851 -0.41807517 
0.5247044 -0.8506366 0.033208113 
-0.5654105 -0.80642116 0.17319357 
-0.33312532 -0.108947836 -0.9365671 
-0.49586058 -0.4179355 -0.76121753 
0.2928069 -0.8193263 -0.49291855 
0.34392592 -0.78747165 -0.5114719 
0.40495813 -0.8082039 0.42756924 
-0.120392784 -0.9832843 0.13659286 
0.021538083 -0.9920603 -0.123904705 
0.94893503 0.18444665 0.2559331 
0.750465 0.13497521 0.6469807 
0.010377767 -0.58695084 0.8095561 
-0.49962047 -0.8629225 0.07579053 
-0.6592777 -0.6799196 0.32103324 
-0.84320503 -0.5367295 -0.030444466 
-0.89778155 -0.41563898 -0.14571442 
-0.95574605 0.16736203 -0.24194956 
-0.73662 -0.13064656 -0.66356796 
-0.24187414 -0.31452748 -0.91791576 
-0.4357651 -0.18584509 -0.8806648 
-0.50545514 -0.24378571 -0.8276979 
0.14680581 0.7109695 -0.6877284 
-0.22336493 0.5028037 -0.8350429 
-0.5594343 -0.21787311 -0.7997278 
0.5166749 -0.70480347 -0.48610613 
0.4537289 -0.8702309 -0.19190729 
0.16921356 -0.9085228 -0.38203824 
-0.46628222 -0.80110306 -0.37525296 
0.017171096 -0.77810264 -0.6279025 
0.15217808 -0.8780547 -0.45372 
-0.3172264 -0.9375557 -0.14267729 
-0.11853701 -0.8012505 -0.58646953 
-0.37414065 -0.92277205 0.09225214 
-0.6909826 -0.44785866 0.5674202 
-0.9093618 -0.31112036 -0.2761616 
-0.079162546 -0.37499145 -0.92364216 
-0.63208044 -0.7329456 0.25152555 
-0.3395978 -0.9396216 -0.04224532 
-0.5054822 -0.8628325 0.0028021885 
-0.59547466 -0.7078558 -0.37993437 
-0.9064092 -0.25194818 -0.3390349 
-0.54934657 -0.51162934 -0.6606465 
-0.23683204 -0.20303777 -0.9500981 
-0.6057724 -0.02172331 -0.7953414 
-0.795376 -0.12915097 -0.59219694 
-0.38945675 -0.8259312 -0.40762883 
-0.3989269 -0.9128764 -0.08668422 
0.054067504 -0.48333532 -0.8737641 
-0.39032614 -0.83394855 -0.39009663 
-0.14800917 -0.9204667 -0.36171046 
-0.4914047 -0.5808454 -0.6489531 
-0.17006817 -0.8126704 -0.5573543 
-0.4761369 -0.5313171 -0.700711 
-0.26958084 -0.7116669 -0.64873457 
-0.5230226 -0.657153 -0.5427683 
-0.45681307 -0.014646065 -0.88944215 
-0.17045088 -0.1963104 -0.9656132 
0.05074457 -0.67540526 -0.7356988 
0.19404784 -0.6417689 -0.74194217 
0.06401419 -0.57262075 -0.8173174 
0.32245588 -0.3036949 -0.8965442 
0.0479231 -0.20643207 -0.9772867 
0.21970208 -0.46861693 -0.8556454 
0.5081652 -0.1361836 -0.85042477 
0.09668975 -0.9605629 -0.26071075 
0.44347963 -0.8698201 -0.21619156 
-0.25541914 -0.61831796 -0.74326575 
0.08169635 -0.91422564 -0.39688438 
-0.23608989 -0.9643117 -0.11985189 
-0.43515092 -0.6569645 -0.6156634 
0.0019176387 -0.93268067 -0.36069825 
0.39792764 -0.693996 -0.60001934 
0.5900036 -0.566528 -0.5752754 
-0.60488975 -0.5410767 -0.5842469 
0.3208029 -0.4496887 -0.8335859 
0.24640149 -0.6638159 -0.7061408 
0.32302883 0.26680747 -0.9080012 
0.7251504 0.13863426 -0.6744906 
0.38704765 0.20303336 -0.8994285 
0.08285137 -0.32271332 -0.94286364 
0.35888514 -0.7778105 -0.51595753 
-0.37876123 -0.12935284 -0.9164103 
-0.02025727 -0.607406 -0.7941332 
-0.011503439 -0.9952838 -0.09632175 
-0.88409275 -0.3498821 -0.30977815 
-0.49984512 -0.5971372 -0.6273611 
-0.53269744 -0.80779827 -0.2523795 
-0.47756892 -0.5853728 -0.6551844 
-0.18475573 -0.55464935 -0.8113135 
0.52366424 -0.20362799 -0.82723117 
0.3467154 -0.816974 -0.46080565 
-0.46794817 -0.58125746 -0.665706 
0.20236067 -0.97925866 -0.010135076 
0.16471483 -0.72939664 -0.6639651 
-0.32381654 -0.6346623 -0.7016742 
-0.5248841 -0.26987654 -0.80725676 
0.10118882 0.3327559 -0.9375683 
0.117603384 0.83111006 -0.54353064 
0.2550215 0.38789436 -0.88572127 
0.54235035 -0.500734 -0.67462707 
0.23218708 -0.38965532 -0.89121157 
0.7016015 -0.5695942 -0.42815635 
0.6861688 0.13349944 -0.71508765 
0.060044024 -0.09325187 -0.99383044 
0.5207051 0.3433818 -0.78163624 
0.779523 -0.62634766 0.0057127243 
0.31095496 -0.9504094 -0.0053914157 
0.3172965 -0.9452187 0.07671081 
-0.28119186 -0.95708877 0.07008726 
-0.43159062 0.31959775 -0.84355605 
0.32940674 -0.6938464 -0.64036584 
-0.045464817 -0.7751508 -0.6301384 
0.09298066 -0.70920897 -0.69883996 
0.38096187 -0.848201 -0.36799893 
-0.26660132 -0.9630398 0.038446195 
-0.37623897 -0.9219382 -0.0920566 
-0.74603266 -0.64657307 -0.15930636 
0.120168805 -0.82549024 -0.5514757 
-0.26981774 -0.7237761 -0.6350957 
0.66276073 -0.67694235 -0.32015213 
-0.30150548 -0.87919366 -0.36893496 
-0.79320896 -0.50418466 -0.34149283 
-0.7978413 -0.50181353 -0.3341143 
-0.07806706 -0.12514152 -0.9890627 
0.737396 -0.30736026 -0.6014789 
0.753402 -0.31447464 -0.57748693 
0.2705618 -0.3398972 -0.90070325 
0.2080213 -0.36272478 -0.908382 
0.36873415 0.120284535 -0.92171943 
0.45066085 -0.88031614 -0.14814948 
0.24446733 -0.6450489 -0.7239804 
0.30158517 -0.94676507 -0.11261575 
-0.16343477 -0.98438203 0.06543055 
-0.010874915 -0.97360104 -0.22799753 
0.040215038 -0.62797165 -0.7771966 
0.14206773 -0.28094745 -0.94914985 
0.48961863 -0.33471593 -0.8051329 
-0.34534952 -0.7497693 -0.5644288 
-0.050039858 -0.6350174 -0.77087545 
-0.30902424 -0.36036795 -0.88013583 
-0.6105145 -0.7541441 -0.24194777 
-0.12096205 -0.5492862 -0.8268331 
-0.3985063 -0.6589066 -0.6379928 
-0.17855161 -0.06526019 -0.981764 
-0.17181364 0.1354712 -0.97577035 
0.2735366 -0.120611794 -0.9542697 
-0.56326735 -0.62539953 -0.5400049 
-0.8693883 -0.46093017 -0.17806548 
-0.87450624 -0.052322865 -0.48218372 
-0.37743837 0.04605694 -0.92488873 
-0.70034176 -0.40028933 -0.59100753 
-0.24759513 0.18476965 -0.951082 
-0.2089105 -0.97344416 -0.09361091 
-0.339474 -0.8552277 -0.39159033 
-0.7027333 -0.45862558 -0.54390126 
-0.20419413 -0.1782668 -0.96256214 
0.68026847 0.16276819 -0.7146617 
0.68068415 -0.102465436 -0.7253758 
0.08791463 -0.3596907 -0.92892075 
0.087365456 -0.46753746 -0.87964547 
-0.502571 -0.52434886 -0.6873723 
-0.036262244 -0.50587356 -0.86184514 
-0.13933568 -0.074321225 -0.98745227 
-0.13793653 -0.9411273 -0.30863073 
-0.4350881 -0.82636124 -0.35752684 
0.33731383 -0.88170797 -0.32986423 
-0.21325998 -0.5948987 -0.7749941 
-0.375818 -0.91318494 -0.15765186 
-0.79260117 -0.48977348 0.36318767 
-0.2787157 -0.94885117 0.14832078 
0.04976919 -0.98773885 -0.14796996 
0.19972685 -0.7647878 -0.6125429 
0.44519663 -0.7941817 -0.4136126 
0.45618623 0.00382134 -0.8898762 
0.77157 -0.63496864 0.038660284 
0.43772972 -0.6070779 0.6632112 
-0.97819966 -0.13256988 0.15984629 
-0.80599505 -0.57363355 -0.14600274 
-0.7414908 -0.13823013 -0.65656984 
-0.40122148 -0.102452144 -0.9102334 
-0.038956515 -0.4147207 -0.90911454 
-0.17576732 -0.35600042 -0.9178069 
-0.52275515 0.034190882 -0.85179704 
-0.13675183 -0.0007716499 -0.9906051 
0.35663837 0.047055174 -0.9330568 
0.14295043 -0.6993045 -0.7003845 
0.44456276 -0.034024928 -0.89510125 
0.4620233 0.45253295 -0.76272446 
0.8809134 0.2918311 -0.37259406 
0.12334842 -0.54921037 -0.8265309 
0.14638826 -0.98919165 0.008390848 
0.39291474 -0.7521157 -0.5290935 
0.30889168 -0.9212504 -0.23639743 
-0.16649199 -0.623329 -0.76402974 
-0.13696879 -0.2559394 -0.95694023 
0.8114488 -0.27067637 -0.51796246 
-0.0072895945 -0.36393532 -0.93139577 
0.16479172 -0.7085286 -0.68617123 
0.08108696 -0.52483284 -0.8473344 
-0.27547288 -0.7426673 -0.61037695 
-0.13659224 -0.6529823 -0.7449542 
-0.12313058 -0.45603266 -0.88140404 
-0.37430915 -0.63739365 -0.6735147 
0.44963774 -0.1940011 -0.87188846 
0.02564243 -0.93465066 -0.35464156 
0.32839036 -0.6428338 -0.6920438 
0.037687697 -0.16007103 -0.98638576 
0.03344991 0.38910082 -0.92058766 
-0.029150598 -0.34761748 -0.93718326 
-0.04627714 0.7247487 -0.6874575 
0.31893265 0.0793386 -0.9444509 
-0.42205027 0.21981484 -0.87951976 
-0.05809788 -0.07820194 -0.9952433 
-0.7628836 0.5486002 -0.3421205 
-0.3029653 -0.29701647 -0.9055348 
-0.30882034 0.3823178 -0.8708978 
-0.24974981 -0.64009356 -0.7265709 
0.11549754 -0.73602015 -0.66703427 
-0.019328982 -0.51308095 -0.8581226 
-0.31048802 0.33315444 -0.8902838 
0.10748834 0.48339176 -0.8687801 
-0.1778309 -0.10336866 -0.978617 
0.40334347 -0.62015164 -0.6728492 
0.8189343 -0.069046184 -0.56971854 
0.85269415 0.41514474 -0.31712404 
0.7828826 0.17939354 -0.5957457 
0.77386826 -0.37926754 -0.5072319 
0.74309295 -0.08958372 -0.6631649 
-0.50477266 0.18737675 -0.84267104 
-0.13541703 0.5494287 -0.8244941 
-0.5114456 -0.5449175 -0.664446 
-0.33750924 -0.8447582 0.41529647 
-0.8628923 -0.49836996 -0.08392973 
-0.709304 -0.630395 -0.31542045 
-0.63208675 -0.15294652 -0.7596538 
-0.27439293 -0.4546792 -0.84733427 
-0.3780946 -0.4410478 -0.8139541 
-0.70903534 0.033009276 -0.70439994 
-0.13414448 0.07586179 -0.98805386 
-0.649848 0.12298019 -0.75004905 
-0.16262595 0.46138972 -0.8721653 
-0.22749108 0.1401929 -0.96363574 
0.22232194 -0.5297496 -0.8184976 
0.0856686 -0.542176 -0.8358865 
0.064684026 -0.5725712 -0.81729937 
-0.111912884 -0.38869262 -0.9145456 
0.6572074 -0.38569865 -0.64754534 
0.24280925 -0.62538457 -0.7415779 
0.24350934 -0.35353953 -0.9031683 
0.25724277 -0.42286956 -0.86891174 
0.36610556 -0.54008245 -0.7578111 
0.71234006 -0.090256065 -0.69600683 
0.73656565 -0.08141546 -0.6714482 
0.85534626 -0.29121903 -0.42845586 
0.29673642 -0.8867158 -0.35451722 
-0.020474378 -0.7068254 -0.7070918 
0.29171696 -0.8144451 -0.50157803 
-0.27538076 -0.9611346 0.019643331 
0.019955605 -0.6332815 -0.7736643 
-0.24748266 -0.7504088 -0.61289406 
-0.4189352 -0.8033973 -0.42313823 
-0.40597242 -0.8407299 -0.35827315 
0.23585328 -0.87747943 -0.4176161 
-0.4150333 -0.7485179 -0.5171735 
0.26119813 -0.17673078 -0.9489688 
0.9871563 0.14657013 -0.06355898 
0.9124868 -0.09729797 0.39736763 
-0.011442874 -0.19353257 0.9810271 
-0.73628455 -0.64728457 0.19725077 
-0.5407827 -0.8249542 0.16433142 
-0.78284514 -0.55558026 -0.28015012 
-0.6340531 -0.7602391 -0.14146782 
-0.83251226 -0.289698 -0.47222713 
-0.6400333 -0.45000714 -0.6227768 
-0.39421484 0.049785495 -0.9176689 
-0.533453 -0.46670768 -0.7054162 
0.2637795 0.020403692 -0.96436715 
-0.06274569 0.6303597 -0.77376336 
-0.7303341 0.5550235 -0.39819726 
-0.80384314 -0.06626386 -0.5911391 
-0.32741174 -0.75056225 -0.5739842 
0.04774643 -0.7522874 -0.65710276 
-0.3391624 -0.3405334 -0.8769298 
-0.21439639 -0.59120184 -0.77750546 
-0.3620331 -0.7286716 -0.5813517 
-0.2348572 -0.39853662 -0.88657254 
-0.5005408 -0.79046506 -0.35302123 
-0.12529412 -0.8592808 -0.49592122 
0.1890432 -0.8760356 -0.443649 
-0.5316587 -0.6969198 -0.48129183 
-0.2043444 -0.5374727 -0.8181483 
-0.06546734 -0.52767384 -0.8469206 
-0.5553374 -0.6138726 -0.5610355 
-0.16682105 -0.66855276 -0.7247124 
-0.55281806 -0.75776434 -0.34667775 
-0.11516677 -0.78573906 -0.6077424 
-0.27972075 -0.26608497 -0.92247224 
-0.16168422 -0.84148407 -0.5155219 
-0.19516312 -0.49086145 -0.8490975 
-0.13684526 0.0958503 -0.9859443 
-0.21668397 0.057820205 -0.9745281 
-0.7766036 -0.39987886 -0.48681003 
-0.64614195 -0.10175508 -0.7564037 
-0.7361058 0.23334125 -0.63537407 
-0.26999885 -0.44282562 -0.854989 
0.049348664 -0.8656373 -0.49823377 
-0.7034999 -0.40558106 -0.5836026 
-0.37833154 -0.56536037 -0.7329618 
0.12452855 -0.5719787 -0.81076086 
-0.174693 -0.4842704 -0.85730076 
-0.18826486 -0.82353604 -0.5351119 
-0.21670328 -0.707032 -0.67316085 
0.009649185 -0.46190023 -0.8868795 
0.5143631 -0.5970928 -0.6155574 
-0.04645567 -0.17972723 -0.982619 
0.5660943 -0.001356737 -0.8243395 
0.09153092 0.6013087 -0.7937569 
0.14462468 -0.6103025 -0.7788546 
-0.34256387 -0.47709277 -0.80934083 
-0.50666547 -0.63986677 -0.5778068 
-0.17611603 -0.8588592 -0.48098248 
-0.7284576 -0.5213634 -0.4444433 
-0.72411615 -0.3189596 -0.6114905 
-0.7016068 -0.51541424 -0.49203262 
-0.66774184 -0.46247214 -0.58330137 
-0.11308601 -0.38795638 -0.91471386 
-0.15714309 -0.27582896 -0.9482745 
0.18557699 -0.46211997 -0.86718297 
0.2327796 -0.8341446 -0.5000165 
0.09719836 -0.20466128 -0.973995 
-0.027691945 -0.5187457 -0.85448 
0.15654655 -0.47141495 -0.8679063 
0.072290234 -0.13613662 -0.98804915 
0.30376673 -0.44414416 -0.842889 
0.38437492 0.2784609 -0.8801793 
0.40415108 0.35830572 -0.84159315 
0.4003538 -0.5631244 -0.7229161 
-0.8375995 -0.03891411 -0.54489696 
-0.5779211 -0.3930454 -0.71520805 
-0.04818743 -0.86641395 -0.49699593 
-0.5096161 -0.7762962 -0.37101978 
-0.2165486 -0.6478807 -0.7303132 
0.031012345 -0.01246449 -0.99944127 
-0.25463992 -0.07256082 -0.9643098 
0.19922128 -0.062004663 -0.977991 
-0.05698008 -0.23207739 -0.97102696 
0.58307827 -0.29620072 -0.7564951 
0.5766405 -0.37501705 -0.725843 
0.75722075 -0.42556325 -0.49549246 
0.49528873 -0.37836963 -0.782001 
-0.13141891 -0.1807113 -0.97471666 
-0.1100965 -0.21427213 -0.9705495 
-0.19614553 0.4424343 -0.8750879 
-0.28628942 0.56107146 -0.7766835 
0.2531411 0.09518624 -0.96273524 
-0.34027258 -0.21975319 -0.9142884 
0.2289849 -0.31840965 -0.91988117 
-0.07329334 -0.7618825 -0.64355505 
0.80220526 0.34302875 -0.48866966 
0.084194034 -0.0600012 -0.9946413 
0.24912558 -0.4331794 -0.86619407 
0.7550603 -0.16726929 -0.6339598 
0.16965207 -0.82505816 -0.53897804 
0.052980356 -0.85260975 -0.5198555 
-0.71785975 -0.38066077 -0.58290213 
-0.63947845 -0.13798922 -0.7563242 
0.53821504 -0.65554595 -0.529702 
0.02445212 -0.45926347 -0.88796353 
-0.061842367 -0.84964734 -0.52371264 
0.012478422 -0.8295714 -0.5582613 
-0.15156573 -0.5396809 -0.82811373 
0.31401572 -0.80505323 -0.50327283 
0.37507758 -0.48304364 -0.79119265 
0.4832923 -0.8748028 0.033891626 
-0.32513407 -0.86494815 -0.38229918 
0.03368366 -0.98103637 -0.19087496 
-0.06286738 -0.78249824 -0.619471 
0.0070307623 -0.67132044 -0.7411339 
0.1924392 -0.63894767 -0.7447907 
0.3978917 -0.39535818 -0.8278733 
0.63037133 -0.01509133 -0.7761471 
0.07629472 -0.42630315 -0.9013573 
-0.26762712 -0.590933 -0.7610349 
-0.11506935 -0.6576225 -0.74450773 
-0.22504409 -0.746858 -0.6257463 
0.47564605 -0.6475937 -0.59530103 