# OOMMF: rectangular mesh v1.0
# Segment count: 1
# Begin: Segment
# Begin: Header
# Desc: Time (s) :  6.700000000000014e-07
# Title: m
# meshtype: rectangular
# meshunit: m
# xbase: 2e-09
# ybase: 2e-09
# zbase: 5e-10
# xstepsize: 4e-09
# ystepsize: 4e-09
# zstepsize: 1e-09
# xmin: 0
# ymin: 0
# zmin: 0
# xmax: 1.024e-06
# ymax: 1.024e-06
# zmax: 1e-09
# xnodes: 256
# ynodes: 256
# znodes: 1
# ValueRangeMinMag: 1e-08
# ValueRangeMaxMag: 1
# valueunit: 
# valuemultiplier: 1
# End: Header
# Begin: Data Text
-0.9579416 -0.2767035 -0.0760466 
-0.7878886 0.010220764 -0.61573315 
-0.13499263 -0.3562628 -0.924583 
0.088375926 -0.76198196 -0.64153975 
-0.24898465 -0.9674312 -0.045647938 
-0.47924256 -0.59285444 -0.64718646 
0.02953958 -0.19611621 -0.9801357 
-0.102787524 0.35060015 -0.93086755 
-0.50684977 0.1927071 -0.8402187 
-0.29734507 -0.2090529 -0.93160224 
0.13887075 -0.010243454 -0.9902576 
0.5702789 -0.33572707 -0.7497128 
0.6213722 -0.08282895 -0.77912515 
0.83986676 0.34861955 -0.41603893 
0.80181074 0.38085598 -0.46048716 
0.620772 0.32008 -0.7156752 
0.5252202 -0.24670261 -0.81442106 
0.90899974 -0.21038115 0.35980466 
0.69170403 -0.6394605 -0.33561274 
0.52814883 -0.837695 -0.13901773 
0.60366815 -0.69832003 -0.38462183 
0.5199968 -0.82104707 -0.23555256 
0.69589525 -0.17387357 -0.69677675 
0.69511616 -0.31099644 -0.64814717 
0.16649325 -0.79655933 -0.58118254 
0.24493714 -0.44191864 -0.86296797 
-0.28023675 -0.9308929 -0.23431991 
-0.934305 -0.054948732 -0.3522142 
-0.69211775 -0.3151339 -0.6493564 
0.2434974 -0.27411997 -0.9303587 
-0.09483949 -0.06341362 -0.9934708 
0.0834599 -0.8199751 -0.56628203 
0.5411221 -0.07606763 -0.83749676 
0.4766289 0.15425624 -0.8654652 
-0.11472465 -0.5738367 -0.8108944 
-0.018345704 -0.40545642 -0.91393036 
-0.089646086 -0.76904464 -0.6328776 
-0.24582157 -0.53523564 -0.8081427 
0.0057648756 -0.8548147 -0.5189014 
-0.5246297 -0.80526847 0.27623618 
0.020761168 -0.997437 -0.068472475 
-0.063946515 -0.7990892 -0.59780216 
0.17655852 -0.9597349 -0.218486 
-0.10799798 -0.96457046 0.24070801 
-0.35336193 -0.93438715 0.045344118 
0.09061221 -0.9871318 -0.13175876 
-0.18076427 -0.9138659 0.3635566 
0.013796551 -0.97242266 0.23281723 
-0.3193063 -0.8829561 -0.34413978 
0.10494786 -0.90672255 -0.4084609 
0.4826652 -0.588971 -0.6481878 
0.07103853 -0.99408686 -0.082127385 
-0.13622299 -0.98541105 -0.1020216 
0.23107654 -0.88849396 0.39646226 
0.023888096 -0.6806764 -0.73219466 
-0.4321268 -0.66966283 -0.6040019 
-0.14796641 -0.964306 -0.21959041 
0.40192398 -0.79390186 -0.45626438 
-0.5183757 -0.509877 -0.6865217 
-0.32748324 -0.7582556 -0.5637404 
-0.7754713 -0.48987132 -0.39833444 
-0.12243676 -0.7527234 -0.6468515 
-0.14363673 -0.9778862 -0.15201075 
-0.16364905 -0.91745794 -0.36261535 
-0.046250425 -0.8890818 -0.45540595 
0.3159779 -0.719725 0.618186 
0.41447425 0.15019609 0.8975814 
-0.19947779 -0.48031795 0.85410964 
-0.5192852 -0.7903903 -0.32500178 
-0.07663959 -0.97291744 -0.21807821 
-0.5467411 -0.35557744 -0.7580494 
-0.11707068 -0.48077756 -0.8689922 
-0.105017945 -0.0026168032 -0.99446696 
0.056119613 -0.6381228 0.76788676 
-0.43220377 -0.41686383 0.7996403 
-0.0947988 -0.9953138 0.01907153 
-0.8278761 -0.5290681 -0.18630132 
-0.35728142 -0.3137199 -0.87973285 
-0.6691123 -0.6273632 -0.39837688 
-0.61399317 -0.37374982 -0.69521475 
-0.567915 -0.8068336 0.16276388 
-0.7381109 0.2689309 -0.6187637 
-0.59827447 0.10905665 -0.7938353 
0.21380424 -0.114388414 -0.9701562 
0.45978644 0.42747366 -0.77837175 
-0.3155264 -0.1573102 -0.9357866 
-0.57564783 -0.027931217 -0.8172205 
0.4288196 -0.55986124 -0.70899165 
0.20697007 -0.10010561 -0.97321236 
0.0666213 0.36119473 -0.93010753 
0.66070956 0.526402 -0.53512985 
0.5942271 0.6468459 -0.47800067 
0.885725 -0.2100346 -0.41397655 
0.83934116 -0.22386876 -0.49536768 
0.7115665 -0.6203264 -0.32995206 
0.464615 -0.56964546 -0.6779654 
0.8566633 -0.24919617 -0.45169613 
0.12773994 -0.24273607 -0.9616454 
0.50851005 -0.7217046 -0.46963823 
0.2495035 -0.785576 -0.5662319 
0.57552093 -0.5141912 -0.6359112 
0.27419215 -0.38631776 -0.88066864 
0.28227207 -0.41351148 -0.86563903 
0.666095 -0.73257786 -0.14016871 
-0.06966395 -0.99003875 0.122352734 
0.4900097 -0.8701647 0.052000847 
0.39841 -0.5962358 0.6969737 
0.9790842 -0.1963644 -0.05324626 
0.9858968 0.16726597 -0.0054455237 
-0.11705811 -0.5753842 -0.80946314 
0.33029002 -0.8708602 -0.36402062 
-0.055521294 -0.87719625 -0.476911 
-0.51199204 -0.6967947 -0.5023359 
-0.9562739 -0.26016602 0.1336184 
-0.7494403 -0.008066565 -0.6620228 
-0.87530917 -0.042100627 -0.48172748 
0.076386176 0.07767803 -0.994048 
0.34393013 0.024526013 -0.9386749 
0.21990417 -0.19009759 -0.95682025 
-0.29397786 -0.48981 -0.8207699 
0.45053515 -0.70238847 -0.55106133 
0.91057 -0.4113795 0.040364116 
0.39700472 -0.91095334 0.112033084 
-0.257129 -0.8981811 0.3565888 
-0.021001147 -0.9765401 -0.21430925 
-0.20045726 -0.7909515 -0.5781114 
-0.57606095 -0.8158945 -0.04969963 
-0.49846473 -0.82680744 -0.26061964 
-0.29843462 -0.68652046 -0.6630433 
-0.21311854 -0.07431748 -0.97419584 
-0.1873728 -0.44205517 -0.8771993 
0.40867338 -0.6144724 -0.6748406 
0.13292342 -0.7969036 -0.58930147 
0.22520489 -0.15678465 -0.9616139 
0.049806308 0.25816858 -0.96481526 
-0.14263734 -0.50352997 -0.85212225 
-0.6396767 -0.50999236 -0.575084 
-0.48260632 -0.6857421 -0.54483855 
-0.72577953 -0.492538 -0.48026088 
-0.74388963 -0.5929289 -0.308324 
-0.638963 -0.7639842 -0.08974694 
-0.6702878 -0.57843846 -0.46489063 
-0.2782471 -0.8430197 -0.46032193 
-0.13944782 -0.7764058 -0.6146123 
0.42335573 -0.7027375 -0.57177794 
0.87336713 -0.4683944 -0.13355339 
0.22684716 -0.9451924 -0.23484395 
0.31114978 -0.9287895 -0.20133546 
0.45215362 -0.7989109 0.39660874 
-0.25263816 -0.57304174 -0.7796135 
0.2679767 -0.95137715 0.15188837 
-0.5437726 -0.81612444 -0.19558233 
0.26824537 -0.43581808 -0.85913163 
0.63715976 -0.42501038 -0.642957 
0.17080086 -0.06353319 -0.98325515 
0.22834149 0.42699096 -0.87495077 
0.33632296 -0.0010469628 -0.94174623 
0.34482998 -0.21688777 -0.91326445 
0.59612936 -0.03185118 -0.80225646 
-0.9738119 -0.15470102 -0.16660748 
-0.8075106 -0.5718195 -0.14473835 
-0.081212126 -0.798179 -0.59692127 
0.33562985 0.084199324 -0.93822336 
0.29764745 -0.42565876 -0.85452956 
-0.18047608 0.09797268 -0.97868776 
0.04170356 -0.085001305 -0.9955077 
-0.5388902 -0.4955495 -0.68119603 
0.2637194 -0.7223089 -0.63931376 
0.09427636 -0.85160464 -0.5156372 
0.12965694 -0.770837 0.6236982 
-0.1420602 -0.92534643 0.35150108 
-0.50976664 -0.85637856 -0.08218107 
-0.825672 -0.30772224 -0.4728348 
-0.12000296 -0.31910333 -0.9400918 
0.67152715 -0.2800491 -0.68602026 
0.8929104 -0.09515977 -0.44006327 
0.888432 -0.27792335 -0.3653042 
0.87846345 -0.034185007 -0.47658512 
0.5796775 -0.7832578 0.22468059 
0.37202913 -0.56607306 -0.7356329 
-0.61712754 -0.6450267 0.4506598 
-0.8119024 -0.19025584 0.5519215 
-0.597408 -0.6136774 -0.5162401 
-0.8892034 -0.24726535 -0.3849379 
-0.59946465 -0.2598673 -0.7570411 
-0.29377407 -0.6157299 -0.7311454 
0.25921193 -0.08201863 -0.9623316 
0.37125948 -0.61818457 -0.6928306 
0.013957281 -0.9783964 0.20626645 
0.09761379 -0.96093726 0.25898108 
-0.23591237 -0.85531145 -0.4612891 
0.18658298 -0.59968984 -0.77817667 
0.09593234 -0.96473104 -0.24513493 
-0.54863155 -0.75042105 -0.36860806 
0.13464649 -0.71480227 -0.68624204 
0.07510971 -0.31132036 -0.9473322 
0.31296209 0.4287826 -0.847467 
-0.37866098 -0.62222034 -0.68516994 
-0.093486786 -0.9650931 0.24465396 
0.16603984 -0.96624845 -0.19696397 
0.16625245 -0.8520031 -0.49643826 
0.024121817 -0.998154 -0.055740222 
0.48155972 -0.81294155 0.32745412 
-0.93179536 -0.015397369 0.36265755 
-0.7110705 -0.5375121 0.45327657 
-0.8093335 -0.5623194 0.16963585 
-0.7596412 -0.5848243 0.284475 
-0.22654879 -0.9709444 -0.07708824 
-0.5154762 -0.8428832 -0.15437679 
-0.32565197 -0.45299292 -0.82990855 
-0.072783604 -0.5859768 -0.8070525 
-0.20244569 -0.4652559 -0.86171496 
-0.08972521 -0.981138 -0.1712245 
-0.6020685 -0.78597146 0.14057927 
-0.8574874 -0.51429886 -0.014567896 
-0.6381744 -0.24011777 -0.73148954 
-0.12961465 -0.9666289 -0.22097208 
0.3179334 -0.9021784 -0.29153466 
0.9200118 0.18035726 0.34792173 
0.3300821 -0.94271827 -0.048251823 
0.020101521 -0.99947983 -0.025219977 
-0.6363824 -0.60443604 -0.47924384 
-0.6679791 -0.41063735 -0.6206295 
-0.4938019 -0.27591205 -0.82464075 
-0.1596079 -0.6652696 -0.72934335 
-0.22677729 -0.9183387 -0.32438567 
-0.03264075 -0.8756022 -0.48192877 
0.8251706 0.29109737 -0.48410323 
0.4229186 0.41187665 0.80715394 
0.1371617 0.30016556 0.9439742 
-0.32496238 -0.16708808 0.9308497 
-0.75094223 -0.55138063 0.3634079 
-0.8786885 -0.46068034 -0.1252203 
-0.47525623 -0.6692409 -0.57118154 
0.14657775 -0.7885281 -0.59727585 
-0.5273608 -0.84722817 -0.0639927 
-0.30860138 -0.9053148 -0.29183963 
-0.2772199 -0.6270202 -0.72800744 
-0.08231112 -0.77984583 -0.62053645 
0.27812093 -0.07571226 -0.95755756 
-0.059414893 0.14326325 -0.9878996 
-0.29829967 0.46108028 -0.8357167 
0.012379866 -0.8888039 -0.45812064 
0.34844336 -0.38252485 -0.8557231 
0.3149217 -0.022635674 -0.9488478 
0.67427427 -0.5449615 -0.49836856 
0.6851502 -0.7252978 -0.067173816 
0.6998381 -0.61921954 -0.35608116 
0.6303395 -0.7658411 0.12712023 
0.40694767 -0.65315336 -0.63858 
0.617659 -0.5572899 -0.55491024 
0.8318236 -0.5435865 -0.112175316 
-0.532456 -0.7060396 -0.46690333 
0.10198969 -0.5088435 -0.8547961 
0.054839183 -0.84853166 -0.5262953 
-0.25043833 -0.96707416 0.045258258 
-0.9716345 -0.23366843 -0.036407746 
-0.86731285 0.38910463 -0.31042898 
-0.30774775 0.22979799 -0.9233008 
-0.16743876 -0.2355302 -0.9573348 
-0.50849974 -0.6629733 -0.5494492 
-0.7744661 0.22090188 -0.592794 
-0.36048985 -0.07931233 -0.92938507 
-0.036639914 -0.634078 -0.7724006 
0.30132452 -0.75694585 -0.5798591 
-0.0053131855 -0.8974434 -0.44109777 
-0.0029230947 -0.5390231 -0.842286 
0.17970549 -0.82297844 -0.5388995 
0.6276796 -0.68243563 -0.37456653 
0.77501756 0.04416785 -0.6303943 
0.49907687 0.042167358 -0.8655312 
0.99436736 -0.036343567 -0.09956264 
0.66759664 -0.74451673 -0.0031248059 
0.22355212 -0.8931454 -0.39027688 
0.7615949 -0.33401623 -0.55534345 
0.5269604 -0.71410763 -0.46082866 
0.59084386 -0.793612 -0.14520195 
0.97226197 0.096685834 -0.21297546 
0.91556823 0.18869613 -0.35514602 
0.83577806 -0.21833444 -0.50379074 
0.694211 -0.5818607 -0.42368534 
0.24288744 -0.77687514 -0.58092237 
-0.33380958 -0.8396031 -0.42852992 
-0.7119972 -0.6965136 -0.08904413 
-0.75839406 -0.48711213 -0.43308234 
-0.34142265 -0.5421508 -0.7677911 
0.38315365 -0.6733471 -0.6322951 
0.6954691 -0.41313788 -0.5879114 
-0.25116763 -0.10882839 -0.9618063 
-0.009089635 -0.35857126 -0.93345815 
-0.45104727 -0.10397825 -0.8864225 
-0.3839663 -0.32461125 -0.8644059 
0.04966916 -0.24993116 -0.96698886 
0.55887526 -0.21625012 -0.8005588 
0.22058739 -0.69698757 -0.68231195 
0.26674578 -0.9013564 0.3411795 
-0.65230423 -0.60362744 -0.45840287 
-0.04400315 -0.7310273 -0.680928 
-0.26380348 -0.96132934 -0.07908035 
-0.5002054 -0.6938625 -0.5180245 
-0.43207902 -0.44371557 -0.78512704 
0.3036072 -0.36543086 -0.8799335 
0.20071849 -0.8441672 -0.49708545 
0.17557237 -0.80069095 -0.5727725 
-0.44902492 -0.8045352 -0.3887153 
-0.03648858 -0.8109223 -0.58401525 
-0.3494669 -0.839665 -0.41573498 
-0.43159533 -0.83326167 -0.3455441 
0.065555304 -0.97743183 -0.20082216 
0.55356425 -0.50557804 -0.66178364 
-0.04444268 -0.7721383 -0.63389844 
-0.16013712 -0.8693928 -0.46745303 
-0.44240445 -0.73488194 -0.5140301 
0.082709685 -0.85821384 -0.5065848 
-0.035227142 -0.68804914 -0.72480863 
-0.11591992 -0.8550391 -0.5054411 
-0.48895127 -0.59814215 -0.6349431 
0.017366428 -0.5134698 -0.857932 
0.17887059 -0.5761782 -0.79751116 
0.33212078 -0.4902052 -0.80585027 
0.40808684 -0.8984021 0.16229229 
0.050869316 -0.98906296 -0.13844419 
0.20596951 -0.862769 0.46174267 
-0.12209345 -0.84165287 0.5260357 
0.0366799 -0.9813864 -0.18850832 
0.21981554 -0.9753267 0.020469313 
-0.08828295 -0.39205074 -0.9156977 
0.061393794 -0.42990232 -0.90078574 
-0.22158489 -0.19876888 -0.9546681 
-0.6454941 -0.7509743 0.13919392 
-0.35043034 -0.9306007 -0.10574014 
-0.14358217 -0.9895851 0.0102744475 
-0.66371036 -0.49733534 -0.5587005 
-0.57814825 -0.29807472 -0.7595368 
-0.12249887 -0.66156566 -0.73981416 
-0.31563112 -0.13168693 -0.9396997 
-0.15027578 -0.97831446 -0.142541 
-0.043544922 -0.42637324 -0.90349865 
-0.33768454 0.015689492 -0.9411287 
-0.20369406 0.16301332 -0.9653681 
-0.6758615 -0.10311633 -0.7297796 
-0.43683875 0.23105112 -0.8693603 
-0.86197203 0.16238399 -0.48024547 
0.021690084 -0.01885982 -0.9995869 
0.4324076 0.6108509 -0.6632382 
0.7318294 0.609823 -0.30420676 
0.40338254 0.20565076 -0.8916223 
0.8687955 -0.15248711 -0.47110718 
0.73315144 0.44601995 -0.5133763 
0.81953627 0.22710665 -0.5261017 
0.34736845 -0.7337084 -0.58395827 
0.4793433 -0.30231008 -0.8239167 
0.14738043 -0.5393871 -0.8290601 
0.44696617 -0.49456006 -0.74540704 
0.55632144 -0.72494054 -0.40616232 
0.16448869 -0.9033362 -0.39614034 
0.70779204 -0.14378336 -0.69163346 
0.11914864 0.09357462 -0.98845714 
0.26103944 -0.39377993 -0.8813602 
0.5089734 -0.5570176 -0.65626025 
-0.09954845 -0.8074815 -0.5814325 
0.6411907 -0.64123374 -0.42153758 
0.8392431 -0.5284864 0.12795852 
0.98355496 -0.14345813 -0.1097244 
0.807906 -0.44660366 0.38449064 
-0.19480923 -0.8882505 0.41600543 
-0.08175012 -0.9642143 -0.2522061 
-0.26084697 -0.78392607 -0.56339943 
-0.42311737 -0.77080184 -0.47627327 
-0.45940316 -0.5865475 -0.66701645 
-0.8290989 -0.36342096 -0.42487687 
-0.5617401 0.33645457 -0.75580853 
0.07763296 0.1793066 -0.9807254 
0.0043298234 -0.15812859 -0.9874091 
-0.0870976 -0.055764962 -0.99463785 
0.37387577 -0.5595084 -0.73970765 
0.5858104 -0.67349017 -0.45081833 
0.1577742 -0.98301536 0.093745194 
0.47593424 -0.81618124 -0.32762024 
-0.42739746 -0.7878059 -0.44350126 
-0.17718548 -0.87185585 -0.45658818 
0.008283716 -0.6466626 -0.76273125 
-0.50450206 -0.79310465 -0.34126645 
-0.36241597 -0.8673467 0.3411224 
-0.8083376 -0.3701897 -0.45776626 
0.0076977615 -0.74192506 -0.6704387 
-0.22360131 -0.4844479 -0.84576166 
0.17575687 -0.9499935 -0.25811213 
-0.059775364 -0.5986523 -0.7987756 
-0.23483086 -0.788242 -0.5687961 
-0.23134626 -0.6125594 -0.75581086 
0.008308055 -0.6729685 -0.73962456 
-0.10150101 -0.26754704 -0.95818377 
-0.48697484 -0.588669 -0.645232 
-0.1575208 -0.15243165 -0.97568023 
-0.12634197 -0.7827187 -0.60941714 
0.09412685 -0.9370952 -0.336144 
-0.15842268 0.16349517 -0.97374105 
-0.49114546 -0.60867053 -0.62313426 
0.002204441 -0.4256374 -0.9048912 
0.015019178 -0.41600487 -0.90923846 
0.19601077 -0.8185374 -0.5399782 
0.5561816 -0.8212201 0.12751396 
0.79468524 -0.50938004 -0.33016294 
0.4452293 -0.8450022 -0.2962129 
0.43580413 -0.89976704 -0.022228245 
0.4822979 -0.7798223 -0.39908156 
0.29176146 -0.40491667 -0.8665551 
0.47644678 -0.7090984 -0.5197864 
-0.13502811 -0.4108463 -0.90165 
0.199938 0.6116484 -0.7654483 
0.34999588 0.095145375 -0.9319068 
0.4587421 0.19881843 -0.866041 
0.31982103 -0.14872998 -0.9357318 
0.20256613 -0.39473453 -0.89618725 
0.4243552 -0.78459 -0.45204136 
0.14842358 -0.8045902 -0.5749826 
0.17725179 -0.64045197 -0.7472638 
0.41043043 -0.7630599 -0.49928603 
0.1502209 -0.7974536 -0.5843814 
0.30240718 -0.5563277 -0.7739829 
0.24903834 -0.81283605 -0.5265714 
-0.112937525 -0.6668922 -0.736546 
0.36583605 -0.7417105 -0.56216514 
0.69010025 -0.30203444 -0.65767545 
-0.5293436 -0.6249858 -0.57374924 
0.021314545 -0.9810679 -0.19248767 
-0.034787454 -0.5546975 -0.83132464 
-0.20221704 -0.020366007 -0.97912896 
-0.21274287 -0.3208349 -0.9229331 
0.4759823 -0.0021883198 -0.8794521 
0.96539545 0.09447187 -0.24307752 
0.87672883 0.34142113 0.33878922 
0.88391095 -0.39641544 -0.24810515 
0.18316035 -0.6490154 -0.73839784 
0.21920398 -0.8270087 -0.5176933 
0.11727329 -0.9190887 -0.37619534 
0.39770782 -0.831583 -0.3876831 
-0.22468793 -0.82706606 -0.51524466 
-0.31033435 -0.6417695 -0.701302 
-0.44499278 -0.024059305 -0.8952109 
-0.4287279 -0.45228174 -0.7820701 
0.6400925 -0.08733435 -0.763318 
0.13238433 -0.6023217 -0.7871995 
0.35666043 -0.53553313 -0.76550484 
0.49305755 -0.84483075 -0.20773874 
0.21991727 -0.9651577 -0.14180021 
-0.22836934 -0.14101407 -0.96330816 
-0.50153154 -0.23294668 -0.8331878 
-0.2897955 -0.930094 0.22570735 
-0.22337125 -0.35543337 -0.9076192 
-0.07619331 -0.2883092 -0.9545011 
-0.801111 -0.45135465 -0.39306524 
-0.6782358 -0.5196018 -0.519625 
-0.2847662 -0.85845995 -0.42656183 
0.35588038 -0.82974744 -0.42996332 
0.16093893 -0.7903946 -0.5910797 
0.27670768 -0.7066261 0.65123916 
0.11576423 -0.97873205 -0.16935872 
-0.27073509 -0.9614878 0.047366578 
-0.5482312 -0.25456247 0.7966433 
0.20593958 -0.9259489 -0.31655562 
0.33136615 -0.65048456 -0.6834226 
-0.49330467 -0.65058386 -0.5774003 
-0.60188866 -0.5157508 -0.60969764 
-0.20138459 0.25630134 -0.9453856 
-0.2080841 -0.45427755 -0.8662176 
0.24509116 -0.73106444 -0.63676924 
-0.0015151283 -0.96486676 -0.26273552 
0.14293136 -0.7982703 -0.58509415 
-0.56709146 -0.5694855 -0.59505767 
0.11515411 -0.60643756 -0.7867485 
-0.038908947 -0.97718865 -0.20877874 
0.5253764 -0.7321531 -0.43351066 
0.9963719 0.025156338 0.08130352 
0.9094979 -0.34139758 -0.23719448 
0.3345003 -0.32876918 -0.88318765 
0.05593739 -0.7932031 -0.6063826 
-0.38485587 -0.58358604 -0.71506184 
-0.06983364 -0.9648683 -0.25328338 
0.13524191 -0.85553956 -0.4997617 
0.0021107884 -0.91054934 -0.41339526 
0.1863556 -0.9818282 -0.035848916 
0.69410324 -0.688897 -0.2089059 
0.16815647 -0.43936062 0.88243175 
-0.705475 0.17964129 0.6855904 
-0.8411928 -0.20487233 0.50042194 
-0.53930587 -0.638094 -0.549532 
-0.30766833 -0.6664552 -0.6791007 
0.17412722 -0.6229433 -0.7626411 
-0.19305085 -0.057109967 -0.9795253 
-0.3540493 -0.2632374 -0.8974159 
0.11799051 -0.6259242 -0.7709067 
0.085626476 -0.6407315 -0.76297534 
-0.5808007 -0.31324732 -0.7513633 
-0.82046425 0.00092297635 -0.5716973 
0.05890533 -0.07877758 -0.99515045 
0.43971437 -0.6926685 -0.5717183 
-0.5339667 -0.7307794 -0.42525414 
0.48539764 -0.70906055 -0.5114904 
0.18522918 -0.9663166 -0.17866838 
0.5520955 -0.4275528 -0.7158137 
0.5234538 -0.339066 -0.7816844 
0.16607034 -0.8075691 -0.5659089 
0.50395954 -0.58966583 -0.6311252 
0.86721176 -0.40608686 -0.28816178 
0.8138364 -0.103794955 -0.57174915 
0.7151376 -0.5985092 -0.3610609 
-0.25065973 0.03600082 -0.9674057 
-0.15588894 -0.18882567 -0.9695585 
-0.10990876 -0.7598246 -0.6407704 
-0.29358217 -0.910853 -0.29009727 
-0.9968076 -0.05592141 0.056986704 
-0.77151686 0.18113801 -0.6098777 
-0.119218834 0.4046846 -0.9066517 
0.22736403 0.25313812 -0.9403333 
-0.6951503 -0.54984426 -0.46307385 
-0.73973143 0.32974532 -0.58657104 
-0.5566919 0.5274968 -0.64174867 
-0.23776649 -0.10969158 -0.9651088 
-0.52145547 -0.5053386 -0.6875443 
-0.64503795 -0.54061604 -0.540056 
-0.5074938 -0.5203314 -0.6868081 
-0.33082289 -0.26224124 -0.90652406 
0.21295074 0.39131895 -0.8952773 
0.46231222 -0.5084184 -0.7264834 
0.67630404 0.37526366 -0.6338692 
0.47949982 -0.3808319 -0.79059917 
0.8563726 -0.4845691 -0.1783784 
0.8596149 -0.5104679 0.022019189 
-0.1788922 -0.9702661 -0.16303785 
-0.15516245 -0.30823848 -0.93857 
0.33254316 -0.85868645 -0.38996497 
0.9819912 -0.12823513 -0.13874148 
0.61330277 -0.5285806 -0.5869091 
0.91388875 -0.3190761 -0.25099388 
0.24414565 0.05624467 -0.9681061 
-0.268319 -0.62321097 -0.7345837 
-0.72786546 -0.27867046 -0.6265419 
-0.08288488 -0.54293346 -0.8356754 
-0.6203605 -0.24596159 -0.74475217 
-0.71164674 -0.47555292 -0.5171155 
0.6276146 -0.61264503 -0.48038107 
0.52467924 -0.66801417 -0.5277015 
0.22719 -0.14708829 -0.9626785 
-0.06516392 -0.08314116 -0.994405 
-0.15862818 0.4017218 -0.9019184 
0.037281938 0.16119142 -0.9862188 
-0.09113082 -0.8493919 -0.5198351 
0.3857045 -0.63085616 -0.67324036 
-0.07129741 -0.9946007 0.075406544 
0.008756082 -0.8036543 -0.59503216 
-0.13448083 -0.83136445 -0.5392107 
0.03025558 -0.6407159 -0.76718175 
0.27325523 -0.31776488 -0.9079411 
-0.2610099 -0.8948525 -0.36209506 
-0.4176805 -0.86783594 -0.26907936 
0.08211402 -0.53235835 -0.8425271 
-0.29347205 -0.5292972 -0.7960645 
0.28170383 -0.38281476 -0.8798272 
-0.41511655 -0.47602633 -0.7752917 
-0.16603525 -0.14288373 -0.97571343 
-0.6717884 -0.55020404 -0.49595964 
-0.16809732 -0.789857 -0.58980453 
-0.038174707 -0.7767976 -0.62859225 
-0.014470457 -0.46657896 -0.88436127 
-0.567177 -0.2529549 -0.78378826 
0.500258 -0.6322189 -0.5916428 
-0.39719588 -0.90829724 0.13126868 
-0.26658112 -0.94965404 0.16459611 
-0.5580239 -0.40676415 -0.72329265 
-0.55210805 -0.5907125 -0.5884178 
0.2868575 0.0050868737 -0.95795983 
0.20351148 -0.44608977 -0.8715429 
0.55128545 -0.47085044 -0.6887557 
-0.6988871 -0.25002217 -0.67010874 
-0.48982605 -0.8604548 0.14031374 
0.028308142 -0.92415065 -0.38097826 
0.43526343 -0.7687344 -0.46860772 
0.4111131 -0.89860505 -0.15328152 
-0.039572332 -0.93502516 0.35236633 
-0.14672203 -0.6766746 -0.7215152 
-0.27514222 -0.522187 -0.80722827 
-0.27054775 -0.115535475 -0.9557487 
0.5353631 -0.53941673 -0.6499354 
0.52413464 -0.598466 -0.6059054 
-0.03559585 -0.42306313 -0.90540075 
0.17434673 -0.9216929 -0.34653333 
0.042223904 -0.7241222 -0.6883779 
-0.4650783 -0.7441022 -0.47959805 
-0.3629606 -0.7773002 -0.5138718 
-0.11579735 -0.30768242 -0.9444166 
-0.18677689 -0.13507324 -0.97307235 
-0.017345734 0.040993888 -0.99900883 
-0.09976046 -0.31595698 -0.9435143 
0.0074359057 0.6760725 -0.7367977 
-0.26017514 0.5106018 -0.81950885 
-0.46837327 0.002598135 -0.88352686 
-0.5625528 -0.13229176 -0.8161087 
-0.19746749 0.025353832 -0.97998154 
0.793182 -0.15831721 -0.58804584 
0.6947822 -0.066505186 -0.7161389 
0.761969 -0.011793329 -0.6475062 
0.6389492 0.64601684 -0.41761968 
0.7486029 0.5047213 0.4299421 
0.7107369 -0.53072584 -0.46171775 
-0.1989774 -0.6788125 -0.70683926 
0.14297315 -0.8642553 -0.4823084 
-0.9742794 -0.054545455 -0.21864231 
0.1870917 -0.8023553 -0.5667652 
0.4264368 -0.14146273 -0.8933868 
0.28826392 -0.27259892 -0.9179291 
-0.17595157 0.3930499 -0.90252584 
0.85181946 -0.09646728 -0.5148765 
0.21249184 -0.5273874 -0.8226237 
-0.13962288 -0.9407263 -0.30909467 
0.6241643 -0.30828556 -0.7178991 
0.8370101 -0.013944939 -0.54700965 
0.68489605 -0.015218846 -0.7284818 
0.9422382 -0.31625432 -0.11031978 
0.976362 -0.07391532 0.20311041 
0.71951306 -0.65032494 0.2436769 
0.4421051 -0.87767524 0.18501194 
-0.10914013 -0.90946144 -0.4012086 
-0.20052753 -0.847609 -0.49127173 
-0.14868209 0.24307753 -0.95854425 
-0.88893193 -0.06960767 -0.45271924 
-0.5601442 -0.09441054 -0.8229976 
-0.16473822 0.27208814 -0.9480662 
0.2513339 -0.15551515 -0.9553253 
0.13012365 -0.12025546 -0.98417807 
0.0060793203 0.068052806 -0.9976632 
0.48241657 -0.8634385 -0.14747281 
0.031471986 -0.98646307 0.16093536 
0.0704205 -0.9962208 0.05084389 
-0.55301493 -0.4852519 -0.6772778 
0.1587566 -0.96975464 -0.18539767 
-0.5436797 -0.39102086 -0.7426406 
-0.46890077 -0.40007403 -0.7874471 
-0.6580356 -0.41509092 -0.62824255 
-0.4217985 -0.7068211 -0.56788206 
-0.06540452 0.13188094 -0.98910546 
-0.20867985 -0.16556378 -0.96386796 
-0.4525993 -0.102969445 -0.885749 
0.1754542 -0.6964632 -0.6958124 
0.087347455 -0.22887671 -0.9695287 
-0.045094583 0.112262234 -0.99265486 
0.20544852 0.062202007 -0.9766892 
-0.23739634 0.6058917 -0.75930125 
-0.624587 -0.21525429 -0.7507041 
-0.4444246 -0.25689253 -0.85819167 
-0.23518121 -0.45440626 -0.8591885 
-0.25483447 -0.012756457 -0.96690065 
-0.5211299 0.5781633 -0.6278143 
0.101661146 -0.3231687 -0.9408651 
0.20379893 -0.0675898 -0.9766769 
0.2067849 -0.33473724 -0.9193427 
0.7351293 0.11908427 -0.6673859 
0.4599045 -0.17356361 -0.8708407 
0.767537 -0.16943365 -0.61820644 
0.4633275 -0.8778875 -0.12100065 
0.48266378 -0.8641062 -0.14267504 
0.19162753 -0.9675479 -0.16471155 
0.45131397 -0.8515414 -0.26682016 
0.37370634 -0.67856705 -0.6323688 
0.5987046 0.103892826 -0.7942036 
0.67241 0.4614441 -0.578735 
0.62764 -0.038018763 -0.7775748 
0.088953584 0.74333537 -0.66297805 
0.15498935 -0.2141059 -0.9644362 
-0.23691246 -0.15265739 -0.95946246 
0.31035772 -0.5862796 -0.74830097 
0.19667764 -0.18496342 -0.9628637 
0.33363086 -0.09213977 -0.93819016 
0.14349775 -0.16424087 -0.97592694 
0.18622357 -0.72195226 -0.66641265 
-0.5389414 -0.7508574 -0.38177916 
-0.49521837 0.16696383 -0.8525737 
-0.49092144 -0.23907377 -0.8377589 
0.5947563 -0.3503726 -0.7235357 
-0.1060822 -0.45895624 -0.8821031 
-0.24573687 -0.6261767 -0.7399433 
-0.085942276 -0.83596116 -0.54201734 
0.55788684 0.17844215 -0.8105064 
-0.09550516 0.12700579 -0.9872935 
0.44070816 -0.008851889 -0.89760685 
0.24086572 0.38426295 -0.8912496 
0.77813363 0.0022784555 -0.6280947 
0.939888 -0.30520648 0.15316543 
0.510635 -0.784902 0.35097128 
0.106207825 -0.9736607 -0.20175466 
0.47954684 -0.78038734 -0.40128592 
-0.13440444 -0.7441555 -0.6543455 
0.43115515 -0.4597301 -0.7763721 
0.58150804 -0.79850477 -0.15568689 
-0.086700365 -0.7748001 -0.6262331 
0.49407858 -0.30624527 -0.81369543 
-0.23320529 -0.6693461 -0.7054015 
-0.29605994 -0.48059598 -0.82545507 
0.20138773 -0.20790252 -0.95719355 
0.14019601 -0.5407131 -0.8294423 
-0.49105966 -0.6035128 -0.6281981 
-0.46206462 -0.8837854 -0.07361912 
-0.6997092 -0.19972083 -0.6859436 
-0.31105652 -0.12653589 -0.9419302 
-0.15814109 -0.5490133 -0.8207166 
0.026039965 0.11029322 -0.993558 
-0.13767779 -0.33316565 -0.9327624 
-0.5404848 -0.29336563 -0.78855103 
0.04621171 -0.46500304 -0.8841022 
0.01303675 -0.6028886 -0.7977188 
0.20950127 -0.7472584 -0.6306458 
0.5028687 -0.8582748 0.102408156 
0.14460838 -0.9724148 -0.18302426 
0.11827469 -0.76633584 -0.631459 
-0.28917345 -0.94427395 0.15724331 
-0.8697218 -0.19440481 -0.45364162 
0.026696056 -0.47122228 -0.8816105 
-0.7188238 -0.07558986 -0.69107056 
-0.52077836 -0.28822803 -0.8035637 
-0.3178251 -0.4046652 -0.8574576 
-0.5003485 -0.101160124 -0.8598942 
0.09770909 -0.7135646 -0.6937424 
0.6042704 -0.7005922 -0.37951022 
0.88070905 -0.27563694 -0.38519594 
-0.078123175 -0.42069966 -0.90383005 
-0.06818297 -0.6069335 -0.7918225 
0.5089079 -0.72940314 -0.45714766 
0.515103 -0.6403705 -0.569732 
0.29322478 -0.9354053 -0.19757582 
0.67577744 -0.32191983 -0.6630932 
0.23049574 -0.5480801 -0.80403984 
0.51570934 -0.3635118 -0.77582425 
0.23601463 -0.32269776 -0.9166043 
0.21890174 0.18969446 -0.9571302 
-0.7858988 -0.6003021 -0.148326 
-0.51475376 -0.745194 -0.4239275 
-0.3304213 -0.7832147 -0.52668446 
-0.6902126 -0.7045503 -0.16497102 
-0.6555412 -0.7417081 0.14189757 
0.03363673 -0.67666227 -0.73552483 
-0.37740418 -0.79931104 -0.46761957 
-0.5254546 -0.68976617 -0.4981167 
-0.05057867 -0.5973251 -0.80040276 
-0.13962056 -0.76396596 -0.6299701 
0.67715293 -0.27823243 -0.6812126 
0.05025819 -0.7067009 -0.7057252 
-0.4809192 -0.57437855 -0.66242445 
0.27459654 -0.21577431 -0.937037 
0.2921928 -0.7809483 -0.5520356 
0.35221422 -0.7753907 -0.5241322 
-0.7501416 -0.16736011 -0.6397485 
0.60328066 0.25650576 -0.7551538 
0.19140482 0.37791848 -0.90583766 
0.12196142 -0.019361243 -0.99234605 
0.13395211 0.030375352 -0.9905222 
-0.022554511 -0.6863344 -0.7269364 
0.23633489 -0.65467334 -0.7180172 
0.4382209 -0.8059929 -0.3979169 
0.1089356 -0.40739077 -0.90673363 
0.16751255 -0.4680967 -0.8676549 
0.3959474 -0.31216532 -0.86358476 
0.79361326 -0.14647274 -0.59052837 
0.5165347 -0.2527089 -0.8181261 
0.37581 -0.75540745 -0.53677416 
-0.014330645 -0.92904806 -0.3696817 
-0.23024994 -0.850989 -0.47202006 
-0.11739816 0.35456055 -0.9276338 
-0.8958284 0.43171653 0.10541546 
-0.6912303 0.18314204 -0.699042 
-0.23106755 0.020995017 -0.9727112 
-0.11424598 0.5884733 -0.8004043 
-0.43045145 0.11659873 -0.89505106 
-0.55510926 0.38358346 -0.73804975 
-0.0028364172 0.5036362 -0.8639112 
-0.3684439 0.31219435 -0.87566197 
-0.6939362 0.33437622 -0.63768727 
-0.085634165 0.20275417 -0.9754781 
-0.29161388 0.14893737 -0.94486994 
0.139768 -0.24376914 -0.95970917 
0.7808918 0.12246458 -0.6125444 
0.5904481 -0.7909689 -0.16043457 
0.67011267 -0.46737778 -0.57663435 
0.39345336 -0.6766891 -0.6223234 
0.44779402 -0.87233037 -0.19626573 
0.43744293 -0.8960748 -0.07545613 
0.7237032 -0.5504066 -0.41630092 
0.13579784 0.15173942 -0.9790476 
-0.7239099 -0.39448163 -0.5659848 
0.3838646 -0.4062556 -0.8292193 
0.365772 -0.35637465 -0.85977215 
0.35091007 -0.57102877 -0.7421512 
0.08052072 0.19455871 -0.97758037 
0.1599246 0.24088821 -0.95728624 
-0.105419524 -0.56701654 -0.8169326 
0.07907546 -0.7869441 -0.61193633 
-0.21221216 0.05449195 -0.97570324 
-0.1468235 -0.5759668 -0.80417985 
0.15941842 -0.586169 -0.79434985 
0.16795266 -0.5746915 -0.8009505 
0.5397664 0.03550692 -0.8410657 
0.18843885 -0.16654344 -0.96786064 
-0.20912546 -0.72687316 -0.6541575 
-0.10449031 -0.2785225 -0.9547288 
-0.17689057 -0.3188731 -0.9311443 
-0.11178833 -0.36623564 -0.92378294 
-0.19595952 -0.93492544 -0.29582828 
0.01998888 -0.61799806 -0.7859255 
-0.33948785 -0.5148467 -0.7871981 
0.43834496 -0.3914632 -0.8090799 
0.17276642 -0.50666517 -0.84465504 
0.32738766 -0.4352302 -0.8386846 
0.50260645 -0.7918724 -0.34687862 
0.088999465 -0.52519363 -0.8463159 
-0.44138795 -0.4133689 -0.7964313 
0.25570473 -0.58335805 -0.77091414 
-0.11996187 -0.40716892 -0.9054406 
-0.42537594 -0.61939484 -0.65985256 
-0.2864542 -0.88726175 -0.3615394 
0.12732846 -0.3167346 -0.93992907 
0.41762045 -0.80228597 -0.4265332 
-0.53092784 0.15581426 -0.8329692 
-0.4843748 -0.103408 -0.8687277 
0.0897685 0.23986882 -0.9666461 
0.24350719 -0.4331103 -0.8678248 
0.041609284 -0.8075197 -0.58837116 
0.24483745 -0.44595224 -0.8609189 
-0.27944112 -0.6630002 -0.69450945 
-0.28055322 -0.43991774 -0.85308987 
0.17878461 0.07815857 -0.980779 
0.017030768 -0.16995734 -0.98530424 
-0.4704517 -0.57481337 -0.6695258 
-0.54133046 -0.832384 -0.11873631 
0.22238654 -0.9440172 0.24367197 
0.036298603 -0.9694572 -0.24255946 
0.5097406 -0.76988226 -0.38398692 
-0.24182928 -0.09372649 -0.96578157 
-0.29171702 -0.6843791 -0.6682263 
-0.41087678 0.064337224 -0.909418 