# OOMMF: rectangular mesh v1.0
# Segment count: 1
# Begin: Segment
# Begin: Header
# Desc: Time (s) :  6.790000000000015e-07
# Title: m
# meshtype: rectangular
# meshunit: m
# xbase: 2e-09
# ybase: 2e-09
# zbase: 5e-10
# xstepsize: 4e-09
# ystepsize: 4e-09
# zstepsize: 1e-09
# xmin: 0
# ymin: 0
# zmin: 0
# xmax: 1.024e-06
# ymax: 1.024e-06
# zmax: 1e-09
# xnodes: 256
# ynodes: 256
# znodes: 1
# ValueRangeMinMag: 1e-08
# ValueRangeMaxMag: 1
# valueunit: 
# valuemultiplier: 1
# End: Header
# Begin: Data Text
-0.60146296 -0.671903 -0.43219072 
0.0039875763 -0.7667319 -0.6419551 
0.031158496 -0.46543577 -0.8845331 
-0.2671416 -0.51473194 -0.8146696 
-0.23923123 -0.3576644 -0.90268755 
-0.25532362 -0.19060089 -0.94788253 
-0.18989795 -0.064196825 -0.9797028 
-0.79856175 0.5394522 -0.26700285 
-0.69313437 0.30619 -0.65254307 
-0.75905704 -0.31135842 -0.5717417 
-0.3901178 0.057243984 -0.91898376 
-0.38192436 -0.08398292 -0.92036986 
-0.50309926 -0.8309211 0.23761572 
-0.83818287 -0.2565167 -0.48129913 
-0.8087724 -0.091702245 -0.5809285 
0.097604744 0.61920166 -0.7791422 
-0.43575758 0.4152945 -0.79852736 
0.21353643 -0.4972369 -0.84092677 
0.27797505 -0.87312365 -0.40048087 
0.598014 -0.8014233 0.01000343 
-0.1775708 -0.89034903 -0.41922212 
0.7960887 -0.5954708 0.10796907 
0.035198133 -0.99068105 -0.13157618 
-0.40665403 -0.91052693 0.07465528 
0.00019685576 -0.5193053 -0.8545889 
0.12759888 -0.9717725 0.19843568 
-0.1729523 -0.97479796 -0.14091313 
0.012051088 0.10295036 -0.99461347 
-0.1682112 -0.8294681 -0.5326236 
-0.24845038 -0.8284084 -0.50200796 
-0.6505771 -0.5190193 -0.5544082 
-0.051989175 -0.9739481 -0.22073135 
-0.16441901 -0.67144287 -0.72258633 
-0.5072422 -0.84890765 -0.14853041 
-0.14639114 -0.895198 -0.42093977 
0.07370046 -0.61872935 -0.7821395 
0.7346091 -0.5690823 -0.36945212 
-0.12520865 -0.9909892 0.04757471 
-0.40909472 -0.8960341 -0.17252408 
0.01166707 0.71999884 -0.6938772 
0.111705355 0.9225137 -0.36944598 
0.4262457 0.5046933 -0.7507325 
0.14349478 -0.27538535 -0.95056415 
0.17146887 -0.28696865 -0.94246876 
0.29564282 -0.81546855 -0.49760073 
0.056713987 -0.98328596 -0.17300968 
0.5601349 -0.4345312 -0.70528835 
0.40476897 -0.7487561 -0.52490616 
0.44209096 -0.36627004 -0.81878084 
0.27097887 -0.6117586 -0.7431837 
0.28609344 -0.41372862 -0.86427957 
-0.38012436 -0.22082818 -0.8981873 
-0.48588943 -0.24780114 -0.83815646 
-0.2399911 0.14799877 -0.9594273 
0.1850686 0.7410207 -0.64547503 
-0.19203408 0.0867887 -0.9775432 
0.24117123 -0.53563774 -0.80927664 
0.51145834 -0.56184053 -0.6501889 
0.19077805 -0.65663004 -0.7296854 
0.53733957 -0.10664672 -0.8365959 
0.33505118 -0.15468614 -0.9294154 
-0.028985849 -0.79784024 -0.6021717 
0.6975698 -0.7114046 -0.08543985 
0.6279242 -0.6760235 -0.38562083 
0.545232 -0.115922056 -0.8302314 
0.5939779 -0.77831715 -0.2035015 
0.5278614 -0.8318262 -0.17154445 
-0.92217183 0.0992058 -0.37384143 
-0.36819178 -0.87110084 -0.32498932 
-0.7546889 -0.36651033 -0.5441643 
-0.33666337 -0.4012907 -0.8518354 
0.7036632 -0.4268036 -0.5680641 
-0.7563535 -0.6538594 0.019935114 
-0.35140407 -0.07923229 -0.93286526 
-0.20463043 -0.40036395 -0.89321613 
-0.05357138 0.5259668 -0.8488163 
0.4128551 0.3831737 -0.8262739 
0.6391565 0.06751864 -0.7661072 
0.5667158 -0.7325214 -0.37715468 
0.2361359 -0.6061608 -0.7594794 
0.347688 -0.80282366 -0.48434216 
0.09334783 -0.2714796 -0.95790654 
0.16981815 -0.515653 -0.8397998 
-0.17706023 -0.7406403 -0.64815253 
0.004258686 -0.91022646 0.41408908 
0.34500983 -0.6338927 0.6922054 
-0.5337222 -0.8334865 -0.14297166 
-0.27390015 -0.3850559 -0.88131195 
-0.038593203 -0.77337164 -0.63277715 
0.6553319 -0.5431821 -0.5248747 
0.5771074 -0.55296946 -0.60097575 
-0.11909814 -0.7736313 -0.62234277 
0.004705516 -0.9996265 0.026920823 
0.72280353 -0.68888044 -0.054762293 
0.5250304 -0.25786722 0.81107813 
-0.8703087 -0.4681695 -0.15290576 
-0.8063239 -0.5908337 -0.027518112 
-0.46556196 -0.7583535 -0.45623693 
-0.53212386 -0.6882357 -0.4931287 
-0.096095614 -0.49377018 -0.86426663 
0.7239227 -0.21426782 -0.65576315 
0.35468882 -0.820125 -0.44898885 
0.24593982 -0.8971242 -0.36699027 
0.7118385 -0.66518635 -0.22541776 
0.9517082 -0.08782159 -0.294175 
0.9530726 0.1485348 0.26379952 
0.6373843 -0.4822116 -0.60101026 
0.65724474 -0.41381326 -0.6299111 
-0.08461346 -0.8970415 -0.43377087 
-0.081057385 -0.28752202 0.95433795 
-0.25947747 -0.95843226 -0.1186558 
0.29667863 -0.89085156 0.3440426 
0.19732495 -0.7800736 0.5937577 
0.24366273 -0.88277346 -0.4016709 
0.2775573 -0.95243645 0.12580508 
0.42430952 -0.8342135 -0.3522065 
-0.08640071 -0.9720922 -0.21810956 
0.6764131 -0.36949024 0.637136 
-0.1628967 -0.9694403 -0.18344039 
-0.20017143 -0.52985823 -0.8241249 
-0.3408562 -0.5254564 -0.7795594 
-0.47806886 -0.8604635 0.17621794 
-0.3998056 -0.9161418 -0.028976394 
0.2090523 -0.55759764 -0.8033567 
0.021730684 -0.2379319 -0.9710387 
-0.22203961 -0.79932994 -0.5583638 
-0.2069043 -0.68408114 -0.6994453 
-0.55037916 -0.7538854 -0.3588031 
-0.13943675 -0.96428615 0.22518794 
0.2525783 -0.95242846 -0.17054126 
0.34403288 -0.9192989 -0.19113082 
0.01168317 -0.9791913 0.20260297 
-0.6432413 -0.447802 -0.6210588 
0.029651228 -0.34942892 -0.9364937 
0.37171698 -0.16936493 -0.9127662 
0.2901456 -0.157135 -0.94399375 
0.6646249 -0.737077 0.12243892 
0.2051529 -0.21248896 0.9553851 
-0.40197036 -0.91523755 -0.027571028 
-0.49967968 -0.80926085 0.30889663 
-0.4663727 -0.8377573 0.28400612 
-0.571297 -0.81968945 -0.041580565 
-0.05463594 -0.89931643 -0.43387195 
-0.23903537 -0.9449678 -0.22337872 
-0.58696514 -0.30502483 -0.7499546 
-0.82018095 0.33025452 -0.46715656 
0.14966196 -0.5103201 -0.84686166 
-0.1909096 -0.8942095 0.40489846 
0.12811865 -0.99148166 -0.023447996 
-0.4387247 -0.8390785 -0.32166445 
0.18227455 -0.0941158 -0.978733 
0.6606224 -0.6754268 -0.32768407 
-0.11716845 -0.8525464 -0.5093489 
-0.54046744 -0.64632654 -0.53866214 
-0.71506995 -0.07517757 -0.69499886 
-0.61086196 0.19695187 -0.76684916 
-0.6753968 -0.17754397 -0.7157635 
-0.493048 -0.16882129 -0.8534654 
-0.5309043 0.20871136 -0.82132846 
0.5489263 -0.16806471 -0.81880045 
0.7644527 -0.64167416 -0.0621807 
0.8043527 -0.50190353 -0.31797758 
0.65694904 -0.06286364 -0.75130975 
0.3811089 -0.0952882 -0.91960657 
0.24849154 -0.6576274 -0.71118087 
0.2847255 -0.59986913 -0.7477222 
-0.07096506 -0.6786995 -0.7309795 
-0.16129804 -0.9282294 -0.33522123 
-0.28536394 -0.7354887 -0.614511 
-0.34868926 -0.6852221 -0.6394423 
0.11816705 -0.21085013 -0.9703499 
0.16508697 -0.30907825 -0.9365986 
0.4215462 -0.44362703 -0.7908818 
-0.012043762 -0.70029014 -0.7137568 
-0.1202482 -0.9902845 -0.069835335 
0.19419827 -0.9045855 0.37948945 
-0.073655635 -0.90636045 0.41603562 
-0.69195646 -0.63798636 0.33789012 
-0.46163404 -0.8867009 -0.025602166 
-0.25620988 -0.65505856 0.71081275 
0.33408955 -0.92433536 -0.1843598 
0.11603189 -0.98623115 -0.117833234 
-0.336399 -0.92918915 0.15311264 
-0.09390829 -0.99042004 -0.10123951 
0.2850583 -0.66291225 -0.6923072 
0.7120739 -0.49654317 -0.4963826 
0.9128481 -0.4082021 0.008910385 
0.59545475 -0.61792535 0.5134219 
0.18681258 -0.87645304 0.44376922 
0.3618473 -0.9320897 -0.01659551 
0.3689831 -0.52896935 -0.7642271 
0.31183586 -0.48626155 -0.8162771 
-0.18759064 0.36340547 -0.9125493 
0.03676186 0.09440388 -0.9948551 
0.3563229 -0.9030186 0.2399824 
-0.34220144 -0.8998922 0.2703561 
-0.18665203 -0.64155626 0.74402064 
0.6309474 -0.77570766 -0.013527491 
0.38159284 -0.9243182 -0.004788658 
0.37819517 -0.5890616 -0.71412534 
0.08211329 -0.51298165 -0.85446316 
-0.06551377 -0.68334067 -0.7271544 
-0.26251927 -0.95284486 0.15221821 
-0.2141918 -0.9603313 0.17856568 
0.12073751 -0.7906835 0.6002017 
-0.82978106 -0.5089015 0.22909121 
-0.5408243 -0.6175595 0.5710774 
-0.24941427 -0.9401104 -0.23234673 
-0.6686272 -0.23669186 -0.7049218 
-0.06324634 -0.70357144 -0.7078045 
-0.06909299 -0.89314836 -0.44442365 
-0.2751589 -0.84636116 -0.4560267 
-0.7631222 -0.62750417 -0.15454163 
-0.9977236 -0.035622235 0.057259966 
0.31118983 -0.9388301 0.14750923 
-0.35924456 -0.9330788 -0.01752681 
-0.74154246 0.015038764 0.67073745 
-0.7942155 -0.5116436 -0.32778472 
-0.27922043 0.23998606 -0.92975414 
-0.85497344 -0.29541326 -0.42632335 
-0.22057427 -0.8575812 -0.4646519 
-0.59702367 -0.5784955 -0.5557929 
-0.04614799 -0.17434116 -0.98360336 
0.26032624 -0.5501227 -0.79347044 
0.09079473 -0.41283682 -0.90626824 
0.36821568 -0.3023643 -0.87920034 
0.6201485 -0.7762353 0.113467455 
0.5385415 -0.37922478 -0.75243723 
0.7359428 -0.39937824 0.5467041 
0.007429414 -0.9551042 0.29617718 
0.32064 -0.9052883 0.27864513 
0.24900219 -0.94020003 -0.23242624 
-0.18137076 -0.68756646 -0.7031054 
0.52441 -0.2737251 -0.8062685 
-0.31096923 0.37634885 -0.8727312 
-0.23524006 -0.9264498 -0.29385883 
-0.66221774 0.032877713 -0.7485899 
-0.42035025 -0.89397967 -0.15526132 
-0.35586 0.28369698 -0.8904379 
-0.26164442 0.42518517 -0.8664641 
-0.3362258 -0.015224677 -0.9416584 
0.15027076 -0.3279213 -0.93267703 
0.6495808 -0.32251367 -0.6884982 
0.55001694 -0.5673978 -0.6128142 
0.9726286 -0.22531235 -0.05681631 
0.17417398 -0.93663514 -0.30393758 
0.27516228 -0.93797916 -0.21090472 
0.07300316 -0.98409593 -0.16194348 
0.28063372 -0.83425987 -0.47461063 
-0.5070302 -0.16877224 -0.84524345 
0.4565762 -0.13632432 -0.8791779 
0.32174322 -0.76053226 -0.56397873 
0.583471 -0.7024427 -0.4075978 
0.079301916 -0.9253639 0.37069264 
-0.53268296 -0.041821763 -0.8452809 
-0.10153574 -0.5877005 -0.80268216 
-0.755305 -0.4720592 -0.45461467 
-0.3788791 -0.67812485 -0.6297597 
0.11061613 -0.37474796 -0.92050433 
-0.88559735 -0.32608512 -0.33073536 
-0.42820796 -0.1161298 -0.8961874 
-0.09747377 0.5095612 -0.85489553 
-0.5696312 0.4731987 -0.67201436 
-0.41391006 0.020358076 -0.91009015 
-0.7641721 -0.2700082 -0.5857787 
-0.48504162 -0.7909356 -0.37303558 
-0.8740045 -0.29960427 -0.3825618 
-0.38919863 0.32440794 -0.86213917 
-0.22980276 -0.6953538 -0.68093604 
-0.18258567 -0.8477467 -0.49798402 
-0.5615749 -0.43044734 -0.7066462 
-0.67374116 -0.7325802 0.09694926 
-0.33973482 -0.06270738 -0.9384285 
0.42037258 0.00013336065 -0.9073516 
0.2608849 -0.68054247 -0.6846905 
0.35758352 -0.92248636 -0.14544098 
-0.32550183 -0.85265493 0.40869072 
-0.052208964 -0.9938068 -0.09809377 
0.21501756 -0.86459893 -0.45413235 
-0.20688264 -0.9302734 -0.3029704 
0.39054787 -0.47438812 -0.7889412 
0.33413815 -0.8621109 -0.38094148 
0.46241978 -0.72277504 -0.5135798 
-0.16621749 -0.5882649 -0.7914014 
-0.13858864 -0.78618133 -0.60225594 
-0.41023356 -0.9117733 0.019439228 
-0.13272631 -0.639898 -0.75691104 
-0.19715123 -0.862992 -0.4651627 
0.027651727 -0.49213216 -0.87008125 
-0.18215823 -0.6675417 -0.72194636 
0.49449107 -0.50541985 -0.70712763 
0.6350263 -0.6769105 -0.37220147 
0.104258984 -0.6388966 -0.76219505 
0.24441297 -0.69419116 -0.67702365 
-0.45697454 -0.326927 -0.82722014 
-0.1226797 0.8232466 -0.5542696 
0.025821745 0.13477264 -0.9905401 
-0.55882686 0.47094166 -0.6825881 
-0.4997002 -0.21335185 -0.8395122 
0.1455328 -0.64446765 -0.7506541 
0.26110154 -0.23617335 -0.9359744 
-0.4963805 -0.603183 -0.62432104 
-0.08878325 -0.33374283 -0.9384739 
0.03463171 -0.32440504 -0.9452841 
0.4787133 0.100250416 -0.872229 
0.43311006 -0.78672856 -0.43985665 
-0.084385805 -0.36462173 -0.9273242 
0.57378364 0.14338274 -0.80635834 
-0.18685412 -0.31333724 -0.93107754 
-0.17289092 -0.5252655 -0.8331896 
0.36556405 0.5985166 -0.7128401 
-0.4732554 -0.016153963 -0.8807772 
-0.16495839 -0.16363828 -0.97263116 
-0.22135912 -0.50319093 -0.8353437 
0.67726547 -0.6849956 -0.26850075 
0.40895265 -0.42121726 -0.809527 
0.70574486 -0.22063103 -0.67323565 
0.33031118 -0.37189797 -0.8675174 
0.612756 -0.3487879 -0.7091383 
0.12316249 -0.9660496 -0.22711039 
0.7945432 -0.53521335 -0.28678864 
0.1381146 -0.9875507 -0.07528617 
0.29975906 -0.6833257 -0.66574067 
-0.24912058 -0.35490415 -0.9011004 
-0.23285992 -0.7146468 -0.6595879 
-0.6279764 -0.40889338 -0.662157 
-0.4823739 -0.28045174 -0.8298568 
-0.52776766 -0.08050975 -0.84556466 
-0.95564944 0.23733848 -0.17436913 
-0.7312161 0.11576555 -0.672251 
-0.27233022 0.045908064 -0.96110815 
0.5923123 0.37822443 -0.7114158 
0.5151937 0.6379814 -0.57232445 
0.55323714 -0.19616368 -0.80959773 
0.60749066 -0.20683004 -0.76692665 
0.4940038 -0.43105358 -0.7550849 
0.3647099 -0.89287835 -0.2641115 
0.5689896 -0.6978832 -0.43498284 
-0.073698856 -0.5575619 -0.82685745 
-0.020572882 -0.8455852 -0.5334441 
-0.26130053 -0.89109707 -0.37103653 
0.09781255 -0.93358964 0.34473652 
-0.55326337 -0.7085983 -0.43793634 
-0.2017667 -0.721361 -0.6625169 
-0.5469743 -0.3034082 -0.78023237 
0.32491636 -0.80354106 -0.4987498 
0.2883228 -0.66387457 -0.6900294 
0.10654935 -0.82787126 -0.55070543 
0.19875298 -0.9674181 -0.15684262 
0.24194531 -0.96631503 -0.08773643 
-0.1430515 -0.58407515 0.7989947 
-0.74519473 -0.6414542 0.18226716 
-0.72301537 -0.66955787 -0.17012101 
-0.5065736 -0.50242555 -0.70067954 
-0.22709699 -0.8464876 -0.48154512 
0.074124314 -0.8319688 -0.5498487 
0.8443556 -0.14960602 -0.5144723 
0.49761143 -0.62160957 -0.6049665 
0.2640962 -0.7133032 -0.64919317 
0.8251035 -0.0011603539 -0.56498057 
0.84432137 -0.26230735 -0.4672433 
0.39936662 -0.65208656 -0.6444296 
0.26008752 -0.35392812 -0.8983816 
0.2920466 -0.51809114 -0.80392194 
-0.046502035 -0.78502923 -0.6177108 
0.06321946 -0.9619091 -0.26595935 
0.76263845 -0.6115817 -0.21059579 
0.59045523 -0.76820827 -0.2474245 
0.13096254 -0.9752137 0.17834583 
0.1508647 -0.8258873 -0.54327714 
0.2175027 -0.9370641 -0.27313617 
0.7654354 -0.58453816 -0.2691171 
0.6513347 -0.7568334 0.05446512 
0.50204575 -0.7828994 0.36744907 
0.14905104 -0.4949598 -0.8560366 
-0.08960507 -0.30688885 -0.94751793 
-0.484489 0.05342471 -0.87316453 
-0.45273027 -0.7134604 -0.5347986 
-0.27367887 -0.57415175 -0.77165383 
0.19249402 -0.108649 -0.97526485 
0.77450836 -0.59295607 -0.2203182 
-0.052744664 -0.50307584 -0.8626314 
-0.45001894 -0.67457527 -0.5851762 
-0.64211386 -0.48789406 -0.5913114 
0.3895742 -0.83580863 -0.38685384 
-0.26213303 -0.8977234 -0.354089 
-0.22823484 -0.9470471 -0.22585563 
0.48389393 -0.79566956 -0.36435792 
0.06783447 -0.2680115 -0.9610247 
-0.61753416 -0.23249263 -0.75139797 
0.56472313 -0.3636165 -0.74085826 
0.7635478 -0.27580497 -0.5838891 
0.22576253 -0.8360619 -0.5000318 
0.44314697 -0.8507362 0.28261042 
-0.28901708 -0.6586126 -0.69476515 
-0.34048223 -0.7251393 -0.59853566 
-0.561296 -0.82021713 0.1104116 
-0.16993622 -0.9113487 -0.37492034 
-0.08627237 -0.9923632 -0.08816107 
-0.3353546 -0.8889918 -0.31181905 
-0.2720964 -0.38192376 -0.88323146 
-0.48520753 -0.4205579 -0.76661915 
-0.727818 -0.5684828 -0.383547 
-0.3400794 -0.6531493 -0.6765664 
0.18850385 -0.7713918 -0.6078003 
-0.14375289 -0.9861289 0.082975194 
0.0055755246 -0.9873948 0.15817887 
-0.36662403 -0.7525093 -0.5470984 
0.20845534 -0.3195238 -0.92436516 
-0.6144878 0.08518567 -0.78431386 
-0.4006517 -0.5890568 -0.70177656 
-0.6818743 0.2669587 -0.68101436 
-0.7511347 -0.48536775 -0.4474536 
-0.03782877 -0.4215758 -0.9060037 
-0.4915903 0.17793997 -0.8524532 
0.013650662 -0.7787234 -0.62721896 
0.40707195 -0.57573456 -0.70909953 
-0.047339696 -0.48254827 -0.8745891 
-0.24305074 -0.75975084 -0.60307956 
0.53783786 -0.786036 -0.30475882 
0.011954142 -0.28477627 -0.9585195 
0.19660753 -0.33528706 -0.92137295 
0.060147054 -0.55869377 -0.8271903 
0.07349739 -0.81236374 -0.57850087 
-0.08403509 -0.6347713 -0.76811683 
-0.4027139 -0.88002497 -0.2517494 
0.047163077 -0.4403699 -0.89657694 
0.124472186 -0.6574507 -0.7431456 
0.06162224 -0.5227967 -0.85022724 
-0.66107106 -0.72956103 -0.17528772 
-0.18069993 -0.8710085 -0.456828 
0.688239 -0.55917805 -0.4622198 
0.72750217 -0.52327627 -0.44375962 
0.13775463 -0.8548766 -0.5002097 
-0.20061618 -0.70342237 -0.6818726 
-0.6827049 -0.64809525 -0.33747092 
-0.65012944 -0.5020839 -0.5703013 
-0.91548806 -0.39396748 -0.08167728 
-0.8018657 -0.50770414 -0.31503645 
-0.5947912 -0.58390045 -0.55252486 
-0.22335444 -0.807533 -0.5458969 
-0.0012518981 -0.91491663 -0.40364116 
-0.35507977 -0.934564 -0.022550885 
0.16067378 -0.9595862 0.2310373 
0.10805507 -0.95621026 -0.27200407 
0.56527746 -0.34654066 -0.7485793 
0.4729248 -0.4571908 -0.7532058 
0.3467178 -0.21120618 -0.9138812 
0.10583522 0.06234889 -0.9924272 
0.2540847 0.36776716 -0.8945325 
0.3183848 -0.7690045 -0.5543133 
0.35302696 -0.77764064 -0.5202376 
-0.035897907 -0.86996365 0.49180758 
0.6031691 -0.739193 -0.2996344 
0.17940642 -0.62280095 -0.7615329 
0.3078929 -0.7251897 -0.61587495 
0.07795848 -0.9287627 -0.3623842 
0.15522692 -0.7229216 -0.67326736 
-0.19319831 -0.88171446 -0.43041164 
0.27031532 -0.95812076 -0.0945212 
0.26629472 -0.9633289 0.032932796 
0.21130288 -0.7065148 0.67541695 
-0.59738827 -0.5256482 0.6056577 
-0.41479212 -0.89754766 -0.1495185 
-0.5201536 -0.5220119 -0.6759762 
-0.93977016 -0.25131795 -0.23167075 
-0.43173662 -0.8118992 -0.39296737 
-0.7657951 -0.6318902 -0.119468406 
-0.73563105 -0.5550667 -0.3882627 
-0.36204723 -0.8873108 -0.28565952 
-0.59571856 -0.7565724 -0.26966196 
-0.20074074 -0.97145814 0.12638131 
-0.6677642 -0.56152195 0.4886554 
-0.7697386 -0.6382524 -0.01167541 
-0.8826258 -0.39470068 -0.25530994 
-0.73832273 -0.37243897 -0.562289 
0.22389288 -0.78967565 -0.57121307 
-0.1904857 -0.71966094 -0.6676851 
-0.5011611 -0.4633425 -0.73085654 
-0.0062852367 -0.71031016 -0.70386076 
0.31863028 -0.43176454 -0.8438331 
0.75479436 -0.20234746 -0.62397194 
0.74966633 0.08111264 -0.6568266 
0.89050144 -0.39016676 -0.23404509 
0.7842891 -0.5566966 0.27382392 
-0.04552487 -0.90661186 0.41950274 
0.057156753 -0.8213387 0.56757003 
-0.73173976 -0.673031 -0.10763974 
-0.6028399 0.16084261 -0.7814818 
-0.38344076 0.41397583 -0.82558894 
-0.900311 0.35541594 -0.25123638 
-0.6578427 -0.36303285 -0.6598865 
-0.6920858 0.03665978 -0.7208837 
-0.7342454 -0.21322829 -0.6445288 
0.061819285 0.3647546 -0.92904925 
0.056922514 0.04816729 -0.997216 
-0.46695873 0.3654036 -0.80525136 
-0.2173187 -0.1893364 -0.95756173 
0.16842721 -0.23223731 -0.9579656 
0.10056059 -0.32548 -0.9401863 
0.14688735 -0.10531386 -0.98353094 
0.5876848 0.28636345 -0.7567183 
0.15229778 -0.9660401 -0.20873927 
0.5319638 -0.5942012 -0.60327405 
-0.3595783 -0.9080854 -0.21467286 
-0.108322084 -0.9778416 -0.17914277 
0.072562814 -0.52072215 -0.85063696 
0.20030789 -0.1601606 -0.96655333 
0.21537943 -0.3900412 -0.8952539 
-0.3666083 -0.56917757 -0.7359588 
-0.41290337 -0.46357068 -0.7839727 
-0.16053703 -0.656604 -0.7369526 
-0.47249204 -0.14182687 -0.8698486 
-0.76450276 -0.4603389 -0.45124677 
-0.55490667 0.081427775 -0.82791793 
-0.52031064 -0.3240447 -0.7901088 
-0.9584875 0.24627087 -0.14370932 
-0.16257882 0.61921984 -0.76820236 
-0.036425896 0.70937127 -0.7038931 
-0.3432454 0.03218247 -0.93869424 
0.04081992 0.26306927 -0.9639131 
0.0020890506 -0.7831676 -0.62180734 
-0.54127526 -0.79582393 -0.27145073 
-0.71986645 -0.34236604 -0.6038028 
-0.4653952 -0.37324494 -0.80255556 
-0.41512135 -0.63435173 -0.652129 
-0.032287564 -0.7466339 -0.66445124 
-0.5718805 -0.4591583 -0.67979884 
-0.12607655 -0.06765943 -0.98971057 
0.5934978 -0.17877755 -0.78472865 
0.1232675 0.037488233 -0.9916651 
-0.40162495 -0.64266646 -0.6524395 
-0.11496869 -0.96011496 -0.25487575 
0.2871697 -0.9287699 -0.23435062 
0.57497215 -0.56636083 -0.5904596 
-0.107913606 -0.90301037 -0.4158449 
0.48551685 -0.69178385 -0.5345171 
0.44764784 -0.87383914 -0.18978053 
-0.2862767 -0.75339013 -0.5919873 
-0.39823443 -0.73468024 -0.54923064 
-0.14259763 -0.3774864 -0.91497 
-0.3726124 -0.68401605 -0.6271221 
-0.20033012 -0.19094081 -0.960942 
-0.12473007 0.19769122 -0.9722966 
0.4332651 -0.11336872 -0.8941079 
-0.2602468 -0.17859454 -0.9488812 
0.24726547 0.15413113 -0.9566104 
-0.06918254 -0.47196972 -0.8788961 
0.20968184 -0.25831524 -0.9430307 
-0.1672472 0.7248397 -0.66830826 
-0.583655 0.5866835 -0.56138164 
0.04156071 0.041521735 -0.99827284 
-0.30412003 -0.014247137 -0.9525272 
-0.33554012 0.0763298 -0.9389285 
-0.43824875 -0.46965638 -0.76639485 
0.1494211 -0.7151003 -0.68286526 
-0.5587062 -0.68014157 -0.47461018 
-0.008284338 -0.66156924 -0.7498384 
-0.02198205 -0.21842635 -0.97560585 
0.725234 -0.0929308 -0.68220204 
-0.0046855174 -0.9059769 -0.42330143 
0.5661313 -0.27015206 -0.7787896 
0.5829266 0.5264037 -0.61894727 
0.3989636 0.17679349 -0.89976233 
0.52488077 0.580574 -0.622442 
0.013557219 0.7782806 -0.62777036 
-0.64785784 0.24274382 -0.72204965 
-0.11743488 -0.6109884 -0.7828808 
-0.28746873 -0.54518235 -0.7874884 
0.14553922 -0.63584 -0.7579749 
0.23864704 -0.20970623 -0.94819355 
0.22457516 -0.6128829 -0.75758857 
0.42075738 -0.7436819 -0.51951957 
0.40222555 -0.23630588 -0.88451916 
0.34942415 -0.48054418 -0.80435073 
0.07358371 -0.84830254 -0.52437425 
0.18743448 -0.9713279 -0.14625455 
0.10020154 -0.98712456 -0.1246791 
0.5166838 -0.07973635 -0.85245526 
-0.027218318 -0.045386847 -0.99859864 
-0.028611135 -0.4535635 -0.89076465 
0.2762231 -0.39611214 -0.875669 
-0.65035385 -0.54379314 -0.53040445 
-0.25965378 0.29411116 -0.9198253 
-0.3051763 0.6465169 -0.69920194 
-0.546061 0.21059449 -0.81084377 
-0.16752091 -0.31465897 -0.93430537 
0.14308806 -0.1442764 -0.9791375 
0.5448329 0.07505053 -0.8351794 
0.76283014 0.33884758 -0.5507018 
0.38855857 0.12828037 -0.9124508 
0.5756932 -0.6440002 -0.5038266 
-0.020351926 -0.7937301 -0.6079297 
0.17823586 -0.9520832 -0.24853519 
0.5740573 -0.4492636 -0.68455863 
0.3338069 -0.6480835 -0.68451506 
-0.49449804 -0.15019755 -0.85610306 
-0.6232485 -0.31196243 -0.71710587 
-0.5043583 -0.42436978 -0.7520193 
-0.3869683 0.41766205 -0.8220791 
-0.19745845 0.084983945 -0.97662073 
0.15500458 -0.34166545 -0.92695117 
0.15281872 -0.7843225 -0.6012359 
0.62618756 -0.11104762 -0.77172375 
-0.25196078 -0.77609247 -0.5780971 
-0.016154978 -0.81051934 -0.58548915 
0.5587909 -0.48647633 -0.67163503 
-0.6368604 -0.7478223 -0.1875388 
-0.18388674 -0.7410312 -0.6458007 
0.41822663 -0.90233463 -0.10430152 
0.50285345 -0.7027215 -0.50331014 
-0.12232598 -0.77383614 -0.62146115 
0.6073915 -0.5389909 -0.58357906 
0.6793556 -0.32257283 -0.65910757 
0.66296375 -0.58262914 -0.47013032 
0.9157497 -0.35265407 -0.19245137 
0.84219146 -0.20851545 -0.49722734 
0.632072 -0.3396524 -0.6965065 
0.79567266 -0.5223917 -0.3066138 
0.6559956 -0.33234882 -0.6776534 
0.32693952 -0.4898845 -0.8081607 
-0.040864613 -0.73152936 -0.6805842 
0.60710555 -0.47795853 -0.63480586 
0.42285103 -0.8360666 -0.3495564 
0.31010923 -0.9497514 0.042480227 
-0.122989446 -0.991422 -0.044227123 
-0.20757127 -0.96578246 -0.1554943 
0.46213195 -0.86332273 -0.2027511 
0.679169 -0.6915701 -0.2458869 
0.1117075 -0.9929597 0.039403275 
-0.28807262 0.17922959 -0.94068646 
-0.35665613 0.04122949 -0.9333255 
-0.5358521 0.27692524 -0.79760575 
-0.35056803 -0.5635776 -0.74798554 
-0.8249429 0.43355086 -0.36263347 
-0.6208878 -0.08360707 -0.7794282 
-0.64170593 -0.4505455 -0.62066275 
0.041196644 0.2966103 -0.95410967 
0.34093472 -0.7709045 -0.53802395 
-0.3391144 -0.46935272 -0.81529725 
-0.647652 -0.5159107 -0.56069875 
-0.031005135 -0.4102053 -0.911466 
0.29838434 -0.26307386 -0.9174742 
0.5996597 -0.45185992 -0.6604779 
-0.035680905 -0.87025154 -0.49131376 
-0.14952743 -0.9854229 -0.08113743 
0.24593815 -0.9357252 -0.2528495 
-0.002584132 -0.6970402 -0.7170275 
0.38659003 -0.8977552 -0.21114887 
0.62680644 -0.646722 -0.4345852 
0.38244092 -0.64486533 -0.6617308 
-0.47690514 -0.8226942 -0.30941218 
-0.7210966 -0.6799027 -0.13323714 
-0.9814516 0.106229626 0.15958765 
-0.58176947 -0.7475533 -0.32048166 
0.36942935 -0.9212454 -0.12177492 
-0.40778342 -0.76701 -0.4953873 
-0.9088992 -0.05045081 -0.41395304 
-0.30757588 -0.59701717 -0.74092346 
-0.182595 -0.6940242 -0.6964119 
0.18839556 -0.011190759 -0.98202956 
-0.2726548 -0.6283353 -0.72859746 
-0.23611291 -0.78877646 -0.5675231 
-0.95115626 -0.29681453 -0.08487049 
-0.3723223 0.106202096 -0.9220072 
-0.89937556 0.14726092 -0.41162834 
-0.72147375 0.50268847 -0.47621417 
-0.46044078 -0.55614424 -0.69188005 
-0.6000283 -0.37271896 -0.7078465 
-0.14076737 0.12200037 -0.98249716 
-0.0290887 0.0040620714 -0.99956864 
-0.36087742 -0.41461444 -0.83538157 
0.047127523 -0.93970543 -0.3387221 
-0.24481945 -0.6205269 -0.7449899 
0.258404 -0.6935057 -0.6725156 
0.3129225 -0.39092925 -0.8655946 
-0.34519893 -0.5993397 -0.7222394 
-0.23992948 0.011251173 -0.9707251 
-0.28776214 0.2940301 -0.911449 
-0.05918243 -0.40465724 -0.9125514 
-0.18936305 -0.4096238 -0.8923845 
-0.52297926 -0.04752972 -0.8510192 
-0.45481154 -0.036182057 -0.8898524 
-0.12284966 -0.79642165 -0.5921323 
-0.30818772 -0.62690485 -0.7155493 
0.43232894 -0.87540483 -0.21623608 
0.21247058 -0.9660926 -0.146702 
-0.45279956 -0.74165577 -0.49489322 
0.29033855 -0.22354175 -0.9304476 
0.4563725 -0.5586911 -0.69252324 
0.24456532 -0.43952927 -0.8642927 
-0.14953297 -0.6160857 -0.77335536 
-0.32402137 -0.1158776 -0.9389263 
-0.43980575 -0.12112959 -0.88988686 
-0.10261538 -0.36687025 -0.9245952 
-0.045573186 -0.8280674 -0.5587733 
0.08093075 -0.9013366 -0.4254911 
-0.35670888 -0.92849565 -0.10322099 
-0.019501977 -0.94849455 -0.31619254 
0.26505986 -0.9156278 -0.30227318 
0.058341354 -0.43145448 -0.9002463 
-0.47421786 0.11604887 -0.87272567 
-0.1065264 -0.82250166 -0.5586979 
0.2983263 0.029164106 -0.95401835 
-0.117186286 -0.3773141 -0.91864115 
-0.28797475 -0.06916666 -0.955137 
0.6541989 -0.75531024 0.039118595 
0.46670765 -0.72713345 -0.5034491 
0.49189764 -0.85365623 -0.17119564 
0.14363801 -0.826453 -0.54437464 
-0.33458787 -0.46627948 -0.8189227 
0.23539752 -0.61575806 -0.7519509 
0.22813813 -0.22721958 -0.946744 
0.13674621 -0.4855529 -0.86344606 
0.5156998 -0.45513496 -0.7258829 
0.5892266 -0.42269057 -0.6885817 
-0.10358363 -0.9168892 -0.3854667 
0.15903972 -0.97014326 0.1831078 
-0.8089471 -0.5725583 -0.13334772 
-0.5071464 -0.7993238 0.32231036 
-0.4828149 -0.6073436 -0.6308911 
-0.81737214 -0.41043738 0.4042819 
-0.35469794 -0.7829234 0.5110972 
-0.55975187 -0.75892967 -0.3327215 
-0.322449 -0.60019255 -0.73198056 
0.036564685 -0.9620271 -0.2704937 
-0.12058864 -0.9328297 -0.3395398 
-0.6508945 -0.7261221 0.221547 
-0.23459278 -0.9449726 -0.22802025 
-0.41195285 -0.8235762 -0.3898937 
-0.64278096 -0.5521 -0.5310539 
-0.3944987 -0.6982818 -0.597305 
-0.77417713 0.1519865 -0.6144509 
0.0023099827 -0.48638424 -0.873742 
-0.3674614 -0.86191374 -0.3493949 
-0.2208868 -0.4491124 -0.86574084 
-0.30362174 0.06454442 -0.950604 
-0.2981627 0.3879604 -0.87211573 
0.400121 -0.2267749 -0.887962 
0.54402804 -0.42886686 -0.72118425 
0.72251123 -0.4696027 -0.5073962 
0.53491473 -0.8084371 0.24555208 
-0.49334425 -0.86507815 -0.09083658 
-0.25234503 -0.88090354 -0.40041354 
-0.2361315 -0.37876746 -0.89486146 
-0.63276106 0.14842103 -0.75998986 
-0.57411915 0.5868994 -0.5709084 
-0.79617596 -0.37531972 -0.4745935 
-0.6012686 0.24537987 -0.7604373 
-0.3706596 -0.03808045 -0.9279879 
-0.4886202 -0.38761404 -0.7816686 
-0.76639384 -0.041534234 -0.6410268 
-0.6737831 -0.65996414 -0.33236086 
0.224379 -0.4633401 -0.857304 
0.30973247 -0.19317766 -0.9309932 
0.47279868 -0.34121636 -0.81242406 
0.7926504 -0.5519855 -0.25887704 
0.91626525 -0.25967702 -0.30500165 
0.66570127 -0.48005652 -0.5713035 
0.7191403 -0.52983874 -0.4495646 
-0.2640674 -0.6863136 -0.67767406 
-0.05731686 -0.7565864 -0.651377 
0.35390088 -0.24473755 -0.90269476 
-0.122663066 -0.18864655 -0.97435427 
0.33079168 -0.03564102 -0.94303054 
-0.20121117 -0.5776896 -0.79106814 
0.22410294 -0.3595494 -0.9058158 
0.3972411 0.31089714 -0.8634481 
-0.7327703 -0.23858199 -0.63728046 
-0.69428855 -0.2100712 -0.68835574 
-0.9820401 0.014491644 -0.18811496 
-0.89108586 -0.40687236 -0.20104936 
-0.5519805 -0.17647205 -0.8149695 
-0.5321332 -0.0013771807 -0.8466595 
-0.42645606 0.13411273 -0.8945105 
0.22457626 0.29277956 -0.9294329 
-0.30095556 -0.045500208 -0.95255214 
0.006552558 -0.7057188 -0.7084618 
-0.5829415 -0.77586 -0.24128927 
-0.5426795 0.21199797 -0.81274587 
-0.13018262 -0.43837208 -0.8893158 
-0.18956782 -0.09728108 -0.9770366 
-0.46990356 0.11651446 -0.8749944 
-0.33831397 -0.7927155 -0.50709563 
-0.09855878 -0.4854877 -0.86867017 
0.7259462 -0.25750035 -0.637727 
-0.080656186 0.29449052 -0.9522447 
-0.405394 -0.5574035 -0.7245393 
0.0061057475 -0.29449758 -0.95563275 
0.25203496 -0.48991093 -0.83454514 
-0.07952144 -0.26353145 -0.96136755 
-0.7076789 -0.47324437 -0.52462405 
0.23032752 -0.1822137 -0.9559014 
0.66272116 -0.5642826 -0.49232706 
-0.24874498 -0.4531442 -0.85602945 
0.34687698 -0.42396492 -0.8366183 
0.33946413 0.18648982 -0.9219467 
0.11428826 -0.23145506 -0.96610916 
0.34165764 -0.15933892 -0.92621875 
-0.11660274 0.6587977 -0.7432291 
-0.4711044 0.769391 -0.4313908 
-0.738237 -0.29560634 -0.6063192 
-0.038487263 -0.44706598 -0.8936727 
-0.3360157 -0.20802563 -0.9185961 
0.23913229 -0.55670536 -0.79554695 
0.55522746 -0.16150677 -0.81586653 
0.75662464 0.46277186 -0.46191058 
0.27975586 0.26168844 -0.9237185 
0.26157862 -0.067503 -0.96281874 
0.12109907 -0.26569405 -0.9564213 
-0.36159495 -0.6891419 -0.627959 
-0.052248925 -0.74762964 -0.6620574 
-0.62016755 -0.5098606 -0.5961833 
-0.35787848 -0.5720929 -0.7379924 
0.042873885 -0.24371034 -0.9689 
-0.5047521 -0.41807833 -0.75527203 
0.04918778 -0.80141234 -0.5960864 
-0.12008838 -0.6692729 -0.73324805 
0.0924005 -0.27675188 -0.9564887 
-0.51876414 -0.612775 -0.59614646 
-0.72840357 -0.070108354 -0.68155205 
-0.2608675 0.19017923 -0.9464566 
0.30810925 0.45809516 -0.83379716 
0.13821986 -0.195888 -0.9708364 
0.62683547 -0.62750214 -0.46186405 
0.00312252 -0.9495775 -0.313517 
0.6624023 0.06404838 -0.7464055 
0.23800285 0.040943578 -0.9704011 
0.6201898 -0.2251702 -0.7514407 
0.44827026 -0.26192656 -0.85466266 
0.66526854 -0.47613645 -0.5750756 
0.1296312 -0.51874095 -0.8450465 
0.021688577 -0.32486242 -0.9455126 
0.21725743 -0.5082761 -0.83333945 
0.35424992 -0.10970502 -0.92869365 
0.81752735 0.37673253 -0.43557078 
0.32177848 -0.44306108 -0.8367531 
0.46302894 -0.48717618 -0.7404483 
-0.531168 -0.15136471 -0.8336362 