# OOMMF: rectangular mesh v1.0
# Segment count: 1
# Begin: Segment
# Begin: Header
# Desc: Time (s) :  6.880000000000015e-07
# Title: m
# meshtype: rectangular
# meshunit: m
# xbase: 2e-09
# ybase: 2e-09
# zbase: 5e-10
# xstepsize: 4e-09
# ystepsize: 4e-09
# zstepsize: 1e-09
# xmin: 0
# ymin: 0
# zmin: 0
# xmax: 1.024e-06
# ymax: 1.024e-06
# zmax: 1e-09
# xnodes: 256
# ynodes: 256
# znodes: 1
# ValueRangeMinMag: 1e-08
# ValueRangeMaxMag: 1
# valueunit: 
# valuemultiplier: 1
# End: Header
# Begin: Data Text
-0.997309 -0.07103796 -0.018121466 
-0.8518178 -0.2972403 0.43134075 
-0.98358905 -0.16018508 0.0830269 
-0.3170503 -0.94833624 0.011726516 
-0.2822468 -0.66508406 -0.6913754 
0.5111774 -0.25741065 -0.8200228 
0.6996042 -0.48534083 0.52440274 
0.84755886 -0.24099599 0.47282672 
-0.14933433 -0.98213774 0.11447664 
0.69461685 -0.69936633 0.16850567 
-0.13753976 -0.90405726 0.4046768 
-0.43072304 -0.569142 -0.70039636 
-0.30221927 -0.6042918 -0.7372212 
-0.81096417 -0.5566463 -0.18022795 
0.16396746 -0.7735944 -0.61209995 
0.2640532 -0.4493353 -0.85344815 
-0.074615106 -0.11084496 -0.99103284 
-0.41313925 0.17948711 -0.8928048 
0.77284825 0.27021968 -0.57418376 
0.5242595 0.39027783 -0.7568587 
-0.105669215 -0.19138709 -0.97580993 
0.4915445 -0.70495695 -0.51129234 
-0.110477865 -0.9768964 -0.18294324 
0.066973045 -0.9784737 -0.19520195 
0.18994184 -0.8712923 -0.45251736 
0.06768407 -0.6921442 -0.71857864 
-0.07514429 -0.29536456 -0.95242494 
-0.13576782 -0.41131032 -0.9013274 
0.3049621 -0.72752774 -0.61457425 
0.34823203 -0.8238676 -0.44718736 
-0.21307415 -0.7871216 -0.57882565 
0.18104082 -0.7970697 -0.5761112 
0.19773191 -0.64375895 -0.7392405 
-0.008821375 -0.9740111 -0.2263283 
-0.35084903 -0.91038805 0.2193138 
-0.47388908 -0.34686112 -0.8093928 
-0.37062353 -0.3966873 -0.8398079 
0.6270379 -0.392601 -0.672821 
0.78433824 -0.48516577 -0.38655868 
0.3806131 -0.6066909 -0.6978967 
-0.01711639 -0.13007145 -0.99135697 
0.4417175 -0.56471854 -0.6971217 
0.48245743 -0.3234256 -0.81402135 
0.45436403 -0.78514 -0.42084274 
0.11688143 -0.9931167 0.0076190885 
-0.3785631 -0.8121753 0.44391593 
-0.59825474 0.08078155 0.7972238 
-0.2397421 -0.61262685 0.7531349 
-0.046014376 -0.93559796 0.3500559 
-0.06930084 -0.9725732 -0.22203311 
0.31881544 -0.7978155 -0.5117101 
0.7157309 -0.6982593 -0.0127813425 
0.47200397 -0.7827364 0.40563047 
-0.12630555 -0.9748452 -0.18364048 
-0.8226462 -0.53709555 -0.18649843 
-0.21542431 -0.9614091 0.17112868 
-0.8006501 -0.5977299 -0.040968906 
-0.7377539 -0.6749433 -0.013068379 
0.18532942 -0.55933845 -0.80795646 
0.37668607 -0.6338667 -0.6755151 
0.94712037 -0.2552951 -0.19438992 
0.44648674 -0.8901752 -0.09076238 
0.3119431 -0.89548945 0.31747478 
-0.66890055 -0.61922693 -0.41125426 
-0.5094536 -0.8033281 -0.30841723 
0.07347037 -0.9866199 -0.14554524 
-0.46607637 -0.8226364 0.32564107 
-0.628742 -0.75076985 0.20255423 
-0.83800215 -0.3808178 0.39080706 
-0.7573322 -0.17732672 0.6284927 
-0.5955328 -0.7814522 0.18620753 
-0.71206814 -0.6753106 0.19213155 
-0.3168784 -0.94772464 -0.03749998 
-0.29206884 -0.94308704 -0.15900521 
-0.27533942 -0.95521975 -0.108367555 
-0.35345984 -0.93338877 0.062061995 
-0.8470929 -0.52840173 0.05679238 
-0.3338878 -0.91922754 -0.20866174 
-0.18025294 -0.883663 -0.43202847 
0.34994137 -0.23825987 -0.90596545 
0.1394137 -0.50059265 -0.8543834 
-0.6566514 -0.7246998 -0.20885237 
-0.5127023 -0.85525167 -0.075372964 
-0.16316514 -0.8344063 -0.5264441 
-0.049984086 -0.15031709 -0.98737353 
0.3943488 -0.88477063 -0.24833459 
0.51515704 -0.84933764 -0.11506084 
0.3762911 -0.65443283 -0.6558375 
-0.21680935 0.22201122 -0.95063394 
0.030921975 0.08262619 -0.9961008 
-0.21251124 0.20478372 -0.9554594 
0.035442 -0.70021534 -0.71305144 
-0.0373038 -0.9553982 -0.29295507 
0.09664188 -0.9857264 -0.13785495 
-0.19855055 -0.8295565 -0.5219327 
-0.6703726 -0.6808014 0.2951441 
-0.5163557 -0.6095086 -0.6015614 
-0.33175188 -0.8085963 -0.4859144 
-0.76241475 -0.63428426 0.1280915 
-0.1937373 -0.52567434 -0.8283311 
0.2604224 -0.6210065 -0.7392775 
-0.07707382 -0.9635767 -0.25608554 
0.6043791 -0.7919231 0.08708406 
-0.037009798 -0.8638102 -0.5024563 
0.10050705 -0.80932236 -0.5787018 
-0.9015061 -0.42998162 -0.0490169 
-0.34308752 -0.8740498 -0.34398854 
0.041780673 -0.36108774 -0.9315955 
-0.17310885 -0.13503401 -0.975602 
0.21126722 -0.7819392 -0.58646184 
0.06905164 -0.8466016 -0.52772874 
-0.26405212 -0.8888122 -0.37455216 
-0.6699504 -0.63884825 -0.3782055 
-0.78870946 -0.059775434 -0.61185336 
-0.61216855 -0.6360375 -0.4697936 
0.21799053 -0.6985773 -0.68152034 
-0.27648407 -0.81591207 -0.5077836 
-0.50027233 -0.7508619 -0.43120095 
0.11232015 -0.8432903 -0.5255908 
0.4369915 -0.79012865 -0.4298083 
-0.33758682 -0.63016385 -0.6992344 
-0.49245375 -0.8555826 -0.15958631 
-0.63041645 -0.69963545 -0.33628178 
-0.77842456 -0.61491007 -0.12625706 
-0.115151964 -0.7932076 -0.5979647 
0.2677125 -0.79204524 -0.54862964 
-0.23450941 -0.82960963 -0.5067082 
0.27649337 -0.39690855 -0.8752229 
-0.36200553 -0.5746159 -0.73400867 
-0.27470016 -0.659407 -0.69980156 
-0.25307244 -0.36414662 -0.8962988 
0.10557776 -0.9675158 -0.22970945 
-0.07574566 -0.99712473 0.0022179687 
-0.37880367 -0.92494684 0.031324793 
-0.597243 -0.60314524 -0.5286934 
0.26634187 -0.59598535 -0.75753784 
0.3563691 -0.51675737 -0.7784363 
0.8190071 -0.35162812 -0.45341495 
-0.15532857 -0.87953043 0.44977692 
0.097939625 -0.9948452 -0.026285054 
-0.22097546 -0.8713426 -0.4381005 
-0.08608745 -0.8753619 -0.47574192 
-0.35683852 -0.81449103 -0.4574611 
0.48877954 -0.43392438 0.7568383 
0.012846389 -0.37115252 0.9284831 
-0.54582775 -0.828769 0.123345554 
-0.9297779 -0.34223184 0.13561185 
-0.3305981 -0.94277143 -0.043439414 
0.50968504 -0.8477785 -0.1466047 
0.8723496 -0.24358247 -0.42387962 
0.1487501 -0.7727877 -0.61698663 
0.44815904 -0.74010724 -0.5013929 
0.2948969 -0.9246416 0.2409848 
0.7566026 -0.535479 0.37525284 
-0.122281 -0.72290856 -0.68003726 
0.03975504 -0.85777897 -0.512479 
-0.29443246 -0.95199686 -0.08373541 
-0.019483196 -0.28358513 -0.9587491 
-0.37439132 -0.7028528 -0.60483813 
-0.3237303 0.13426137 -0.93657494 
-0.3903077 -0.18667433 -0.90156126 
-0.4707589 -0.14375798 -0.87047106 
0.093591124 0.024313577 -0.9953139 
0.039538786 0.15271907 -0.98747844 
-0.8386418 -0.21463476 -0.50061166 
0.41708654 -0.16773316 -0.893255 
-0.09984246 0.10415393 -0.98953706 
-0.10323208 -0.28972265 -0.9515272 
0.7700935 0.10887192 -0.6285722 
0.50445396 -0.7630865 -0.4040115 
0.5448252 -0.69141865 -0.47445306 
-0.17022851 -0.9738843 0.15023878 
-0.05270277 -0.89283955 0.44728068 
0.102092676 -0.77299947 0.62613827 
0.6622137 -0.7246423 0.19070053 
0.05173403 -0.78321046 0.61960065 
-0.43222117 -0.28947347 -0.85404336 
0.29791424 -0.5671752 -0.76782775 
-0.22195777 -0.973238 0.059520815 
0.519249 -0.85085225 -0.08019305 
0.20736527 -0.97176874 -0.11254019 
0.3098801 -0.6876694 -0.65657073 
0.31332248 -0.67338705 -0.66961104 
0.38506374 -0.9105716 -0.15028429 
0.4345734 -0.7364531 0.51844275 
0.05691371 0.37861422 0.92380315 
-0.41554183 -0.8563948 0.30645218 
-0.817429 -0.4640306 -0.34129983 
-0.54168457 -0.8403101 0.021375446 
-0.0460077 -0.78035337 -0.6236441 
-0.2564204 -0.67422354 -0.69258296 
0.32438877 -0.81284344 -0.4837949 
-0.24298874 -0.90029144 -0.3611535 
-0.3700412 -0.7235903 -0.5826549 
-0.09291057 -0.87808543 -0.46939713 
-0.27733123 -0.81655717 -0.5062823 
0.11486425 -0.83901155 -0.5318514 
0.6512554 -0.39447936 -0.6482688 
0.19133583 0.10038191 -0.976378 
0.24952182 -0.35440236 -0.90118694 
0.14609762 -0.8303248 -0.5377882 
0.1218224 -0.9570642 -0.26303488 
-0.3053599 -0.9408079 -0.1470916 
-0.056212623 -0.79633254 -0.60224134 
-0.4317437 -0.50819 -0.7452116 
-0.5268617 -0.29943332 -0.79545987 
0.5338817 -0.77991647 -0.3266505 
-0.24993546 -0.68763024 -0.6816869 
-0.7431698 -0.53847957 -0.39716315 
-0.51860535 -0.83824766 0.1684916 
-0.006102565 -0.94161147 -0.33664635 
0.06122347 -0.82265645 0.5652328 
-0.4423299 -0.89060336 -0.105687335 
-0.5403016 -0.83682495 0.088307425 
-0.7841455 -0.62055045 0.0057588536 
-0.07046224 -0.7536099 -0.6535344 
-0.696599 0.07284685 -0.71375287 
-0.37182218 -0.4089242 -0.8333842 
0.23566 -0.32316667 -0.91653025 
0.82566917 -0.51971287 -0.21947467 
0.55940497 -0.7703468 -0.3059933 
-0.2793849 -0.95332146 0.11455247 
-0.43029767 -0.9007805 0.05863945 
-0.72908854 -0.6784238 -0.09039376 
-0.87202823 0.4892225 -0.015111161 
-0.5945643 -0.20410445 0.77771115 
-0.41455606 -0.8972903 0.1517023 
-0.6264045 -0.68974006 0.36314744 
-0.83146423 -0.55336255 -0.049571365 
-0.3116448 -0.8656815 -0.3917565 
-0.6826599 -0.72116053 0.11791085 
-0.45219496 -0.17984053 -0.87360007 
0.87230515 -0.1942114 -0.4487381 
0.49475688 -0.15096113 -0.8558192 
0.7362207 -0.2590137 -0.6252127 
0.52452004 0.25015083 -0.81382024 
0.44790232 0.45634443 -0.76885194 
0.8063532 0.2645144 -0.52898645 
0.34113243 0.87392324 -0.34624705 
0.56523055 0.069485426 -0.82200134 
-0.4297708 0.045558643 -0.901788 
0.26892012 -0.59016144 -0.7611777 
0.55334103 -0.13293873 -0.8222779 
0.47449255 -0.378681 -0.7946431 
0.3471922 -0.700223 -0.62381524 
-0.3588695 0.026314609 -0.9330168 
-0.53727174 -0.42049536 -0.7311107 
-0.6028917 -0.5776731 -0.5502868 
-0.57834536 -0.39041367 -0.7163058 
-0.79902667 0.111787856 -0.5908129 
-0.3222703 -0.18111467 -0.92916054 
-0.4285786 -0.74499524 -0.51117766 
-0.48515058 -0.86700875 -0.11368732 
-0.35262972 -0.5149489 -0.78133225 
0.41341516 -0.2761167 -0.8676678 
0.43934688 -0.45725027 -0.77323776 
-0.97170264 -0.091163695 -0.21790656 
-0.8533417 -0.15140997 -0.4988817 
-0.79269886 0.19330885 -0.5781524 
-0.22264448 -0.6370675 -0.7379529 
0.47751155 -0.61271554 -0.629732 
0.90282005 -0.27278724 0.33242002 
0.092126295 -0.9690145 0.22918008 
0.5859595 -0.6737539 -0.45023024 
0.54696107 -0.7995834 -0.24799249 
0.5596211 -0.51236814 -0.6513856 
0.6162465 -0.7509769 0.2372215 
-0.33214748 -0.94175726 -0.05264471 
-0.28474587 -0.80830103 -0.5153341 
-0.94123715 -0.30763972 -0.13939379 
-0.23995072 -0.7762653 -0.58295447 
-0.4671897 -0.5841367 -0.66371536 
-0.33389807 -0.30156216 -0.89306915 
-0.32229075 0.06273918 -0.9445595 
0.67255694 -0.044488415 -0.73870695 
0.14853053 -0.03118655 -0.98841596 
-0.33678046 0.29608333 -0.89381975 
0.32300463 -0.8006023 -0.50468224 
0.26674286 -0.8691977 -0.41634557 
-0.30403298 -0.87953216 -0.36604267 
0.06309671 -0.7104967 -0.7008661 
-0.16446015 -0.64092726 -0.7497767 
-0.17428777 -0.5943322 -0.785107 
-0.5019934 -0.6753732 -0.5402533 
0.50267756 -0.3409115 -0.7944147 
-0.020712685 -0.35667852 -0.9339976 
-0.043198645 -0.5984255 -0.800013 
-0.2974655 -0.34894457 -0.88867986 
0.11797277 -0.33386484 -0.93520945 
-0.16511421 -0.78425175 -0.5980691 
-0.5957364 -0.61800396 -0.5130004 
-0.3097261 -0.28450987 -0.9072618 
0.015686583 -0.4325464 -0.9014752 
0.72595435 0.092110686 -0.68154675 
0.59453 -0.756811 -0.27160862 
0.22426207 -0.7616471 -0.6079476 
0.09453811 -0.58822596 -0.8031518 
0.45422685 -0.41355556 -0.7890816 
0.31212866 0.2141959 -0.9255786 
0.60711485 -0.6252649 -0.4903626 
0.7458656 -0.6448482 -0.1668991 
0.31861615 -0.911997 0.25835118 
-0.41927627 -0.43100253 0.7990272 
-0.2793119 -0.9595498 0.03534234 
-0.49508888 -0.79600483 -0.34822887 
0.02201172 -0.9629065 -0.268936 
0.03812201 -0.75018775 -0.66012514 
0.088453814 -0.45579383 -0.88567936 
0.10873525 -0.64738375 -0.75436795 
-0.05085675 -0.7619197 -0.6456718 
-0.028303139 -0.6803242 -0.73236465 
0.019997215 -0.7075688 -0.70636153 
0.25278568 -0.60900885 -0.751803 
-0.6515802 -0.66910625 -0.35740757 
-0.78716993 -0.31913194 -0.5277484 
-0.2221388 -0.46942988 -0.85457003 
0.21158104 -0.04492761 -0.9763273 
0.37118515 -0.6218138 -0.68961537 
-0.20077114 -0.97953707 0.014079824 
-0.54939574 -0.6350666 -0.5430052 
-0.4363234 -0.19479342 -0.8784517 
-0.4611563 -0.81987524 -0.33932206 
-0.37218365 -0.90566033 -0.2031224 
0.20258005 -0.7839566 -0.5868333 
0.035169985 -0.5352452 -0.8439644 
-0.5438713 -0.809608 -0.22076909 
-0.528877 -0.84434915 -0.085812174 
-0.4813994 -0.7519963 -0.45028463 
-0.12739551 -0.5536408 -0.8229535 
0.6486836 -0.62384474 -0.43592134 
-0.41680238 -0.4672402 -0.7797195 
-0.58824885 -0.6826329 -0.43356165 
-0.22609751 -0.88706195 -0.40249348 
-0.0844339 -0.7802284 -0.6197698 
0.110950954 -0.4986648 -0.8596646 
0.05131359 -0.56974083 -0.8202208 
0.5093778 -0.7531716 -0.41625342 
-0.523018 -0.38930103 -0.75821954 
-0.161443 -0.6875767 -0.7079368 
0.014166934 -0.5910051 -0.80654347 
0.65277255 0.055284567 -0.75553405 
0.02814692 -0.9241724 -0.38093737 
0.13182111 -0.8632089 -0.4873332 
0.033539344 -0.74151415 -0.67009854 
-0.62512594 0.14415543 -0.76709646 
-0.61234957 0.32697043 -0.71980447 
-0.112784825 0.5254034 -0.84334517 
-0.035218053 -0.52504545 -0.8503452 
-0.22020715 -0.65454257 -0.72324467 
-0.13773331 -0.7270448 -0.6726332 
-0.062787555 0.19338721 -0.97911143 
-0.3619644 -0.93219197 0.00023144626 
-0.47217613 -0.8540258 -0.21838023 
0.05008691 -0.96582854 -0.25429618 
-0.6222817 -0.39053738 -0.6784144 
0.027392162 0.35232458 -0.93547696 
0.27689666 -0.087318465 -0.95692414 
0.3072609 -0.12388553 -0.9435269 
0.24013333 -0.6325053 -0.73639196 
0.28963265 -0.9407415 -0.17640454 
-0.85511625 -0.48856422 -0.17343955 
-0.800676 -0.5845202 0.1313549 
-0.25372717 -0.87993336 -0.4016714 
0.02777433 -0.6724775 -0.73959637 
0.026094094 -0.2640586 -0.9641536 
0.57147276 -0.10320761 -0.8141052 
-0.24388494 -0.22178009 -0.94410473 
-0.9354433 -0.3435431 -0.08321098 
-0.7996302 -0.56109864 -0.21391556 
-0.79269725 -0.5383381 -0.28604755 
-0.22284698 -0.3283321 -0.91789836 
-0.0134203425 -0.41664037 -0.90897244 
-0.085923165 -0.87497824 -0.4764769 
-0.5797977 -0.59976375 -0.5514691 
-0.4755968 -0.548525 -0.6876977 
-0.22836551 -0.7907516 -0.56794477 
0.30991995 0.0053262147 -0.9507478 
0.44933134 -0.8543096 -0.26125938 
-0.6451064 -0.76375735 0.022640763 
-0.53517115 -0.5418657 -0.6480536 
0.6683778 -0.5018926 -0.5489763 
0.38065416 -0.7045114 -0.59897095 
-0.1062369 -0.51745296 -0.8490915 
-0.05720748 -0.17840706 -0.9822924 
-0.22222224 -0.342718 -0.9127769 
0.10753347 -0.44881424 -0.8871316 
0.07044889 0.19317177 -0.97863257 
-0.1966265 -0.35297453 -0.9147388 
-0.36756453 -0.10338588 -0.92423356 
-0.14589989 -0.55406195 -0.8195905 
-0.10434128 -0.5683838 -0.8161206 
-0.042523343 -0.9303383 -0.3642286 
-0.17568259 -0.11904753 -0.97722226 
0.64564013 -0.7599706 -0.07479031 
0.31850624 -0.76201826 -0.5638103 
0.29251358 -0.9004568 -0.3218902 
-0.2531395 -0.4991503 -0.82871556 
0.3540397 -0.41830176 -0.8364685 
0.31398696 -0.9040753 -0.28993112 
0.5503957 -0.8142556 0.18453325 
-0.06639102 -0.8197562 0.56885153 
-0.34883875 -0.53982747 -0.76609254 
-0.29659954 -0.8602223 -0.41478473 
0.020859772 -0.83445334 -0.5506837 
0.3356973 -0.6626264 -0.66950256 
-0.0066740257 -0.15334603 -0.9881501 
0.59756565 -0.33932158 -0.72648215 
0.84800345 -0.39643493 -0.3517524 
0.3325174 -0.8766959 0.3476157 
0.19729547 -0.9801236 0.020794678 
-0.81500304 -0.51998913 -0.25569797 
-0.91282207 -0.31460148 -0.2603494 
-0.5085331 -0.22439021 -0.83129007 
-0.3950288 -0.12451555 -0.91019136 
-0.3195889 -0.54198253 -0.7772503 
-0.22919598 0.77265453 -0.5920087 
-0.49234954 0.54162896 -0.68134433 
0.3574552 0.19634992 -0.9130567 
-0.0012885794 -0.342789 -0.93941164 
0.28064704 0.14956385 -0.9480865 
0.08097275 0.3549963 -0.93135446 
0.22031218 -0.06061793 -0.97354406 
-0.030918345 0.40454677 -0.91399455 
-0.07492689 -0.10885606 -0.9912298 
0.42590347 -0.29573336 -0.85507196 
0.32871318 -0.7724012 -0.54345566 
0.8776439 -0.4648845 -0.116721116 
-0.5924292 -0.7158071 -0.36965922 
-0.2547426 -0.87650716 -0.4084624 
-0.16084771 -0.8081717 -0.5665567 
0.05539189 -0.9220387 -0.3831143 
-0.7025003 -0.7102901 0.044514187 
-0.89666224 -0.4427009 -0.0035807914 
-0.4528908 -0.82608384 -0.33537355 
-0.41531256 -0.8141369 -0.40582836 
0.32182226 -0.4954945 -0.8067934 
-0.22895312 -0.8075627 -0.5435282 
0.17739803 -0.7660608 -0.6178033 
0.49283272 -0.8621032 0.11787309 
0.31576172 -0.9153013 -0.25003636 
0.4935767 -0.82697517 0.2692476 
0.6533275 -0.7558816 -0.0425004 
-0.5001059 -0.86263025 0.07591526 
-0.93158084 0.13512684 -0.33748773 
-0.6256183 -0.63329834 -0.4555602 
-0.45958555 -0.86298496 -0.20985267 
-0.62300056 -0.41822237 -0.6610298 
-0.06077119 -0.68934697 -0.7218779 
-0.6506115 -0.48963958 -0.58048075 
0.026295176 -0.82988155 -0.55731976 
-0.753036 -0.61313707 -0.23874606 
-0.41563097 -0.5299212 -0.7392121 
-0.42154545 -0.85615647 -0.2988236 
0.5324431 -0.009073644 -0.8464172 
0.5169435 -0.34427857 -0.78373575 
0.41813222 -0.29957974 -0.85756487 
0.3596951 -0.2533027 -0.8980297 
0.5689769 -0.37274945 -0.7330233 
0.55653876 -0.34971642 -0.75363326 
-0.16481635 -0.47488913 -0.86447436 
-0.53533477 -0.29696116 -0.7907154 
0.23769699 -0.39819035 -0.88597107 
0.08888369 -0.70403165 -0.70458436 
-0.5559012 -0.80791056 -0.1955871 
0.022058371 -0.65969115 -0.751213 
-0.118963264 -0.936663 -0.32940915 
-0.4937783 -0.850182 -0.18268462 
-0.6029909 -0.79403365 -0.07689371 
-0.6648945 -0.5655742 -0.48789462 
-0.06329401 -0.906355 -0.4177494 
-0.24254134 -0.814708 -0.5267112 
-0.30974945 -0.57835907 -0.7546894 
-0.8240349 0.018701619 -0.56623024 
-0.21389505 -0.8647538 -0.45436767 
-0.27176055 -0.7893496 -0.5505211 
0.16480957 -0.59268427 -0.7883928 
0.067501985 -0.9973132 0.028458752 
-0.3866481 -0.8387588 -0.38338876 
-0.08773909 -0.99201286 -0.09062294 
-0.010806393 -0.9643063 -0.26456884 
-0.2680336 -0.9231143 -0.27571362 
-0.44724202 -0.61753994 -0.64700776 
-0.70794547 -0.4867917 -0.5117101 
-0.7472863 -0.64402515 -0.16369134 
-0.37626034 -0.7580897 -0.5326615 
0.37967718 -0.9016761 -0.20694283 
-0.49577433 -0.84966445 -0.17966115 
0.07424416 -0.52404726 -0.8484471 
0.762032 -0.14878477 -0.63021463 
0.54067266 -0.422423 -0.7274833 
0.19837765 -0.6358468 -0.7458855 
0.598563 0.32870993 -0.73052865 
0.38173416 0.6640154 -0.64293283 
-0.039880317 0.6975998 -0.7153769 
-0.05578608 0.074549824 -0.9956557 
0.25943816 -0.6512234 -0.71316195 
0.03242247 0.3769753 -0.92565566 
0.03627309 -0.14890614 -0.9881859 
0.12932125 -0.73927486 -0.6608697 
-0.64182013 -0.577956 -0.5040178 
-0.24181528 -0.5769907 -0.7801328 
-0.22780195 -0.7850076 -0.5760811 
-0.22367582 -0.4640867 -0.85708386 
-0.69291455 -0.21718128 -0.6875332 
-0.58497673 -0.3867158 -0.7129188 
-0.53980523 -0.77980417 -0.31704247 
-0.114975266 -0.6894896 -0.71511173 
-0.59259516 -0.29294044 -0.7503445 
-0.6002755 -0.13974226 -0.78749067 
0.5136915 -0.40759274 -0.75497633 
-0.3904924 0.5975266 -0.70034117 
-0.6006932 -0.39174303 -0.6969255 
-0.9955436 -0.091257215 0.023773896 
-0.70415676 -0.23350473 -0.6705512 
-0.423249 -0.6582641 -0.6225341 
-0.42843372 -0.86169964 -0.27187937 
0.031114584 -0.97065216 -0.2384665 
0.23244756 -0.90804404 0.3484598 
0.62024903 -0.7312669 0.2837954 
0.6688082 -0.5327956 -0.518483 
0.22150643 -0.7685922 -0.6001674 
0.189915 -0.8176839 -0.5434385 
0.70333666 -0.5609408 -0.43664983 
0.054278325 0.02913661 -0.99810076 
-0.36125842 -0.37606767 -0.85326755 
-0.75785416 -0.59385854 -0.2701653 
-0.34759265 -0.4693353 -0.81172895 
0.3801441 -0.7258346 -0.5732841 
-0.43819323 -0.42521375 -0.79194695 
-0.19010615 0.14864185 -0.970446 
-0.1255871 -0.50067276 -0.85647815 
0.26796007 -0.42565387 -0.864301 
-0.44445288 -0.24165653 -0.8625914 
-0.17529754 -0.30543137 -0.93593943 
-0.3355258 -0.57906735 -0.7430366 
-0.03545416 -0.941531 -0.3350558 
-0.08704919 -0.9400854 -0.32963893 
-0.122651815 -0.39783916 -0.90921986 
-0.011812793 -0.39475724 -0.9187095 
-0.021555584 -0.24602178 -0.9690246 
0.14024122 -0.46005693 -0.8767441 
0.13801539 0.15079206 -0.97888386 
-0.2723056 0.5750367 -0.7714807 
0.5900802 -0.59944975 -0.5408007 
-0.60632116 -0.19253884 -0.7715592 
-0.283858 -0.4915974 -0.82325983 
-0.5801137 -0.59674066 -0.55440843 
-0.19727492 -0.72916144 -0.655291 
0.00087251025 -0.7082392 -0.705972 
0.59190726 -0.2502145 -0.76618445 
0.55762833 -0.659857 -0.5036262 
0.28081194 -0.33725947 -0.8985548 
0.74019444 0.09473903 -0.6656851 
0.35397175 -0.50216234 -0.7890102 
-0.24285139 -0.8675644 -0.43399945 
0.55758286 -0.11318778 -0.8223685 
0.8014944 -0.5487966 -0.23754771 
0.4385242 -0.58328915 0.683718 
0.1178838 -0.6798351 0.72382855 
-0.74771017 -0.5337412 -0.3950317 
-0.5870618 -0.78746486 0.1877702 
-0.3151975 -0.89266485 0.32218018 
-0.41219658 -0.80157775 -0.43309018 
-0.30588594 -0.9071829 -0.2888827 
-0.40441996 -0.7680862 -0.49647582 
-0.08218179 -0.124833606 -0.9887683 
0.24920829 0.10691813 -0.9625299 
0.2641002 -0.2615978 -0.9283414 
0.16920145 -0.5955955 -0.7852624 
-0.14465156 -0.76821774 -0.6236324 
-0.43726903 -0.46703306 -0.7685544 
-0.05407196 -0.24912739 -0.96696013 
0.087655865 -0.114642106 -0.98953205 
-0.07034999 -0.16082846 -0.984472 
-0.14933641 -0.7595919 -0.6330236 
0.27119476 -0.35134956 -0.8961066 
-0.25544685 0.06753949 -0.96446115 
-0.43128994 -0.18674995 -0.88267404 
-0.7532305 -0.1740131 -0.6343211 
-0.60326886 -0.4932693 -0.6266995 
-0.8716782 -0.48128292 -0.09243374 
-0.5821221 -0.79090506 -0.1886877 
-0.6162771 -0.7872466 -0.021103697 
-0.74289703 -0.55440855 -0.375147 
0.08120134 0.05880443 -0.9949615 
0.12889348 -0.33580366 -0.9330715 
-0.47244006 -0.73896766 -0.48034084 
-0.066046484 -0.7000556 -0.71102744 
-0.29721934 -0.9136592 -0.27728608 
-0.3218483 -0.6846637 -0.653949 
-0.112149246 -0.6397641 -0.760345 
0.20473632 -0.52290267 -0.82743937 
0.33921224 0.03864499 -0.93991584 
0.4044253 -0.6036447 -0.6870613 
0.57341313 -0.13676308 -0.8077706 
0.5238404 -0.022064153 -0.8515307 
-0.41230363 -0.48563084 -0.77082324 
-0.27571937 -0.6526844 -0.70567834 
-0.011612497 -0.98717195 0.15923789 
0.007844138 -0.7908015 -0.6120224 
-0.7402769 -0.37502167 -0.55798656 
-0.64150923 -0.6005491 -0.47729108 
-0.06509735 0.05787134 -0.9961995 
-0.3766682 0.60101116 -0.7049161 
-0.16010481 -0.68854994 -0.70729446 
-0.1823808 -0.40258092 -0.8970317 
-0.07179166 0.19120371 -0.9789214 
-0.116937906 -0.27168286 -0.95525604 
-0.38359338 -0.17464198 -0.9068387 
-0.42753825 -0.60848635 -0.6685473 
-0.16410638 -0.38168666 -0.9096068 
-0.06699827 0.089474626 -0.9937332 
-0.3251677 -0.18921821 -0.92653257 
-0.25274587 -0.3730205 -0.89273477 
-0.16859616 -0.72867006 -0.6637887 
-0.4207553 -0.8115356 -0.4054317 
-0.8121922 -0.4941076 -0.31016353 
-0.8290191 -0.25787443 -0.49621376 
-0.7167252 -0.51643676 -0.46861294 
-0.5099439 -0.5308159 -0.67689866 
-0.08487955 -0.4078075 -0.9091141 
-0.11971396 0.56767654 -0.8145011 
-0.23547861 -0.014091966 -0.9717774 
0.10367558 -0.6985687 -0.70799243 
-0.37864733 -0.8946195 -0.23723856 
-0.5816108 -0.1438336 -0.80065024 
-0.26326382 -0.15936263 -0.9514703 
-0.087478906 -0.2082021 -0.97416604 
0.08537277 -0.32981068 -0.94017893 
0.07586646 -0.6892209 -0.7205685 
-0.14143279 -0.29447725 -0.9451349 
-0.21083227 0.016496042 -0.9773831 
0.57559687 -0.24068397 -0.7815111 
0.28714845 -0.15994017 -0.94443893 
-0.5215392 -0.59575623 -0.61079574 
-0.41475326 -0.7934883 -0.4453717 
0.09587083 -0.7159997 -0.69148624 
-0.29092565 0.0039250273 -0.95673764 
0.47811598 -0.024804829 -0.87794644 
0.43085793 -0.038519543 -0.9015974 
-0.35437027 -0.513135 -0.78173786 
-0.14267954 -0.087829515 -0.9858644 
-0.039065383 -0.026831293 -0.99887645 
-0.020244017 0.005296755 -0.999781 
0.16883186 0.27979675 -0.9450976 
0.6184133 -0.06029841 -0.7835364 
0.8476201 -0.31157812 -0.42948723 
0.15856278 -0.5411715 -0.82582766 
0.14378886 0.13134901 -0.98085284 
0.17474861 -0.7027174 -0.68967474 
0.3380402 -0.8046606 -0.4881087 
0.51379734 -0.2732108 -0.8132455 
0.18662468 0.2332184 -0.95434815 
0.013556638 -0.59724975 -0.8019408 
0.23085822 -0.79686195 -0.5583151 
0.107137784 -0.6815412 0.7238944 
-0.18163124 -0.9745098 0.13168466 
-0.14616294 -0.51110405 -0.847 
-0.063304454 -0.8402946 -0.5384214 
0.51842 -0.117459916 -0.8470206 
0.039726146 -0.811626 -0.5828251 
-0.31055665 -0.3284944 -0.89198995 
0.39566925 -0.25637168 -0.88188404 
0.5215716 -0.64011765 -0.56410336 
-0.07791634 -0.9737914 0.21368071 
-0.24404185 -0.7026894 0.6683347 
-0.79138833 -0.46484417 0.39701945 
-0.6638562 -0.7010183 -0.2605156 
-0.93100274 -0.24769248 -0.26810887 
-0.17238957 -0.16178662 -0.9716517 
0.22932363 -0.21887389 -0.94842243 
-0.108138405 0.8841224 -0.45456997 
0.051825915 0.26815283 -0.96198136 
0.32474664 -0.25513917 -0.91073805 
0.2158278 -0.40450782 -0.8887023 
0.3388606 0.17844726 -0.92375875 
-0.11154427 0.5301225 -0.8405522 
0.33433324 0.18703088 -0.92371035 
0.36372915 0.09702582 -0.92643785 
0.54958403 0.2657098 -0.79205793 
0.35824546 -0.5409133 -0.7609686 
0.16299005 -0.41058153 -0.89713836 
0.40618637 -0.7975202 -0.44606537 
-0.013508435 -0.5363164 -0.8439089 
0.21059866 -0.9767126 0.040996958 
-0.25351322 -0.786604 -0.5630143 
-0.019171812 -0.43427894 -0.9005744 
-0.4177286 -0.6841596 -0.59785324 
-0.4336472 -0.72681683 -0.5326232 
-0.15569738 -0.7706424 -0.61795515 
0.11168523 -0.7363741 -0.6672928 
-0.18893848 -0.7880397 -0.5859145 
-0.24218394 -0.8734447 -0.42242327 
0.3017208 -0.8698414 -0.39030808 
0.4349716 -0.8970994 -0.07753956 
0.17054129 -0.8046886 -0.5686757 
-0.53486574 -0.5297709 -0.658226 
0.3234065 -0.49674797 -0.805388 
-0.1909325 -0.4610159 -0.8666079 
-0.7420388 -0.60072035 -0.2975124 
-0.16985096 -0.96141857 -0.21639085 
-0.6513776 -0.08398457 -0.7540914 
-0.4602392 -0.45603323 -0.7617175 
-0.08351296 -0.8191844 -0.5674175 
0.21041879 -0.47246778 -0.8558611 
0.19758716 -0.60488874 -0.7714072 
-0.09385959 -0.038068593 -0.9948574 
0.17554724 -0.5371887 -0.8249918 
-0.11090788 -0.6646403 -0.7388862 
0.34987932 -0.5323523 -0.7708344 
0.42427763 -0.5464205 -0.7220894 
-0.034855463 -0.8856099 -0.46312007 
0.3487669 -0.7207987 -0.5990083 
0.46052673 -0.3433973 -0.8185312 
0.18384832 0.13618608 -0.9734748 
-0.37517184 -0.42973745 -0.8213232 
0.014321442 0.12647009 -0.99186707 
-0.05531663 0.017260103 -0.9983197 
0.40001723 -0.57584643 -0.7130127 
-0.02174312 -0.42044717 -0.90705645 
0.021967525 -0.60258174 -0.79775476 
-0.047920763 -0.80693495 -0.58869314 
-0.10445357 -0.76679903 -0.6333314 
-0.50435984 -0.8380467 -0.20808342 
-0.38913485 -0.8865574 0.25017992 
-0.25499842 -0.93535197 -0.24513789 
0.008743073 -0.5833509 -0.8121732 
-0.099037364 -0.615878 -0.7815919 
-0.84062916 0.25021848 -0.48034698 
-0.8294212 -0.5285375 -0.18085496 
-0.5730199 -0.64330035 -0.50775284 
0.68658584 -0.31526282 -0.65514064 
0.5539277 -0.7549438 -0.3510328 
-0.049265794 -0.990752 -0.12642577 
0.1542917 -0.9838623 -0.09060464 
-0.42123413 -0.86298364 -0.2789645 
-0.50789505 -0.65081596 -0.56434137 
-0.45098653 -0.31476876 -0.8351836 
-0.08307891 -0.4955407 -0.8646024 
-0.39265373 -0.445308 -0.80468863 
-0.30147946 -0.41521567 -0.8583158 
-0.17516911 -0.35905144 -0.9167322 
0.2212249 -0.40279177 -0.8881545 
0.0942493 0.4987385 -0.86161304 
0.15065429 -0.08894589 -0.984577 
0.25925294 0.09421137 -0.9612035 
0.28787473 -0.050739575 -0.95632297 
-0.0123153655 0.71702397 -0.6969397 
0.35336617 0.123115756 -0.9273483 
0.329576 0.7320388 -0.59623736 
0.50426894 0.25357625 -0.8254768 
0.31158304 -0.0010034989 -0.95021844 
0.13299648 0.52117574 -0.8430231 
-0.03539772 -0.5673827 -0.82269305 
0.25961486 -0.7830088 -0.5652411 
-0.04928906 -0.44192743 -0.89569575 
0.11754129 0.15900661 -0.98025554 
-0.46937615 0.16256046 -0.8679056 
-0.62135607 -0.17167783 -0.76448894 
-0.09663988 -0.48741326 -0.86780703 
-0.21307941 -0.099286415 -0.97197706 
0.37865454 -0.6480998 -0.66074765 
-0.004215087 -0.48864365 -0.8724733 
-0.86819506 0.15694585 -0.47074988 
-0.46258593 0.37509775 -0.8033157 
-0.45903656 0.3110509 -0.8321856 
0.2633508 0.6629455 -0.70082074 
0.056713555 0.4678751 -0.8819731 
-0.1869313 0.023302719 -0.9820967 
-0.2506391 -0.52426314 -0.8138355 
-0.4323021 -0.2266587 -0.8727776 
-0.12498789 -0.07186926 -0.98955184 
0.57390463 -0.49373612 -0.6533438 
0.28739512 -0.8436589 -0.45347947 
0.43823582 -0.71859103 -0.53997815 
0.29253012 0.14845733 -0.9446622 
0.58971184 -0.7461393 -0.30905694 
0.15866567 -0.4023373 -0.9016374 
0.2700593 0.043758202 -0.96184886 
-0.0033091642 -0.2417597 -0.9703306 
0.6126981 -0.4103853 -0.6754148 
-0.24021666 -0.6392863 -0.73048556 
-0.48948145 -0.32211182 -0.8103406 
-0.19547066 -0.6322144 -0.74973077 
0.117366225 0.024489755 -0.9927867 
-0.17285548 -0.13806918 -0.97522205 
-0.28427765 -0.13754025 -0.948825 
-0.16412196 0.38771263 -0.9070518 
-0.43642288 -0.27256635 -0.857463 
-0.10231083 -0.061861638 -0.9928272 
-0.2848231 -0.27206793 -0.9191599 
-0.02494176 -0.41655904 -0.90876645 
-0.13264476 -0.8002597 -0.58479893 
-0.1277951 -0.053316265 -0.9903666 
-0.83864415 -0.039423652 -0.5432513 
-0.3750246 0.06356011 -0.9248333 
-0.07729345 0.20760012 -0.97515535 
-0.59060574 0.69728905 -0.40616846 
0.20363475 -0.24670492 -0.94745433 
-0.045533553 -0.80402595 -0.59284836 
-0.21138747 -0.45559415 -0.864725 
-0.12262981 -0.78846824 -0.602727 
-0.70981926 -0.6324868 -0.3100276 
-0.7393435 -0.43693027 -0.5123115 
-0.117063396 -0.5226142 -0.84449434 
-0.44012555 -0.41733626 -0.7950598 
0.54199785 -0.77327836 -0.32905784 
0.77449155 -0.59590644 -0.21226989 
0.3712943 -0.23314871 -0.8987671 
-0.1515895 -0.4457366 -0.8822356 
-0.15599099 -0.26752135 -0.9508413 
-0.4718842 -0.8257621 0.30893764 
0.89185894 -0.2424032 0.38187474 
0.6006967 -0.7675058 0.22382681 
0.1612144 -0.9847761 0.0650081 
-0.78402776 -0.20208214 -0.58691 
-0.32591462 -0.38314593 -0.8642795 
-0.019096475 -0.50960475 -0.86019677 
0.4464969 -0.31746426 -0.83657455 
0.10519602 -0.87005633 -0.48159721 
-0.23984131 -0.07049669 -0.96824914 
-0.15525956 -0.14192806 -0.97762513 
0.6406074 -0.4679447 -0.60881025 
0.27302048 -0.6461288 -0.7127254 
0.2859871 -0.92019343 -0.2673115 
-0.7474844 -0.4872325 -0.45152143 
-0.7420693 -0.446456 -0.5000103 
-0.40127236 -0.21257326 -0.89095074 
0.14927788 -0.51829565 -0.84207237 
0.20840919 0.08538102 -0.9743079 
0.22199227 -0.16739905 -0.96057117 
0.59564304 -0.5565638 -0.57917714 
-0.40998825 0.032158386 -0.91152376 
-0.90119445 0.242754 -0.3590532 
-0.38377318 0.2842419 -0.87859243 
-0.6935562 -0.17637753 -0.69847757 