# OOMMF: rectangular mesh v1.0
# Segment count: 1
# Begin: Segment
# Begin: Header
# Desc: Time (s) :  6.940000000000015e-07
# Title: m
# meshtype: rectangular
# meshunit: m
# xbase: 2e-09
# ybase: 2e-09
# zbase: 5e-10
# xstepsize: 4e-09
# ystepsize: 4e-09
# zstepsize: 1e-09
# xmin: 0
# ymin: 0
# zmin: 0
# xmax: 1.024e-06
# ymax: 1.024e-06
# zmax: 1e-09
# xnodes: 256
# ynodes: 256
# znodes: 1
# ValueRangeMinMag: 1e-08
# ValueRangeMaxMag: 1
# valueunit: 
# valuemultiplier: 1
# End: Header
# Begin: Data Text
-0.23968226 0.1209212 -0.9632915 
-0.88284737 -0.24821167 -0.39871246 
-0.7146817 -0.6107908 -0.34082964 
-0.56105894 -0.107345045 -0.8207862 
0.023020614 -0.18972579 -0.98156726 
-0.06552103 -0.72243416 -0.6883283 
0.05028196 -0.33458236 -0.9410242 
-0.63734734 -0.25551286 -0.7269812 
0.059565764 -0.16720583 -0.9841211 
0.3318452 -0.61446 -0.7157638 
0.25695428 -0.87560445 -0.40901294 
-0.09062517 -0.93143713 -0.3524373 
0.25672036 -0.3062539 -0.9166805 
0.28365237 -0.9455332 -0.15971297 
0.4167302 -0.89855814 0.13758336 
-0.46116266 -0.2546036 -0.85000366 
-0.60257965 0.236702 -0.76214826 
0.19633256 -0.19450735 -0.96105176 
-0.35366186 -0.7418842 -0.56967646 
0.10286103 0.1844937 -0.9774363 
-0.009088108 0.18781099 -0.9821632 
-0.19792105 -0.7299583 -0.654208 
0.9490785 -0.28526863 0.13368596 
0.23331982 -0.8276868 -0.51038873 
-0.23258014 -0.8282217 -0.5098583 
-0.7550063 -0.6238669 0.20187987 
0.2650631 -0.8609171 -0.43423885 
0.3032744 0.21172763 -0.9290835 
0.18199126 0.050436586 -0.98200583 
0.65872407 0.061071616 -0.749902 
0.56939566 -0.2425105 -0.7854791 
-0.048180502 -0.650556 -0.7579285 
0.33960336 -0.30909193 -0.8883309 
-0.009246693 -0.39764926 -0.91749096 
-0.2759274 -0.4719086 -0.8373568 
0.17834038 -0.6249931 -0.75998586 
-0.45681617 -0.8895525 -0.0039430945 
-0.4545084 -0.8132779 -0.36331993 
-0.36143464 -0.5930873 -0.719453 
0.2659246 0.13283545 -0.9547978 
-0.030023322 -0.004158166 -0.99954057 
-0.23140967 0.019839775 -0.97265404 
-0.66007215 -0.28610986 -0.6945833 
-0.25600642 -0.12821613 -0.9581343 
-0.081130356 -0.38853058 -0.9178573 
-0.026500706 -0.63344246 -0.77333593 
-0.55785364 -0.6200592 -0.55165744 
0.4545597 -0.82433456 -0.33741397 
0.5417372 -0.84054667 -0.0014757197 
0.11363619 -0.8677979 0.4837496 
0.042286336 -0.87869817 -0.47550127 
0.45081678 -0.70493793 -0.54756445 
0.10137599 -0.6159363 -0.78124607 
0.08777627 -0.6592075 -0.74682045 
0.18798214 -0.908251 -0.37382203 
-0.39385304 -0.8525254 -0.34362805 
-0.4138621 -0.87188256 -0.2617998 
-0.63643533 -0.7570328 -0.14782229 
-0.3334873 -0.9380138 0.09442697 
-0.25575167 -0.9257261 -0.27860776 
-0.15821959 -0.79654163 -0.5835135 
-0.18028073 -0.78265595 -0.5957755 
0.10265435 -0.23662652 -0.9661625 
0.16434328 -0.45163053 -0.8769385 
0.2607883 -0.7388055 -0.6214146 
0.38434002 -0.92163545 -0.053582884 
0.65539867 -0.4798399 0.58327204 
0.7974241 -0.6008433 0.055696674 
0.49212965 -0.7095921 0.50426924 
-0.1440928 -0.86259776 0.4849356 
0.7070645 -0.70704645 -0.012051435 
0.7290744 -0.45582822 0.5105597 
0.5655443 -0.78285253 -0.25942588 
0.42541257 -0.8860681 0.18414019 
0.6744635 -0.63486 -0.37689772 
0.38692147 -0.3213414 -0.8643099 
0.7825995 -0.31206125 -0.53866124 
0.38586465 -0.9210414 0.052831177 
0.6375265 -0.72743535 -0.25376737 
0.7753776 -0.63079935 -0.02969447 
0.8602675 -0.090842575 -0.5016847 
0.4257297 -0.8389388 -0.3390223 
0.14769545 -0.9860528 0.07672031 
-0.4076182 -0.7376139 -0.5383058 
0.3952639 -0.33584473 -0.8549706 
0.8458869 -0.3591818 -0.3942891 
0.58322424 -0.8084876 -0.078723274 
0.84963363 -0.37874633 0.36697942 
-0.26747084 -0.8874782 0.37528914 
0.7335512 -0.6767306 -0.06275737 
0.8702435 -0.0066099796 0.49257758 
0.51353186 -0.661283 0.54679966 
0.19663122 -0.07442435 0.9776488 
-0.092908196 -0.5138347 0.8528436 
-0.0440911 -0.9012634 0.43102238 
0.24542892 -0.92237043 0.29832453 
0.11240449 -0.629208 -0.7690661 
0.5296496 -0.846623 -0.051971033 
0.86857086 -0.25333425 -0.42591852 
0.79842025 -0.5948152 0.09338204 
0.29517218 -0.95544314 0.0013450522 
-0.1764477 -0.90243244 -0.39304182 
0.21247531 -0.8638523 -0.45674226 
0.41264504 -0.9097271 0.046050698 
0.3849982 -0.90463275 -0.1828008 
-0.86807543 -0.4860238 0.10112332 
-0.24067523 -0.59395516 0.76765406 
-0.9052036 -0.42389092 0.030380094 
-0.7114276 -0.6070093 -0.35413358 
-0.74888396 -0.43484932 -0.5000789 
-0.56466496 0.30460128 -0.7670539 
-0.059558433 0.1459886 -0.9874919 
-0.041291106 -0.8996988 -0.43455416 
-0.23133034 -0.96984124 -0.07677422 
-0.19861688 -0.97494185 -0.100199245 
-0.42882064 -0.80648786 0.4070508 
-0.7035684 -0.70988226 -0.03253706 
-0.16208953 0.0048446925 -0.9867642 
-0.25357446 -0.5199612 -0.815684 
-0.20716377 -0.87105584 -0.44535923 
0.36502936 -0.8994539 -0.2402837 
-0.4223253 -0.47453225 -0.7723086 
-0.9502769 -0.03331075 -0.30961946 
0.52270454 -0.678203 -0.51654696 
-0.073227555 -0.9780504 -0.19507754 
0.47726128 0.6523053 -0.5888289 
0.25538164 -0.574217 -0.77785295 
-0.090093985 -0.13147092 -0.98721755 
-0.5048375 0.36843306 -0.7806384 
0.14225674 0.51766115 -0.84367645 
0.22579458 -0.362805 -0.90409595 
0.051175233 -0.41765136 -0.90716505 
0.1050639 -0.37623858 -0.92054665 
0.24571799 -0.9340776 0.25907874 
-0.474582 -0.81530577 -0.33173582 
0.3122682 -0.9033416 -0.29404527 
0.7147379 -0.13700232 -0.68584263 
0.18933693 -0.97035486 -0.15021013 
0.48502165 -0.66032135 -0.57334965 
0.14799938 -0.5880934 -0.7951367 
-0.0034989861 -0.84317297 -0.53763115 
0.7659552 -0.6397223 0.06378235 
-0.0980807 -0.80568236 -0.58417135 
-0.34103805 -0.41597706 -0.8430042 
-0.26779723 -0.7789284 -0.56705844 
-0.65964115 -0.7489146 0.063249744 
0.2672173 -0.9522332 0.1478071 
-0.041172974 -0.99265695 0.11374079 
-0.2571873 -0.77519983 -0.5769923 
0.28556782 -0.62178564 -0.72926927 
-0.5435138 -0.19789779 -0.8157385 
-0.15007287 -0.57876456 -0.80156714 
0.39833373 -0.66042686 -0.636527 
0.67794305 -0.40861633 -0.61108595 
0.80768496 -0.44630674 0.3852992 
-0.380784 -0.90202606 0.20335339 
-0.1425226 -0.82557255 0.5460014 
-0.53598225 -0.8293178 0.15797213 
-0.61442816 -0.64308006 -0.4570843 
-0.9339627 -0.21476121 0.28564203 
-0.81594175 -0.43871206 -0.37652484 
-0.66169053 -0.74948233 0.02102358 
-0.26175267 -0.4129438 -0.8723319 
-0.11631095 0.20256452 -0.9723371 
0.06916915 -0.7510782 -0.6565799 
0.14425346 -0.61153877 -0.7779534 
-0.29300874 -0.34121716 -0.8931499 
-0.8021319 0.26860037 -0.53332776 
-0.64044356 0.045220535 -0.76667273 
-0.26492748 0.38381013 -0.8845921 
0.1533364 0.10316439 -0.98277426 
0.099377334 0.16265942 -0.981665 
-0.2882672 -0.5810524 -0.76110464 
-0.12775895 -0.48966843 -0.86249787 
-0.6429623 -0.47286898 -0.6024902 
-0.04918074 -0.4956726 -0.86711586 
0.27255428 -0.39454114 -0.87752587 
0.15579419 -0.68216056 -0.7144125 
0.44201362 -0.81304204 -0.37892812 
0.3177711 -0.60248405 -0.73214376 
0.6879736 -0.68237853 0.24708678 
0.7855218 -0.59959304 -0.1531139 
0.08209078 -0.8616307 -0.5008529 
0.19487947 -0.569365 -0.7986524 
-0.17017111 -0.7891191 -0.5901974 
0.016093146 -0.73587453 -0.67692673 
0.65279716 -0.6451822 -0.39698344 
0.2943467 -0.87367 -0.3873768 
0.15914375 -0.58739275 -0.79350054 
0.22088793 -0.4870517 -0.84497887 
-0.24929011 -0.47387475 -0.8445693 
0.790191 -0.431542 -0.4351664 
0.5522562 -0.7110269 0.43526304 
0.4996312 -0.8325369 -0.2392721 
0.1955425 -0.95052934 0.24136554 
0.635691 -0.76731974 -0.084365495 
0.15610452 -0.92587864 0.34406403 
-0.10305808 -0.923299 -0.3699973 
-0.18221705 -0.91244805 -0.36638185 
0.31308573 -0.93311775 0.17682973 
0.24374631 -0.9688014 -0.04485172 
-0.3443007 -0.83195406 -0.43509707 
0.30470458 -0.4764713 -0.8247001 
0.23794621 -0.6289564 -0.74013215 
0.37725937 -0.69638044 -0.61051595 
0.121331714 -0.9911669 -0.053542677 
-0.16691543 -0.48238 -0.85991204 
0.0019981184 -0.5998238 -0.8001297 
0.4223378 -0.17039484 -0.8902789 
0.7582394 0.5725685 -0.31183088 
-0.18916987 0.71695143 -0.670966 
0.40670818 -0.7671282 -0.4960877 
0.51107657 -0.38660598 -0.7676826 
0.33130652 -0.68792516 -0.6457516 
0.2892867 -0.88394475 -0.367362 
-0.124068305 -0.26811814 -0.95536363 
0.7481895 -0.5431662 -0.38102877 
0.40285173 -0.90501803 -0.13657552 
-0.06984595 -0.9970058 -0.033180088 
-0.27028805 -0.83273774 -0.4832104 
0.18662214 -0.8819696 -0.43278405 
0.5756864 -0.16665494 -0.8005069 
-0.097574025 -0.19820511 -0.9752918 
-0.063972265 -0.11170463 -0.9916802 
0.055654235 -0.5825661 -0.8108758 
0.15159592 0.0925937 -0.9840961 
-0.22658397 -0.43126115 -0.87331176 
-0.53486747 -0.835652 -0.12491072 
-0.4897316 -0.21138296 -0.8458607 
-0.5553559 -0.07627065 -0.82810795 
-0.275896 -0.79911214 -0.534136 
-0.33843175 -0.2846261 -0.89691246 
0.050240867 -0.37642083 -0.92508554 
-0.10623061 -0.7714075 -0.6274118 
-0.09697501 -0.26251668 -0.9600422 
-0.4016342 -0.40554023 -0.8211134 
-0.041412577 -0.2866377 -0.95714355 
-0.16634019 -0.27007237 -0.94836277 
-0.14340025 -0.34684914 -0.9268938 
-0.21679386 -0.18357152 -0.9588024 
0.8297937 0.16582441 -0.5328648 
0.7200027 0.57402974 0.3899822 
0.6133981 -0.044171125 0.78853774 
-0.6494428 -0.19534639 0.73489046 
-0.8959888 -0.44052824 -0.056027167 
-0.570108 -0.112224944 -0.81386876 
-0.2069991 -0.55018866 -0.80897707 
-0.13949625 -0.7642322 -0.62967443 
0.09569201 -0.89133626 -0.4431284 
0.27135438 -0.5407228 -0.7962323 
0.18637039 -0.98247546 0.0028364945 
0.056047328 0.031235272 -0.9979394 
0.2382297 -0.07624919 -0.9682112 
0.14288467 -0.876414 -0.45987228 
0.09276957 -0.7469528 -0.65837336 
0.9549678 -0.10901518 -0.2759573 
-0.75984263 0.02078226 -0.64977497 
-0.089146875 -0.44848585 -0.88933307 
-0.40258166 -0.19706827 -0.8939195 
0.18230148 -0.12282187 -0.9755415 
0.4018757 0.06723294 -0.9132228 
-0.0382252 0.5263176 -0.8494284 
0.21742278 -0.42454615 -0.8789129 
-0.35341418 0.5743136 -0.7384189 
-0.15336639 0.3213435 -0.9344609 
0.33524674 0.56952304 -0.750502 
0.22173603 0.6182694 -0.75403994 
-0.20173289 0.47399083 -0.8571094 
-0.21096672 -0.1308944 -0.96868974 
-0.48289514 -0.7721428 -0.41304693 
-0.38371104 -0.33449697 -0.8607425 
0.2997136 -0.10426729 -0.94831437 
-0.32557583 -0.3063526 -0.8945102 
0.029333498 -0.12298042 -0.9919755 
-0.041575335 -0.44792256 -0.89310527 
0.018478345 -0.6434021 -0.7653054 
0.15245 -0.489419 -0.8586199 
0.530536 -0.5850626 -0.6133787 
0.58971417 -0.039368927 -0.8066519 
0.5300012 -0.3195635 -0.78547955 
0.6875205 -0.1554124 -0.70933956 
-0.53727925 -0.6729156 -0.5084444 
-0.08646667 -0.80884695 -0.58162713 
0.047081552 -0.6492578 -0.7591098 
-0.42936724 -0.08722314 -0.89890814 
-0.036933374 0.060266756 -0.99749887 
0.19210216 0.112881385 -0.9748613 
-0.30287072 -0.46494153 -0.83192474 
0.46563354 -0.2624524 -0.84516525 
0.13614112 -0.46022093 -0.87730396 
0.19451301 -0.73156494 -0.6534352 
0.1881197 -0.7892676 -0.5845235 
-0.09573479 -0.93499607 -0.3414927 
0.1909563 -0.3499473 -0.91710013 
-0.305575 -0.5841606 -0.7519178 
0.34438798 -0.08711129 -0.9347773 
-0.15519115 -0.38605526 -0.9093279 
-0.073346056 -0.7707772 -0.6328689 
-0.17796963 -0.36482933 -0.9139072 
-0.5552474 -0.38734776 -0.735977 
-0.6924833 -0.71380895 -0.10461196 
0.034329627 -0.30460548 -0.95185983 
-0.082036726 -0.23965862 -0.967385 
0.52690256 -0.8493906 -0.03015611 
0.03955285 -0.91304475 -0.4059373 
-0.19117904 -0.96079564 0.20080416 
-0.22051331 -0.8035728 -0.55285156 
-0.1612463 -0.5636608 -0.81011486 
0.29513654 -0.9552575 0.01943655 
0.28585142 -0.9384348 -0.19398244 
-0.36601967 -0.7945712 -0.4844441 
0.1298867 -0.81018484 -0.5716032 
0.05220927 -0.5871048 -0.8078256 
-0.48124656 -0.8043956 -0.3483527 
-0.398917 -0.80938333 -0.43100333 
0.36267126 0.01216483 -0.9318378 
-0.7232111 -0.5312744 -0.44126326 
-0.5231745 -0.6030217 -0.6022071 
-0.44280085 -0.013453364 -0.89651906 
-0.31229293 0.29673728 -0.9024523 
-0.62408745 0.0066162804 -0.78132653 
0.6506871 -0.10033655 -0.7526879 
0.09294368 -0.80752915 -0.58245885 
0.6437757 -0.58791256 -0.48980778 
0.598519 -0.6737954 -0.43332988 
-0.038507726 -0.9791783 -0.19931649 
0.7879003 -0.57687217 0.21547993 
0.25616702 -0.96636295 0.022827532 
0.48835516 -0.8455366 -0.21581711 
0.17259087 -0.9139936 -0.36718968 
0.70854586 -0.5367432 -0.45811525 
0.32962167 -0.6910248 -0.64329964 
0.7713095 -0.6042013 -0.20005624 
0.59665763 -0.8018635 -0.031853795 
0.93238884 -0.34365574 -0.11203473 
0.71900874 -0.68589455 -0.112138756 
0.72493094 -0.18602923 -0.66322565 
0.7195491 -0.67708385 -0.15429395 
-0.47919422 -0.8240756 -0.30211335 
-0.7501383 0.26797795 -0.6045498 
-0.024093855 0.2413702 -0.97013396 
-0.07822512 -0.49164107 -0.8672774 
0.42439094 -0.59256506 -0.68465984 
0.7507207 -0.6321592 -0.19181545 
-0.040996842 -0.8673454 -0.49601546 
0.48588535 -0.7037933 -0.5182571 
0.65907264 -0.7199328 -0.21753174 
0.3395856 -0.90119064 0.26932707 
0.26301172 -0.6538198 0.7094679 
-0.20457207 -0.9257364 0.31806034 
-0.5354543 -0.6167796 0.5769503 
-0.87422293 -0.30585277 -0.3770788 
-0.25435326 -0.94418675 -0.20932226 
0.17385186 -0.95128864 -0.25460875 
0.46572712 -0.755757 -0.46035823 
0.25860527 -0.8013046 -0.5394761 
0.056848425 -0.8049526 -0.59060943 
-0.2561952 -0.42857316 -0.8664232 
0.10038911 -0.84591836 -0.5237789 
-0.47140357 -0.73110193 -0.49322277 
-0.09182614 -0.96321917 0.25254095 
0.66550887 -0.7455621 -0.03514515 
0.28261927 -0.632557 0.721109 
0.13560367 -0.630009 0.764657 
-0.26507455 -0.9355437 -0.23343816 
-0.20079243 -0.2579861 -0.9450532 
-0.13933545 -0.15237118 -0.97845215 
-0.58152974 -0.23962682 -0.7774331 
-0.37463087 -0.26629028 -0.888111 
-0.68011206 -0.6344025 -0.36739784 
-0.04455294 -0.84907687 -0.5263872 
0.020258313 -0.64352125 -0.7651602 
-0.8970648 0.03831156 -0.44023523 
0.0034330727 -0.41363585 -0.910436 
-0.06498531 -0.23714192 -0.969299 
0.25408795 -0.9553063 -0.1510937 
-0.20956597 -0.8363823 -0.5065044 
0.21622013 -0.7244195 -0.65457267 
0.048249554 -0.80517066 -0.59107715 
0.17751117 -0.44139224 -0.879581 
0.3863411 -0.69043255 -0.61159104 
-0.3345479 0.33520755 -0.88074607 
-0.060601477 -0.27109438 -0.96064323 
-0.12798744 0.27784097 -0.9520628 
-0.5235291 0.25054112 -0.814338 
-0.0493573 0.15690525 -0.9863796 
0.35051066 0.17212728 -0.92060554 
0.2748798 -0.3748725 -0.88538784 
0.10553302 -0.3264343 -0.9393101 
0.2898937 -0.95467675 -0.06748369 
-0.32318646 -0.867769 -0.3775282 
-0.69753814 -0.7073285 -0.11457295 
0.6092332 -0.47587034 -0.6343362 
0.43881613 -0.6360415 -0.63473743 
0.36425796 -0.35025916 -0.8629222 
0.32521263 -0.8336431 -0.4464034 
-0.35903943 -0.3916907 -0.8471536 
-0.101997286 -0.91125757 0.39900663 
-0.25012106 -0.9159999 -0.31366178 
-0.3532599 -0.9347755 -0.03744744 
-0.60739267 -0.79055935 0.07803988 
0.03237255 -0.67428845 -0.73775816 
0.68181926 -0.5409904 -0.49239406 
0.3250804 -0.9454628 -0.020562796 
-0.014827149 -0.8882135 -0.45919156 
0.20083548 -0.26072237 -0.94429284 
-0.3700053 0.07337461 -0.9261276 
0.020760378 0.39138472 -0.91999304 
0.14471616 -0.21954916 -0.9648085 
0.80241144 -0.5772762 -0.15128835 
0.5620039 -0.7530106 -0.34223765 
0.13657323 -0.76901877 -0.6244661 
0.040163074 -0.94992596 -0.3098832 
0.06344302 -0.8965161 0.43844482 
0.5542645 -0.7210988 0.41570115 
-0.2110718 -0.8559668 0.47198462 
-0.3725132 -0.80953676 -0.4537445 
-0.68919253 -0.09176969 -0.7187434 
-0.37736908 0.1838621 -0.90762734 
-0.24801917 0.53244835 -0.8093116 
0.6130636 -0.14904805 -0.7758465 
-0.01058032 0.10284164 -0.9946415 
-0.19817585 -0.19048351 -0.9614793 
-0.79645336 -0.26866984 -0.54173684 
-0.7472714 -0.052928925 -0.66240776 
-0.018326761 0.13041618 -0.99129003 
-0.29845247 0.70427305 -0.6441473 
0.12508799 0.4120916 -0.9025152 
-0.14900316 -0.048273496 -0.9876577 
0.25980806 0.04628358 -0.96455055 
-0.24482481 -0.42298326 -0.8724369 
-0.666128 -0.18908033 -0.72147226 
-0.23752972 -0.84779096 -0.4741626 
-0.014177243 -0.35936517 -0.93308944 
0.19420762 -0.87043476 -0.45235714 
0.2190686 -0.79486847 -0.565856 
0.2564329 -0.8999435 -0.35262436 
0.10920781 0.21547571 -0.97038335 
-0.27741978 0.11420689 -0.95393664 
-0.38113305 0.11334532 -0.917546 
0.31767887 -0.13041161 -0.9391874 
0.155117 -0.5595322 -0.8141637 
-0.09321614 -0.67658937 -0.7304366 
-0.6161882 -0.7868491 0.03435953 
-0.109579064 -0.8656346 -0.48853794 
-0.13259862 -0.5526502 -0.82279736 
-0.7660614 -0.36101103 -0.5318091 
-0.14218244 -0.766916 -0.6257988 
0.009206858 -0.92156106 0.38812432 
0.56557554 -0.47084647 -0.6770731 
0.55958176 -0.82621574 -0.06508309 
0.7259022 -0.6549625 0.20997675 
0.36457872 -0.8823158 0.2976596 
0.57004106 -0.7651062 -0.29944232 
0.28632447 -0.7554983 -0.58927125 
0.29235494 -0.5955672 -0.74821675 
-0.027438993 -0.69643784 -0.71709245 
0.061202757 -0.82026523 -0.5686995 
0.009328442 -0.912688 -0.4085507 
-0.09680548 -0.5047957 -0.85779375 
0.26074037 -0.37527794 -0.8894836 
-0.23316514 -0.8878685 -0.39664054 
-0.22801644 -0.20800523 -0.9511795 
0.05850455 0.13279466 -0.9894154 
0.43667507 0.11768319 -0.89188874 
0.83013034 0.42403585 -0.36204606 
0.6502047 0.5558143 -0.5179811 
0.46023035 -0.09870458 -0.8822956 
0.71767336 -0.24367203 -0.6523565 
0.2658272 -0.75481313 -0.5996609 
0.35878956 -0.7510007 -0.55431765 
0.443012 0.111393765 -0.88956827 
0.3696205 -0.7921953 -0.48560014 
0.7231259 -0.4571657 -0.51777273 
0.48782313 -0.6431588 -0.5902333 
0.42876062 -0.89188385 -0.14390188 
0.7405814 -0.4435363 -0.50479186 
-0.14358199 -0.9459298 -0.29086247 
0.12297104 -0.33307692 -0.9348465 
0.66649795 -0.16721493 -0.726512 
-0.002495195 -0.8420332 -0.53941995 
0.62122166 0.18523462 -0.7614275 
0.119742654 -0.559944 -0.8198319 
-0.8717845 -0.39676714 -0.2873459 
-0.60481876 -0.122075126 -0.78695107 
-0.046699278 -0.25374064 -0.9661444 
-0.2857377 -0.6648837 -0.69013315 
-0.33927643 -0.6676297 -0.66269314 
0.42818445 -0.4146717 -0.8029356 
0.67114437 -0.51682687 -0.5314653 
-0.20043525 -0.9007024 -0.385436 
-0.2532168 -0.46221602 -0.8498457 
0.009127301 -0.2807195 -0.95974654 
-0.1395036 -0.1551686 -0.9779885 
0.62635165 -0.09331809 -0.7739351 
0.7722983 -0.5892735 0.23730178 
0.5392594 0.36122355 0.76073456 
0.7149152 -0.049892385 0.6974289 
-0.35477838 0.004272555 0.93494076 
-0.5951868 -0.652871 0.46852115 
-0.64398867 -0.4772356 -0.5979339 
-0.2680255 -0.51761013 -0.8125528 
-0.35333502 -0.5706747 -0.7412724 
0.016872706 0.39343125 -0.9191993 
-0.37320727 -0.2415131 -0.8957611 
0.8568635 0.13761018 -0.4968383 
0.14548203 -0.8014544 -0.5800913 
-0.16683477 -0.27191448 -0.9477493 
-0.044235907 0.37702447 -0.9251464 
0.1791376 -0.58246785 -0.7928688 
0.9368491 -0.2859642 -0.20134126 
0.9784386 0.20331897 0.036324006 
-0.05590987 0.6582379 -0.75073105 
0.3870611 0.6547738 -0.6491958 
-0.2794223 0.4138044 -0.8664232 
0.17212778 -0.18377247 -0.9677809 
-0.013170532 -0.08790551 -0.9960418 
0.16321838 -0.05483916 -0.9850647 
0.47065154 0.094877265 -0.8772033 
0.08155151 -0.19535537 -0.97733605 
0.22196428 0.06435683 -0.9729286 
0.35883704 -0.06416138 -0.9311925 
0.74280906 -0.043993924 -0.66805637 
-0.6856827 -0.18916792 -0.70289034 
0.020954732 0.1984408 -0.9798889 
0.062410377 0.15767473 -0.985517 
0.23087198 0.8219586 -0.5206556 
-0.5401551 -0.31835145 -0.7790282 
0.5891431 -0.072628185 -0.8047581 
0.40275002 -0.22194028 -0.88799495 
0.3240607 -0.78861713 -0.5225588 
-0.27764258 -0.7578075 -0.5904595 
-0.32956386 -0.093099125 -0.939532 
-0.34414124 -0.3014527 -0.8892093 
0.042270623 -0.5582422 -0.8286005 
0.4215559 -0.6073512 -0.6733611 
0.233591 -0.7677282 -0.5966813 
0.48302987 -0.6688042 -0.5651399 
0.28216785 -0.47010428 -0.83629143 
-0.3939384 -0.4696082 -0.7901145 
-0.44852895 0.21272291 -0.8680846 
-0.06521232 -0.09390385 -0.99344325 
-0.4435916 0.11833714 -0.88838214 
0.076262794 -0.88342416 -0.4623265 
0.72302055 -0.6134711 -0.31763902 
0.34314373 -0.6838952 -0.6438477 
0.41538274 -0.5268084 -0.7415728 
0.508167 -0.096673824 -0.85581577 
0.14341153 0.38424876 -0.91202307 
0.59068364 -0.216995 -0.77717835 
-0.08941974 -0.8890892 -0.44891497 
0.04695196 -0.7652488 -0.6420202 
0.079943545 -0.6950933 -0.71446097 
0.09848106 -0.88087493 -0.46299142 
0.13685071 -0.64783067 -0.7493913 
-0.4436834 -0.8226704 -0.35546958 
0.32374084 -0.94577014 -0.026658894 
-0.25947767 -0.68396556 -0.68180823 
-0.29449987 0.28985485 -0.91063386 
-0.025082996 -0.49406248 -0.86906445 
-0.35742527 -0.58290225 -0.7297069 
-0.20591357 -0.58477134 -0.78462857 
-0.38412502 -0.46735305 -0.7962596 
0.0043930467 -0.59697366 -0.80224884 
0.75517946 -0.52216446 -0.39629313 
0.7773703 -0.62218106 -0.09266182 
-0.041590523 -0.62420726 -0.78015107 
0.050887693 -0.1359845 -0.9894032 
0.34735668 -0.5694233 -0.7450507 
0.63006586 -0.77381057 0.065071456 
-0.5931353 -0.75783235 -0.2718099 
-0.17482102 0.31721732 -0.9321003 
-0.59846485 0.2347199 -0.7659937 
-0.7618733 0.09062363 -0.6413552 
-0.58315957 0.39706963 -0.7087036 
-0.4259753 0.33887148 -0.83887506 
-0.580222 -0.33706424 -0.741438 
0.12654874 -0.42316604 -0.89717114 
-0.0046339706 -0.11605643 -0.99323183 
0.50793725 -0.56321967 -0.65175414 
0.36026445 -0.3830595 -0.85057336 
0.5061605 -0.56249344 -0.6537605 
0.8425339 -0.10886572 0.5275273 
0.46233454 -0.856272 -0.23031564 
0.5708046 -0.25226682 -0.78137285 
0.7243108 -0.40476224 -0.55815893 
0.47955775 -0.34709844 -0.80594486 
0.71999353 -0.58032197 -0.38057303 
0.8555553 -0.3867199 -0.3441991 
0.54167825 -0.8022993 -0.2507998 
0.2572821 -0.9057721 -0.33672372 
0.0024319517 -0.9847698 -0.17384666 
0.5155428 -0.73732847 -0.4365345 
0.6176193 -0.6585594 -0.42993736 
-0.29364058 -0.5953476 -0.7478881 
-0.35206857 -0.5698896 -0.7424781 
0.44262642 -0.5126289 -0.7357265 
0.02607883 -0.23796065 -0.9709246 
-0.47439224 -0.810789 -0.34288946 
0.41357595 -0.9102351 -0.02066767 
0.4873079 -0.7374048 -0.46772328 
0.5163778 -0.14134598 -0.8446155 
-0.01556116 -0.7333374 -0.67968684 
0.29472542 -0.8884668 -0.35180074 
0.17501712 -0.5136171 -0.8399801 
0.101797745 -0.5910678 -0.8001725 
0.3714662 -0.7666316 -0.52372605 
-0.8832911 -0.12232488 -0.4525855 
-0.35411516 -0.4143163 -0.8384178 
-0.79730886 -0.44033498 -0.41279998 
-0.8283062 -0.21246625 -0.5184274 
0.1164542 -0.43868536 -0.8910632 
0.1575267 -0.23296313 -0.95964247 
0.080656044 -0.5805626 -0.8102109 
0.22910802 -0.24190234 -0.9428642 
-0.60775137 -0.74487334 -0.2753216 
-0.30495846 -0.7403192 -0.599106 
0.20371808 -0.5216333 -0.8284913 
0.25665244 -0.86296606 0.43522328 
-0.55743986 -0.82093567 0.12379543 
-0.45929828 -0.607441 -0.64812076 
0.12555838 -0.30879557 -0.9428046 
0.051451188 -0.03389583 -0.99810016 
-0.28260723 -0.11628567 -0.95216113 
-0.21898967 0.03721393 -0.9750173 
-0.19286017 -0.6969598 -0.69068956 
-0.63758314 -0.27482307 -0.71969444 
0.2101062 -0.69345343 -0.6891863 
0.020876711 -0.477139 -0.87857985 
-0.026543407 -0.879253 -0.47561526 
0.06412633 -0.6250752 -0.7779261 
0.123465635 -0.8464093 -0.51802266 
0.0011794929 -0.66179353 -0.7496852 
0.64097273 -0.35742873 -0.6792634 
0.6384096 -0.40779084 -0.6527939 
-0.068928234 -0.39890867 -0.91439646 
0.022614554 -0.4511887 -0.89214206 
-0.18078965 -0.120732024 -0.97608346 
0.47705457 -0.086009614 -0.874655 
0.21082006 -0.35789713 -0.90965086 
0.04726971 0.38894334 -0.9200483 
0.33140692 0.038370598 -0.94270736 
0.17442518 0.75545394 -0.6315579 
0.28654638 0.10076405 -0.9527527 
-0.051097766 -0.3187283 -0.9464679 
-0.75207305 -0.53776574 -0.3810435 
-0.6688786 -0.13209142 -0.73154175 
-0.8161372 -0.4169533 -0.4000875 
-0.05965201 -0.7743318 -0.6299618 
0.2954412 -0.04960328 -0.95407236 
-0.23588267 -0.44726765 -0.8627346 
0.46567824 -0.47720554 -0.7452642 
0.3772725 -0.7790773 -0.5007035 
0.019719498 -0.95753443 -0.2876438 
0.104295045 -0.82894564 -0.5495196 
0.17574725 -0.8412455 -0.5112915 
0.35124168 -0.87060106 -0.34450403 
0.37525165 -0.71192396 -0.5935913 
0.44672826 -0.5812149 -0.68016404 
0.4109688 -0.5557148 -0.72269344 
0.23404643 -0.50698733 -0.82956994 
0.18208818 -0.6739704 -0.7159664 
0.30728748 -0.5198836 -0.79705423 
0.115503654 -0.37790743 -0.91861033 
0.3464322 -0.10448164 -0.9322384 
0.80255044 -0.48039627 -0.35374027 
0.75681776 -0.59756804 -0.26483825 
0.4632448 -0.807581 -0.3649895 
-0.112666324 -0.5309071 -0.8399071 
0.19238213 -0.34558442 -0.9184556 
-0.47805756 -0.347713 -0.806571 
0.03630497 -0.44677687 -0.8939085 
-0.52771616 -0.47628707 -0.7033253 
-0.8648602 -0.2862058 -0.41243577 
-0.87550855 0.42529777 -0.2293617 
0.16347902 0.05853737 -0.9848086 
0.12454834 -0.36040902 -0.92444205 
-0.16523837 0.464833 -0.86984295 
0.01305477 0.12064415 -0.99261 
-0.09060866 0.04137489 -0.9950267 
-0.23489639 -0.33275166 -0.91329086 
-0.22879826 -0.14132763 -0.96316034 
-0.12605971 0.42642453 -0.89569587 
-0.95123965 0.29573426 -0.08766105 
-0.18803935 0.39931577 -0.8973228 
-0.21767007 -0.12705223 -0.9677177 
-0.32867032 -0.82683116 -0.4564276 
-0.7850028 -0.44629267 -0.4296434 
-0.38654613 -0.27057433 -0.88168687 
0.10465513 -0.75198686 -0.6508173 
0.26957658 -0.9069539 -0.32367143 
0.23731372 -0.83420545 -0.49777874 
0.080170974 -0.027500626 -0.9964018 
-0.49383917 -0.21937625 -0.84142554 
0.49137878 0.77086 -0.40536645 
-0.58636355 -0.109931014 -0.80255413 
0.41150698 0.46886075 -0.78155726 
-0.39893484 -0.52832335 -0.7494835 
-0.5170859 -0.66013014 -0.5448398 
-0.81184226 -0.5803914 0.06370317 
-0.31338504 -0.682513 -0.66027707 
0.22967151 -0.26285753 -0.93710035 
-0.13453743 -0.13983631 -0.9809921 
-0.06756698 -0.69178754 -0.7189331 
-0.17997135 -0.807917 -0.5611421 
0.45405194 -0.027396832 -0.8905539 
0.40637162 -0.6332951 -0.65863454 
0.46936694 -0.6662032 -0.5795413 
0.27256975 -0.92679715 -0.25836566 
-0.34851387 -0.9265905 -0.1413093 
-0.0063597388 -0.86189544 -0.5070462 
4.6632044e-06 -0.9310669 -0.36484858 
-0.556344 -0.52832127 -0.641372 
-0.123696536 -0.6662962 -0.7353561 
-0.3017828 -0.38461572 -0.87235194 
-0.15017122 -0.25267753 -0.95582575 
-0.05002898 -0.6656821 -0.7445566 
-0.040343717 -0.03001333 -0.9987351 
0.36700034 -0.60250396 -0.7087311 
0.15223156 0.1127604 -0.9818914 
0.16178586 0.18382464 -0.9695535 
0.69852066 -0.09487089 -0.70927316 
0.5741069 0.4078123 -0.70999324 
0.56378174 -0.13310502 -0.81512773 
0.6457894 -0.30009848 -0.70206624 
0.48318246 -0.34640187 -0.8040775 
0.47757745 -0.40294987 -0.7807377 
0.70360905 -0.32492107 -0.63194996 
0.23778744 -0.4117087 -0.879746 
0.50495535 -0.13554111 -0.85243696 
0.2677545 -0.13881166 -0.9534353 
0.42885384 -0.5758244 -0.6960681 
0.7735834 -0.17583099 -0.6088123 
0.055044685 -0.681887 -0.7293836 
-0.42039636 -0.27979612 -0.8631229 
-0.02561602 -0.13096651 -0.9910558 
0.12055307 -0.558647 -0.82059765 
0.5260887 0.20906748 -0.82433087 
-0.20017098 -0.72204685 -0.6622537 
-0.10625757 -0.80082875 -0.58939177 
-0.36524653 -0.054379195 -0.9293213 
-0.47729668 -0.21801238 -0.8512688 
-0.3459177 -0.23314849 -0.90883595 
0.0001526991 -0.28370368 -0.9589121 
0.46541405 -0.348851 -0.813445 
0.19769377 -0.79011154 -0.5802077 
-0.209682 -0.85991985 -0.46537217 
0.3738952 0.07326923 -0.9245724 
0.68960875 0.6433439 -0.33248842 
0.6055115 0.14218721 -0.78303164 
0.5242225 0.42514527 -0.73786336 
0.8110428 -0.082685925 0.5791136 
0.7439479 -0.5889794 0.31566563 
-0.26031074 -0.52962935 0.8072987 
-0.60180235 -0.72146183 0.3425301 
-0.39193898 -0.7065193 0.589249 
-0.58892024 -0.8071122 -0.0417471 
-0.40588307 -0.671691 -0.61975014 
0.0660983 -0.7894563 -0.6102376 
-0.27086204 0.29570588 -0.9160742 
0.27630746 -0.10908171 -0.95485884 
-0.016162 0.56973416 -0.8216702 
0.20977238 -0.4924942 -0.84465677 
0.4920119 0.091954835 -0.86571854 
0.32678348 0.67653006 -0.6599391 
0.14894637 0.58300966 -0.7986957 
0.7381477 -0.061961573 -0.6717878 
0.57597804 0.66334146 -0.47773156 
-0.3232824 0.73747104 -0.5929798 
-0.29236272 0.9527152 -0.082811944 
-0.66579264 0.6513248 -0.36400035 
-0.4506614 0.2292642 -0.8627528 
-0.31097424 -0.43831086 -0.84331405 
-0.10023477 -0.14518657 -0.9843139 
-0.112912305 -0.18660384 -0.97592515 
0.22703911 0.21910962 -0.94891745 
0.4372285 0.5781724 -0.6888744 
0.2947988 -0.021879597 -0.9553089 
-0.096662804 0.7115927 -0.6959111 
-0.72961295 0.36290616 -0.5796241 
-0.4283235 0.34783742 -0.83399534 
-0.46253964 0.013753897 -0.886492 
0.54718614 0.38661718 -0.74237084 
0.51210517 0.22449072 -0.82906705 
0.4248872 -0.1770508 -0.8877634 
0.26544666 -0.20023413 -0.9431037 
0.3892174 -0.18327685 -0.90272886 
-0.25784895 -0.3042907 -0.9170176 
-0.4569916 -0.25234646 -0.85292435 
-0.12258102 -0.4673485 -0.87553376 
0.23528926 0.15815637 -0.9589711 
-0.10948157 -0.5686049 -0.81529284 
-0.030916248 -0.5199501 -0.853637 
0.35273877 -0.19027868 -0.91617113 
0.25029764 -0.11467131 -0.9613541 
-0.32698604 0.054352824 -0.9434648 
-0.113774545 0.2729329 -0.95528173 
-0.34265146 0.51568913 -0.7852737 
-0.42759106 -0.027536014 -0.90355283 
0.00883856 -0.3124512 -0.9498927 
0.3150131 -0.79273224 -0.52186424 
0.19075526 -0.77831686 -0.5981934 
0.4520132 -0.36232102 -0.815112 
0.64076567 0.32179058 -0.69704396 
0.4245602 0.16682881 -0.8898971 
0.5426439 0.008608949 -0.8399188 
0.38491622 -0.555358 -0.73716825 
0.28777924 -0.5242674 -0.80145293 
-0.17157303 -0.10755902 -0.9792823 
-0.47595945 -0.77365255 -0.41823968 
-0.38988435 0.11760635 -0.91332304 
-0.006873252 -0.3084348 -0.9512207 
-0.32631424 -0.9274855 0.18245469 
-0.5108029 -0.75105214 -0.4183314 
-0.14523758 -0.21787418 -0.9651099 
-0.23146643 -0.24657129 -0.94107705 
0.26329225 -0.5047196 -0.822153 
0.20519717 0.014344397 -0.97861564 
0.55742544 -0.6270052 -0.54418874 
0.34564328 -0.45855644 -0.81869215 
0.0972702 -0.773269 -0.6265728 
0.49718288 -0.86760074 -0.008844983 
0.23757504 -0.81037 -0.5355918 
-0.5308282 -0.8049606 -0.26506558 
-0.47600326 -0.75108874 -0.45747867 
-0.61991835 -0.7845826 -0.011468477 
-0.68582255 -0.4804479 -0.5466418 
-0.6888949 0.18247147 -0.7015184 
-0.72007877 0.09249255 -0.6877004 
-0.5713192 0.22352119 -0.7897042 
-0.091108926 0.5186264 -0.85013294 
0.22365439 -0.23204772 -0.9466429 
0.07061844 -0.5857884 -0.80738163 
0.42812943 -0.23952349 -0.8713977 
0.4410746 -0.7183211 -0.5380224 
0.5205616 -0.40357503 -0.7524246 
0.3178912 -0.42426586 -0.84790546 
0.14493106 -0.69083595 -0.70833665 
0.53433377 -0.7187302 -0.44487572 
0.09668846 -0.8394047 -0.53483766 