# OOMMF: rectangular mesh v1.0
# Segment count: 1
# Begin: Segment
# Begin: Header
# Desc: Time (s) :  7.090000000000016e-07
# Title: m
# meshtype: rectangular
# meshunit: m
# xbase: 2e-09
# ybase: 2e-09
# zbase: 5e-10
# xstepsize: 4e-09
# ystepsize: 4e-09
# zstepsize: 1e-09
# xmin: 0
# ymin: 0
# zmin: 0
# xmax: 1.024e-06
# ymax: 1.024e-06
# zmax: 1e-09
# xnodes: 256
# ynodes: 256
# znodes: 1
# ValueRangeMinMag: 1e-08
# ValueRangeMaxMag: 1
# valueunit: 
# valuemultiplier: 1
# End: Header
# Begin: Data Text
-0.7671853 0.4652253 -0.44157916 
-0.54196924 0.3668404 -0.75610685 
-0.73127276 0.27397662 -0.6246415 
-0.96799815 0.18629168 -0.16815192 
-0.6354831 0.1365075 -0.759952 
-0.783764 -0.560812 -0.26684052 
-0.9354368 -0.34826955 0.060551252 
-0.4995346 -0.8600331 0.10396304 
-0.2983406 -0.73980486 -0.6030603 
-0.24491343 -0.51203966 -0.8233061 
-0.18509449 -0.3256254 -0.9272045 
-0.3578618 -0.45377022 -0.8161051 
0.7191247 -0.1428533 -0.6800388 
0.47075278 -0.8821255 -0.015703078 
0.7166899 -0.61957896 0.32012138 
0.6783231 -0.56819415 -0.46586826 
0.31384742 -0.6478586 -0.6941031 
-0.017234199 -0.7058217 -0.7081799 
-0.07703482 -0.37722427 -0.9229125 
0.68586034 -0.44041368 -0.579337 
0.08277567 -0.71027917 0.6990363 
-0.39884707 -0.1442574 -0.90559983 
-0.06324019 -0.15475823 -0.9859263 
0.3236304 -0.030787427 -0.9456826 
0.8360567 -0.44813186 -0.3165236 
-0.31944376 -0.8135796 -0.48584345 
-0.36048913 -0.80785614 -0.46627906 
-0.42322224 -0.53538746 -0.7309195 
-0.31665316 -0.5891845 -0.7433656 
-0.78185093 -0.41935784 -0.46135476 
-0.7708286 -0.6057333 -0.19725795 
-0.27551338 -0.8224617 -0.4976436 
-0.21844435 -0.28101572 -0.9345118 
-0.2424633 -0.04147162 -0.96927375 
-0.5735737 0.42402494 -0.70086807 
-0.60507625 0.0551628 -0.79425424 
-0.6678423 0.088877685 -0.7389773 
0.4452156 0.20756449 -0.871034 
0.17873625 0.4083227 -0.8951682 
-0.24513324 -0.6023381 -0.7596701 
-0.6510861 -0.24512202 -0.7183329 
-0.61843896 -0.7852273 0.030846514 
-0.8915577 -0.28120917 0.35503012 
-0.9478484 -0.3187199 0.001053403 
-0.43905264 -0.8904736 0.119539306 
-0.594529 -0.6744761 0.43774125 
-0.67150104 -0.30401826 -0.6757657 
-0.8709056 0.18643698 -0.4547139 
-0.8367577 -0.39936823 -0.3746221 
-0.71270835 0.2552716 -0.65336305 
-0.5835284 -0.7627141 -0.27885848 
0.14826 -0.9645871 -0.21815276 
0.07124438 -0.99108404 -0.112591125 
-0.08366352 -0.95270574 -0.29215112 
-0.2766953 -0.9589808 0.061607976 
-0.023526223 -0.81992245 -0.5719911 
0.25053024 -0.5762505 -0.7779268 
0.28847748 -0.9419359 -0.17186534 
0.59318054 -0.7913457 0.14801699 
0.63611734 -0.232323 -0.7357859 
0.6035595 -0.40150085 -0.68884915 
0.05965795 -0.9570028 -0.2838777 
0.38910484 -0.54793507 -0.7405165 
0.36228558 -0.89277524 -0.26777163 
0.028051708 -0.8461836 -0.5321528 
0.9572747 -0.2819699 -0.064173065 
0.9305922 -0.36604038 -0.0035589077 
0.2210113 -0.49395087 0.84093195 
-0.11249745 -0.9934523 0.019923028 
0.10263064 -0.8328483 0.5439033 
0.0893084 -0.8412501 0.53321886 
-0.12716202 -0.90988994 -0.39487973 
-0.22580902 -0.8462493 -0.48256862 
0.7203372 -0.5371576 -0.43883502 
-0.103751704 0.17292984 -0.9794544 
-0.0040915143 0.2720695 -0.96226895 
-0.21255682 -0.8251582 -0.5233868 
0.21656276 -0.93389744 -0.28449288 
-0.22301756 -0.903264 -0.36657512 
-0.2829264 -0.85747606 -0.42975274 
-0.67819047 -0.5232512 -0.51600957 
-0.6471474 -0.4245824 -0.63319033 
-0.9859784 0.13508038 -0.097979195 
-0.3603865 0.4237044 -0.8310213 
0.6175777 0.1932957 -0.76238745 
-0.20498855 -0.35878333 -0.910634 
0.3176522 -0.57571167 -0.7534277 
-0.3198526 -0.2799082 -0.90517724 
-0.066011146 -0.7473145 -0.66118354 
0.52948767 -0.57548016 -0.62327003 
0.1921736 -0.20834757 -0.9589893 
0.06097037 -0.037901804 -0.9974198 
-0.62713677 -0.01953036 -0.7786643 
-0.6972505 -0.21950501 -0.6823924 
-0.6690633 -0.7415136 0.05011913 
0.054270662 -0.7527636 -0.65604997 
0.051898446 -0.39786386 -0.9159754 
0.24460945 -0.39776778 -0.8842777 
-0.35528296 0.17915286 -0.9174303 
-0.29254425 -0.8448807 -0.44787788 
-0.0058522774 -0.66201615 -0.7494668 
-0.44836792 -0.85054684 -0.27483895 
0.059199933 -0.38998625 -0.91891575 
0.8136134 -0.065359846 -0.57772076 
0.55190104 -0.6492139 -0.52338 
0.4922006 -0.5770283 -0.65174925 
0.64836365 -0.66225886 -0.37555015 
0.5576672 -0.78179985 0.27892008 
0.74502057 -0.6428648 0.17795865 
0.21964704 -0.8973389 -0.38280302 
0.7002447 -0.10738498 -0.70578027 
0.3358471 -0.5350742 -0.7751789 
0.9376965 -0.2786985 -0.20749079 
0.674072 0.27701506 0.6847552 
0.9676762 -0.21920024 -0.12471596 
0.27449903 -0.95920813 -0.06760208 
0.44287658 -0.5453608 0.71164733 
0.117283426 -0.9256612 0.35971674 
0.20941809 -0.9433975 -0.2571872 
0.1436527 -0.64574784 -0.7499157 
0.40151697 -0.03412565 -0.9152157 
-0.14343749 -0.7195942 -0.67941886 
-0.19633923 -0.82507217 -0.5298177 
-0.42032254 -0.89792836 -0.13058941 
-0.3207543 -0.70338076 -0.63432825 
0.07465857 -0.66728854 -0.74104804 
0.07923632 -0.7134819 -0.6961791 
0.72133005 -0.69145924 0.03958643 
0.345516 -0.90975183 -0.23015323 
-0.190363 -0.3053974 -0.9330029 
-0.3799107 -0.90426576 -0.19486253 
0.16999094 -0.9847573 -0.03682661 
-0.90971327 -0.39882982 -0.115570545 
-0.4276682 -0.5941247 -0.6812605 
-0.5671464 -0.12385263 -0.8142515 
-0.69616777 -0.41877505 -0.5830763 
-0.69038063 -0.2041628 -0.69404054 
-0.458012 -0.04780925 -0.8876595 
0.42390403 -0.2847618 -0.8597768 
-0.050191466 -0.5718155 -0.8188454 
-0.37029946 -0.4452643 -0.81524116 
0.5330911 -0.6560008 0.5343004 
-0.028175738 -0.7550999 0.6550042 
-0.5698164 -0.74272156 0.35167316 
-0.8962356 -0.4433445 0.014398864 
-0.7936698 -0.41594288 -0.4439367 
-0.0665151 -0.90060925 -0.42950982 
0.3458132 -0.90669686 -0.24148293 
0.17976737 -0.5335562 -0.8264391 
0.72724086 -0.43471703 -0.5311703 
0.2156985 -0.25900584 -0.94148296 
0.3180084 -0.39713275 -0.8609044 
0.46881935 -0.24257916 -0.84933144 
-0.0057585957 -0.5907397 -0.8068416 
-0.31097683 -0.19227438 -0.9307653 
-0.47673059 -0.79727185 -0.37025094 
-0.19735488 -0.9731321 -0.118596956 
-0.050900258 -0.8824405 -0.4676623 
0.07446342 -0.99716175 0.011121348 
-0.71670735 -0.6972892 -0.010881799 
-0.45460576 -0.0698941 -0.8879462 
-0.23597813 0.09642193 -0.9669629 
-0.24470048 0.53417784 -0.8091822 
-0.37307188 0.80973214 -0.4529362 
-0.25990286 0.084950626 -0.9618908 
-0.45271358 0.6440274 -0.6166678 
-0.66657054 -0.38986912 -0.6353628 
-0.49949107 -0.5679768 -0.6541492 
-0.25321755 0.0046922853 -0.96739805 
0.5065093 0.17363009 -0.8445715 
-0.34372354 -0.075927444 -0.9359964 
0.06535181 -0.09288071 -0.9935302 
-0.095737986 -0.05378407 -0.9939526 
-0.5306564 -0.2813978 -0.79951173 
-0.1655707 0.20730138 -0.9641642 
0.47359592 -0.27993262 -0.8350717 
0.64913315 0.18625797 -0.73751897 
0.8904495 -0.15889005 -0.42644283 
0.34474257 -0.9126382 -0.21964552 
0.040672377 -0.63340586 -0.77275014 
0.099530175 -0.3458067 -0.93301207 
0.42673552 -0.18372318 -0.88551825 
-0.085635625 0.16317587 -0.9828735 
-0.39187616 -0.3237961 -0.8611558 
0.08773177 0.13119653 -0.9874668 
0.891682 -0.013463354 -0.4524622 
-0.7786483 -0.52672714 -0.34097722 
-0.32041723 -0.1539706 -0.9346796 
0.350502 0.17858097 -0.91937876 
-0.112312615 -0.10318487 -0.9883009 
-0.16023044 0.7737513 -0.6128909 
-0.6493013 -0.016279552 -0.7603571 
-0.76917225 -0.22855303 0.59677273 
-0.014441945 -0.57885545 -0.8153024 
0.01343797 -0.70659757 -0.7074881 
0.3272963 -0.2646769 -0.9070961 
-0.25762177 -0.217246 -0.9415069 
-0.55726963 -0.012379137 -0.8302394 
-0.37854567 -0.8668508 -0.32445806 
-0.60445994 -0.6305625 -0.48684627 
-0.44830137 -0.6759232 -0.5849391 
-0.45570853 -0.57734746 -0.6774952 
-0.52125835 -0.6012952 -0.6055856 
0.43891257 -0.011950051 -0.8984503 
-0.7559108 -0.31238502 -0.5753385 
0.4202151 -0.39630505 -0.8163098 
-0.25751612 -0.7087684 -0.6567594 
-0.5099029 -0.7689221 -0.38569137 
-0.8152203 -0.49905536 -0.2938703 
-0.12023881 -0.6804936 -0.72282165 
0.39257956 -0.37104955 -0.8415483 
-0.0587885 -0.31220552 -0.94819385 
0.1758788 -0.13736998 -0.9747801 
-0.5305152 -0.44413137 -0.72201174 
-0.20394881 -0.39239305 -0.89690167 
0.03825348 -0.41350234 -0.90969914 
0.20756643 -0.88432825 -0.41818643 
0.32367876 -0.9101198 0.25867793 
-0.28923857 -0.84991187 -0.44044402 
-0.66353375 -0.5150919 -0.5425896 
-0.29082623 -0.24119145 -0.9258763 
-0.27800247 -0.26868966 -0.92223674 
-0.18518731 -0.33920717 -0.92230374 
0.24411805 -0.49888003 -0.83158 
-0.49060813 -0.34598398 -0.79974914 
-0.73544014 -0.6221788 -0.2683682 
-0.8903629 -0.055932086 -0.45180243 
0.14119355 -0.12968713 -0.98145086 
0.9262971 -0.05778104 -0.37233737 
0.6231961 0.074780814 -0.77848214 
0.36111483 0.30042642 -0.8828024 
-0.04209681 0.03675745 -0.9984372 
0.23045745 0.08026538 -0.9697664 
-0.22403416 0.104943454 -0.9689146 
-0.35722455 -0.7346183 -0.57682455 
-0.0038550454 -0.9550048 -0.29656538 
0.89859146 -0.26284721 0.35134712 
0.45325658 -0.8614915 0.22889028 
-0.39300498 -0.9131529 0.10816139 
-0.55685246 -0.52394485 -0.64451313 
-0.41447806 -0.8356942 -0.36031 
-0.48123604 -0.1319181 -0.8666081 
0.046637647 -0.5234537 -0.8507769 
-0.39180925 -0.33815083 -0.8556516 
-0.24902803 -0.6745285 -0.6949794 
-0.013005676 -0.6071373 -0.7944906 
-0.5642204 -0.5993641 0.56781864 
-0.36790377 -0.57613957 0.72986984 
-0.15036398 -0.9469805 0.28393432 
-0.67784846 -0.7110185 -0.18701385 
-0.5554632 -0.82951844 -0.0579651 
-0.5922837 -0.7817994 0.19490972 
-0.8355598 0.17792048 0.5197925 
-0.52335894 -0.8000758 0.29321367 
-0.6266185 -0.7706923 -0.11568358 
0.052008893 -0.9388637 0.34033826 
-0.9394765 0.22214754 -0.26083437 
-0.9717931 -0.20275855 -0.12044578 
-0.9899043 0.1414744 -0.008640974 
-0.6071357 0.14326034 -0.7815771 
-0.48137766 -0.032869738 -0.8758969 
-0.63169366 -0.5665177 -0.52917 
-0.622124 -0.56192017 -0.5451673 
-0.53312707 -0.15693612 -0.83135223 
-0.67622954 -0.1674833 -0.71740025 
-0.35471088 -0.09859455 -0.92976314 
-0.9160221 -0.14303267 -0.37476024 
-0.6261998 0.22227912 -0.74730575 
-0.783573 -0.18071948 -0.5944359 
0.42067686 0.447938 -0.78891224 
0.0781751 -0.26282576 -0.9616712 
0.08965757 -0.7258757 -0.6819576 
0.23022276 -0.65062636 -0.72365934 
0.18515019 0.0066072247 -0.9826881 
0.3741913 -0.5255007 -0.76408756 
0.057820972 -0.7866452 -0.614692 
-0.40499842 -0.91176844 -0.068226166 
-0.7531339 0.13760692 -0.64331466 
-0.5240325 -0.38111463 -0.76167023 
0.36138114 -0.19028321 -0.9127958 
0.4271552 -0.55054677 -0.71724254 
-0.23938167 -0.83300316 -0.4988007 
-0.27522352 -0.7374944 -0.61672854 
0.509551 -0.7076903 -0.48942038 
-0.5836306 -0.63787216 -0.50248826 
-0.55269945 -0.70722294 -0.4408618 
-0.6783169 -0.16075511 -0.7169686 
-0.40370187 -0.35627228 -0.8426714 
-0.73756915 -0.38215482 -0.55673116 
-0.13924266 -0.3062739 -0.9417047 
-0.6242471 -0.07185981 -0.77791506 
-0.46283776 0.2202421 -0.8586471 
-0.5576706 -0.10263437 -0.82369274 
-0.114925064 0.54257566 -0.8321082 
-0.045534942 0.15331571 -0.9871276 
-0.44997612 -0.74638313 -0.4903405 
-0.55728287 -0.81282043 -0.16958404 
-0.73082155 -0.6287794 0.26558685 
-0.6175486 -0.61918056 -0.485025 
-0.7770128 -0.58273304 -0.23806165 
-0.53898185 -0.34605962 -0.7679462 
0.0026353772 -0.9473089 -0.32031053 
-0.8474484 -0.20369649 0.49024373 
-0.92521966 0.34683436 -0.15386578 
-0.85402435 0.027370203 -0.5195125 
-0.17531939 -0.29485482 -0.93932086 
-0.50967973 -0.52118564 -0.684538 
-0.7335122 -0.5325784 -0.42227978 
-0.25983337 -0.7128683 -0.6513874 
-0.23195396 -0.47691986 -0.8477883 
0.28246814 -0.6628275 -0.69344896 
0.17220211 -0.6906518 -0.7023864 
0.09741875 -0.97481436 -0.20061532 
0.52790445 -0.8480597 0.045953132 
0.70132476 -0.66510785 0.25646684 
0.3678684 -0.41483453 -0.8322171 
0.4675322 -0.13816309 -0.873112 
0.08141666 0.6590583 -0.74767214 
0.24944945 -0.0025435446 -0.96838456 
0.9298682 -0.10037267 -0.35393584 
0.8429989 -0.36427462 -0.39579916 
0.8697598 0.4580924 -0.1834919 
0.99183923 0.069527864 -0.10686894 
0.44945827 -0.89241683 0.039744135 
0.5329578 -0.83567977 -0.13264742 
0.7116396 -0.678253 0.18314494 
0.5867161 -0.7102175 0.3890444 
0.28876302 -0.9026249 -0.31919315 
0.29545942 -0.9542918 -0.045066424 
0.28333336 -0.6527544 -0.7025909 
0.63272434 0.30488786 -0.711831 
0.3062658 0.48210287 -0.8208399 
-0.7470642 -0.5654628 -0.34949517 
0.73852104 -0.6598084 -0.13870671 
-1.0657907e-05 -0.64050007 -0.7679581 
-0.44070542 -0.54553926 -0.7128574 
-0.33603415 -0.6700797 -0.6618718 
-0.5223318 -0.10749627 -0.8459398 
-0.579841 -0.3600228 -0.73086804 
-0.8775912 -0.0042907028 -0.47939056 
-0.3438454 0.0024816433 -0.9390231 
-0.18427363 0.3567951 -0.91582775 
-0.0801953 -0.60052556 -0.7955739 
0.02566987 -0.50451654 -0.8630204 
0.20229837 -0.5398663 -0.8170801 
0.51172113 0.26309213 -0.8178778 
0.20762719 0.29011497 -0.9341972 
-0.026987942 0.22699738 -0.9735215 
-0.23301248 0.53315794 -0.8132945 
-0.5579092 0.5629843 -0.60974264 
-0.50464255 0.6630795 -0.55286676 
0.023164677 -0.30263942 -0.95282364 
0.09196934 0.37831816 -0.92109555 
0.1386889 -0.7212151 -0.6786856 
-0.3938568 -0.36861828 -0.8420199 
-0.8096504 -0.084252134 -0.5808338 
0.035810277 -0.31978634 -0.9468127 
-0.15304828 -0.62407863 -0.7662258 
0.1492626 -0.344842 -0.92671716 
0.6778351 -0.016926492 -0.7350192 
0.75421894 -0.20071349 -0.6251944 
-0.048139825 -0.4919666 -0.8692821 
0.3072337 0.27910778 -0.90978366 
0.76106143 -0.25358903 -0.59705794 
0.4560214 -0.7778383 -0.4324491 
0.26452857 -0.58583534 -0.7660429 
0.8170395 0.12441601 -0.5629984 
0.468701 0.4183835 -0.777994 
0.39019352 0.11116538 -0.9139974 
0.8954216 -0.34558064 -0.280703 
0.81142724 -0.5803486 0.06914789 
0.4069305 -0.8151276 -0.41227987 
0.72162884 -0.51393175 -0.46381673 
-0.06707834 -0.83956283 -0.5391056 
0.35460958 -0.30057052 -0.8853866 
0.37698174 -0.38347983 -0.84310615 
0.30476508 -0.8682488 -0.3914873 
-0.17227432 -0.89219373 -0.41750702 
0.29171047 -0.863784 -0.41083127 
0.226703 -0.88814896 -0.39974627 
-0.40145043 -0.16874957 -0.9002007 
-0.17521892 -0.6533737 -0.73647887 
0.43576264 -0.79220754 -0.42722142 
0.19240016 -0.771498 -0.606443 
0.16649103 -0.89478976 -0.41428497 
-0.8497021 0.09216492 -0.51914555 
-0.65287244 -0.6799865 -0.3337306 
0.0779451 -0.6694715 -0.73873717 
-0.5095074 -0.85496026 0.097186044 
0.008573994 -0.6020267 -0.7984299 
0.17380466 0.76734 -0.6172369 
0.2251618 0.38985604 -0.8929246 
-0.9828158 -0.047924176 -0.17825918 
-0.87992525 -0.45376042 0.14083035 
-0.7440401 -0.007854828 -0.6680889 
-0.80394757 -0.3849551 -0.45329657 
0.09470508 -0.582392 -0.8073727 
0.6287054 -0.6451238 0.43421766 
0.18258645 -0.91482234 0.36022532 
-0.2385876 -0.9697637 -0.05132588 
0.18684988 -0.95894426 0.21333824 
0.18257123 -0.8981931 -0.39989638 
0.22755712 -0.9302379 -0.28788048 
-0.28789917 -0.43693727 -0.8521736 
0.24776937 -0.2469511 -0.9368167 
0.60000753 -0.21841507 -0.7696012 
0.79465854 -0.1201321 -0.5950514 
0.8064507 -0.2547143 -0.533627 
-0.4778068 0.22615786 -0.84885406 
0.36444297 -0.2212059 -0.9045714 
-0.4009266 -0.08338815 -0.9123072 
0.015507437 -0.8905466 -0.45462763 
0.15096715 -0.65662026 -0.7389579 
-0.3229477 -0.5166773 -0.7929371 
0.17896064 -0.6333405 -0.75289637 
-0.061729006 -0.7829175 -0.61905557 
-0.1922987 -0.25826332 -0.94674253 
-0.9114093 0.044324946 -0.40910673 
-0.17559572 0.56607026 -0.80543816 
0.31693777 0.80430084 -0.5026438 
-0.01366136 0.31682155 -0.9483868 
-0.45327258 -0.113562375 -0.8841084 
0.131733 0.308553 -0.9420411 
0.50188744 0.34387916 -0.7936349 
0.57028997 0.30844083 -0.7613368 
0.24343018 0.071832314 -0.9672548 
-0.08841304 0.012240799 -0.99600875 
0.016225003 -0.28347003 -0.9588438 
-0.27962196 0.13230129 -0.9509511 
-0.47158936 -0.3230564 -0.82051086 
-0.46608928 -0.45167837 -0.76075464 
0.3249631 -0.51951164 -0.7902574 
0.19453378 -0.6917447 -0.6954466 
0.35788167 -0.5305893 -0.7683721 
-0.26202515 -0.5086824 -0.82011276 
0.12998296 0.19917913 -0.9713044 
0.12169521 -0.4518932 -0.8837323 
0.8012169 -0.5537446 -0.2267561 
0.69411385 0.23372218 -0.680867 
0.76054144 -0.015398467 -0.6491068 
0.50678074 0.6199196 -0.59906024 
0.14811349 0.2711335 -0.9510779 
0.036639575 0.41384965 -0.9096076 
0.04010132 0.625951 -0.7788307 
0.115327284 0.5301972 -0.8399944 
0.011833922 0.35644162 -0.9342427 
-0.24689388 0.7193844 -0.6492531 
-0.4491644 -0.18705155 -0.8736493 
0.24682926 -0.5588601 -0.7916758 
0.019902991 0.262171 -0.9648162 
0.3222117 -0.74058133 -0.58967704 
0.3953867 -0.35702115 -0.84628916 
-0.7318518 0.0411851 -0.6802182 
-0.39786902 -0.022102237 -0.91717595 
-0.55488956 -0.23778595 -0.79721725 
0.021876669 -0.17976663 -0.983466 
0.028237697 -0.42648107 -0.9040557 
-0.4449145 -0.59504133 -0.6693108 
-0.030740019 -0.5345897 -0.8445526 
-0.282563 -0.662416 -0.69380355 
-0.4168052 0.12555319 -0.9002832 
0.43350735 -0.1829039 -0.8823931 
-0.29651847 -0.5388735 -0.7884747 
-0.027552566 -0.83114755 -0.555369 
-0.7697949 -0.5053206 -0.38995785 
-0.22221187 -0.35993928 -0.9061268 
-0.2099938 -0.8283767 -0.5193212 
0.20310894 0.18953384 -0.96063715 
0.36049643 0.6292428 -0.6885462 
-0.25611427 0.438342 -0.8615462 
-0.2523533 -0.2335875 -0.939018 
0.088063955 -0.6056406 -0.7908504 
0.13931227 -0.5992212 -0.78836936 
0.5008174 -0.61661506 -0.6074272 
-0.698164 -0.26233125 -0.66614515 
-0.8078658 -0.34156963 -0.4802948 
0.28883192 0.23368879 -0.92842114 
-0.16064948 0.3129335 -0.93608993 
-0.85740584 0.26850134 -0.43904728 
-0.13544431 -0.061773196 -0.98885745 
-0.5914358 0.035867713 -0.8055541 
-0.138533 0.5578686 -0.8182856 
0.7733309 0.01995776 -0.6336885 
0.035654563 0.033909846 -0.9987888 
0.46788174 -0.63356185 -0.6161868 
0.018644663 -0.5052904 -0.86274797 
0.53855854 -0.24472629 -0.8062654 
0.6047053 0.24367937 -0.7582558 
0.6280129 0.063557684 -0.7756032 
0.35092923 -0.20908718 -0.9127603 
-0.40486455 -0.7541397 -0.51706684 
0.24051155 -0.8465774 -0.4748272 
0.48938042 -0.8112929 -0.3198603 
-0.24423826 -0.515477 -0.82135946 
-0.86630553 -0.3363708 -0.36928228 
-0.60222965 -0.41018382 -0.68488586 
-0.36891934 -0.19143707 -0.9095331 
-0.5058734 -0.38223025 -0.77329963 
0.39169532 -0.4973707 -0.7740783 
0.10382466 -0.38755813 -0.91597986 
-0.02106844 -0.70739007 -0.7065094 
-0.23260133 -0.21284416 -0.94899637 
0.06798048 -0.8990387 -0.43255997 
0.41429624 -0.7503637 -0.51508546 
-0.009320242 -0.9602689 -0.2789208 
0.036790997 -0.19751303 -0.97960967 
-0.37077016 -0.5021692 -0.7812526 
-0.79397005 -0.4727819 -0.38221583 
-0.84184605 -0.33892375 -0.42003074 
-0.9337269 -0.21956262 -0.2827478 
-0.9180941 0.18019938 0.35303164 
-0.58275366 -0.7045982 0.40489462 
-0.657957 0.48134977 -0.5791331 
-0.9014982 -0.41622752 -0.11855652 
-0.63696814 0.0043400787 -0.770878 
-0.53123844 0.6233985 -0.57372475 
-0.7983861 -0.13543448 -0.58671725 
-0.41734937 0.11506802 -0.90143156 
0.025209447 0.18870191 -0.98171085 
0.27077085 -0.10099379 -0.95733136 
-0.2051613 0.38104722 -0.90150535 
-0.15227193 -0.19384423 -0.96914274 
-0.23961183 0.068433166 -0.968454 
-0.36985207 -0.3536777 -0.8591401 
0.17843008 -0.34281617 -0.92230135 
0.2629071 0.22464645 -0.9383037 
-0.11572233 -0.13563314 -0.9839777 
0.12890096 -0.07213298 -0.9890306 
-0.355472 -0.08093886 -0.9311759 
0.680462 0.22989309 -0.6957878 
0.2540492 -0.5957228 -0.7619538 
0.09902404 -0.1490582 -0.98385775 
0.0013456057 -0.98551846 -0.16956356 
-0.27427062 -0.0081951 -0.96161765 
0.3016158 0.06908737 -0.9509232 
0.6247467 -0.31790966 -0.7131796 
0.24000075 -0.28393802 -0.9283205 
-0.43374476 -0.67516834 -0.5966685 
-0.06673459 -0.58433735 -0.8087623 
0.0022931236 -0.4675774 -0.8839492 
-0.34720254 -0.43479297 -0.83090645 
-0.6141555 -0.6164893 -0.49270082 
-0.26750746 -0.025664462 -0.963214 
-0.3400206 -0.30735642 -0.8887733 
-0.21020895 -0.81761736 -0.53601676 
0.31949154 -0.23056309 -0.9191115 
0.06591313 -0.071671374 -0.9952481 
-0.077561274 0.114185765 -0.9904272 
-0.29665124 -0.15501268 -0.9423211 
-0.3956967 0.008414162 -0.9183427 
-0.5274267 0.76007545 -0.3796138 
-0.22202614 -0.4586488 -0.8604334 
-0.3248895 -0.7689713 -0.55057234 
-0.60924375 -0.69709414 -0.37799713 
-0.71120036 -0.593507 0.37675408 
-0.79521936 -0.5051088 0.33539742 
-0.7012383 0.13495432 -0.7000373 
-0.014596363 -0.66575885 -0.74602425 
-0.6757969 0.56337935 -0.47529173 
-0.5033426 0.55452114 -0.6626858 
-0.9861915 -0.1651666 0.012094329 
-0.70983887 -0.15703577 -0.6866358 
-0.21009773 -0.54427236 -0.81217396 
-0.6461894 -0.7592371 -0.07744938 
-0.29018742 -0.65670514 -0.6960817 
0.2964421 -0.2242443 -0.9283516 
-0.579683 -0.8119323 -0.06880116 
0.40809715 -0.15154503 -0.9002726 
0.8503406 -0.082871675 -0.51966643 
0.17044216 -0.44224593 -0.8805499 
0.44687933 0.008466283 -0.89455426 
0.17262918 -0.7557055 -0.63175035 
0.06382985 -0.38027987 -0.92266625 
0.31165177 -0.19305907 -0.930377 
0.36414868 -0.3713548 -0.8541028 
0.5713868 -0.35357395 -0.7406096 
0.86491233 -0.13393244 -0.4837239 
0.9668218 -0.0694867 -0.2458195 
0.97916675 -0.0066894027 -0.20294785 
0.15251666 -0.9233938 -0.35225368 
0.15030093 -0.7450352 -0.649871 
0.26518846 -0.956134 -0.124430306 
0.061281256 -0.9628394 0.2630302 
0.3660175 -0.6498046 -0.6661721 
0.46153042 -0.3297141 -0.82357657 
0.5879359 0.02652077 -0.80847275 
0.76296157 -0.16749029 -0.62436897 
0.1069574 -0.19480717 -0.9749925 
-0.6844944 -0.31739685 -0.65629774 
0.122536 -0.1639354 -0.978831 
-0.1656569 0.024899835 -0.9858691 
-0.4629687 0.08109107 -0.8826575 
-0.025377797 -0.72776353 -0.6853585 
-0.1803741 -0.06358034 -0.98154104 
-0.6270757 -0.14030448 -0.7662186 
-0.19767931 0.08687004 -0.9764101 
0.10069999 -0.047941387 -0.9937612 
0.04655125 -0.56561905 -0.8233518 
0.37169132 -0.8782796 -0.3007834 
0.5611191 -0.15856743 -0.81240493 
0.36362854 -0.046314303 -0.9303921 
0.026615834 0.15453325 -0.987629 
0.26304796 -0.14743185 -0.9534515 
-0.0014408368 0.3688117 -0.9295031 
-0.91361046 0.36315277 -0.18285516 
-0.68602884 0.0617291 -0.7249511 
-0.03933228 0.44623816 -0.8940496 
0.23939283 -0.49800593 -0.8334753 
0.18172133 -0.8809361 -0.4369544 
-0.44427344 -0.48097792 -0.7558316 
-0.037524696 -0.37889665 -0.924678 
-0.16811517 -0.42623284 -0.88885474 
-0.3015679 0.20398791 -0.93136764 
-0.4148893 0.064766385 -0.90756387 
0.26205996 -0.74239564 -0.616582 
-0.32933187 -0.87457967 -0.3558806 
-0.0683777 -0.48370984 -0.8725534 
0.2915305 -0.38850704 -0.8741123 
0.22831975 -0.7881109 -0.57162184 
0.746903 -0.20967269 -0.63100976 
-0.070098825 -0.8908521 -0.44885254 
-0.044573367 -0.6485536 -0.7598628 
0.066883884 -0.37485805 -0.9246665 
0.2050168 -0.816428 -0.5398273 
0.34745154 -0.8738414 -0.34011555 
0.49185905 -0.71190447 -0.5012652 
0.18853271 -0.96172136 -0.1988657 
-0.5681699 -0.6967451 -0.43786898 
-0.28610978 -0.84972405 -0.44284356 
0.7232258 -0.6851777 0.086464554 
0.42504746 -0.8374507 -0.3435276 
0.63840187 -0.7271916 0.2522607 
-0.07571359 -0.6907762 -0.71909374 
0.1470831 -0.94306093 -0.29833332 
0.23120256 -0.91998905 -0.31648955 
0.45918807 -0.6446477 -0.61120844 
0.23885196 -0.44763 -0.8617292 
0.37363657 -0.013870586 -0.92747146 
-0.10305664 -0.8001949 -0.5908193 
0.16239844 -0.94353217 -0.28874525 
-0.25053114 -0.741443 -0.62249225 
-0.4741598 -0.7986562 0.37056822 
-0.9195983 -0.32216617 0.22482881 
-0.6832529 -0.18323235 -0.7068179 
-0.4934296 -0.8627644 -0.110294975 
0.27992928 -0.63328433 -0.7215197 
-0.057840772 0.09112724 -0.99415815 
0.38083714 0.9227173 -0.059632786 
0.10898282 -0.84200835 -0.5283415 
-0.6808068 -0.32626137 -0.6557863 
-0.5697481 -0.78191364 -0.25297892 
-0.030410258 -0.30613053 -0.9515038 
-0.049913283 -0.9686706 0.24328192 
0.16313644 -0.9395778 -0.3009653 
0.42455128 -0.70621455 -0.56658393 
0.018623848 -0.8191179 -0.57332283 
-0.20464405 -0.93841887 -0.2783719 
0.5521253 -0.7113147 -0.43495893 
0.19557744 -0.8221335 -0.53464556 
-0.7207721 -0.6609295 -0.20894943 
-0.60451907 -0.38004524 -0.7000875 
-0.05067275 -0.61411273 -0.78758997 
-0.110898 -0.29968503 -0.94757086 
0.0341027 -0.6599194 -0.75056213 
-0.26704848 -0.03574191 -0.96302015 
0.12754764 0.276106 -0.95262647 
0.49161726 -0.8236828 -0.28259373 
0.060153995 -0.3128489 -0.9478962 
-0.4602504 -0.62474716 -0.63076186 
0.15578292 -0.6039923 -0.781617 
0.007081559 -0.5332077 -0.8459547 
0.22795223 -0.65490824 -0.72050893 
-0.122627005 -0.08600704 -0.9887191 
-0.1751172 0.11422991 -0.9778986 
-0.16086254 0.37024698 -0.91489923 
-0.18579455 0.14266472 -0.97217655 
-0.14792603 0.015757719 -0.98887295 
-0.006822897 0.013806913 -0.9998814 
0.42569643 0.1671156 -0.8893002 
0.47361755 0.028097201 -0.88028234 
0.09968545 0.28295434 -0.953939 
0.52370954 0.046958555 -0.8506018 
0.14863552 0.3764377 -0.91444093 
-0.29742727 0.1837144 -0.93690234 
0.3454675 0.37907422 -0.8584609 
0.19599745 0.2533409 -0.94731385 
0.122391015 -0.43180358 -0.89362526 
-0.24303903 0.052571457 -0.9685909 
-0.024895247 -0.19180846 -0.9811166 
0.49983144 -0.17442295 -0.848378 
-0.5475541 -0.4825607 -0.68360794 
0.31330895 -0.20456804 -0.9273562 
-0.118101545 -0.53673744 -0.8354431 
0.6089967 -0.64599776 -0.46022823 
0.858956 -0.29256305 -0.42023984 
0.8560886 0.41138712 -0.31284657 
0.19933571 0.25192937 -0.9469936 
-0.3893129 -0.008513199 -0.9210663 
-0.16228539 0.6659211 -0.728157 
-0.47016704 0.80953693 -0.3515579 
-0.041869074 0.36358267 -0.9306206 
-0.17276941 0.49437785 -0.8519046 
-0.36240327 0.73588103 -0.57196426 
-0.3269392 0.102158114 -0.9395076 
-0.08848955 -0.45634913 -0.88538986 
-0.21639119 -0.24628995 -0.9447307 
-0.6449484 -0.2922477 -0.70613945 
-0.34015092 -0.031987976 -0.9398267 
-0.41482124 0.7892076 -0.45285168 
-0.021063576 0.20340627 -0.9788678 
-0.22007474 0.050700705 -0.97416455 
0.17008059 -0.4268368 -0.8881909 
-0.30256087 -0.47960287 -0.8236735 
-0.27770588 -0.75136197 -0.59861064 
0.3743841 -0.75444007 -0.5391259 
-0.32987073 -0.19172148 -0.9243528 
-0.5300417 0.64706516 -0.5480535 
-0.51803005 -0.0044040238 -0.85535115 
-0.518491 -0.5565108 -0.64920163 
-0.4773838 -0.48595425 -0.7320883 
-0.1933277 -0.20971423 -0.9584594 
0.24783087 -0.10552704 -0.963039 
0.26176858 -0.09744267 -0.96019906 
0.5421885 0.100086614 -0.8342748 
0.34870204 -0.07856756 -0.9339347 
-0.0020387878 0.060417425 -0.99817115 
-0.19937132 -0.20076479 -0.9591375 
0.21554734 -0.29386497 -0.9312265 
0.22447436 0.018344902 -0.97430736 
-0.137082 -0.34100446 -0.93001324 
-0.045364182 0.158127 -0.9863762 
-0.46412483 -0.48309132 -0.7424358 
0.010228452 0.19872688 -0.98000157 
-0.08573705 -0.21169458 -0.973568 
0.43137193 0.20233022 -0.8791933 
0.34302318 -0.8575066 -0.3834288 
-0.5219366 -0.26158494 -0.811884 
-0.38273147 0.2182906 -0.8977003 
0.61919576 -0.43450144 -0.6540682 
0.7600708 -0.039959054 -0.64861065 
0.3265682 -0.8156301 -0.4775991 
0.15938883 -0.8140095 -0.55855507 
0.53844815 -0.32013708 -0.779478 
0.8143094 -0.13737494 -0.56394017 
0.59398264 0.03900972 -0.8035316 
0.6209884 0.08655489 -0.77902615 
-0.17943747 -0.13683431 -0.9742066 
0.2391742 0.5825464 -0.7768111 
0.086294085 -0.4541498 -0.8867364 
0.13593797 -0.19240242 -0.97185504 
-0.9382181 -0.3014873 -0.16985923 
-0.59137446 -0.68606514 -0.4237818 
-0.39673072 -0.25464815 -0.88190645 
-0.54520714 -0.424369 -0.72295237 
0.14051612 -0.19399926 -0.97088593 
0.18681262 -0.5317904 -0.82601464 
-0.10427148 -0.00971993 -0.99450135 
0.06889372 -0.56724423 -0.82066303 
0.085552804 -0.7701802 -0.6320628 
0.18955904 -0.9242247 -0.33147606 
0.37923154 -0.5712298 -0.72792864 
-0.39779118 -0.38302186 -0.83370054 
0.14529248 -0.291371 -0.9455121 
0.21828128 -0.4290981 -0.87648624 
-0.42169267 0.020591961 -0.906505 
-0.64432013 -0.7647284 0.006481789 
-0.89420074 -0.43222472 0.116562285 
-0.5325126 -0.8353324 -0.1365656 
-0.97087055 -0.108260065 -0.21375267 
-0.7872638 -0.21701933 -0.57716405 
-0.3589054 -0.13448595 -0.92363435 
-0.3929479 0.29312876 -0.8715892 
-0.5215149 -0.19360667 -0.83098656 
0.07485154 0.097659186 -0.9924012 
-0.51552504 -0.039143946 -0.85598004 
0.36178753 0.06580418 -0.92993534 
0.54575324 -0.02997122 -0.8374099 
0.01829588 -0.12351831 -0.9921737 
0.51127005 -0.19527537 -0.8369411 
-0.014168358 -0.16956452 -0.98541725 
0.38496295 -0.21723652 -0.89700156 
0.36869323 -0.6844156 -0.6289998 
0.17063424 -0.52277803 -0.8352169 
-0.2774775 -0.59648633 -0.75313365 
-0.46942264 -0.3015765 -0.82987595 
0.018377565 0.24041429 -0.97049636 
-0.4287296 0.20275046 -0.88038814 
0.45805272 -0.5569711 -0.69279945 
0.48676395 -0.83581245 -0.25392613 
0.6150256 -0.43313497 -0.6588913 
0.010675177 -0.6927095 -0.72113776 
0.25049868 -0.9325439 -0.26002398 
-0.32417408 -0.26763546 -0.9073491 
-0.28366482 -0.4546227 -0.8443059 
0.25214356 -0.37648383 -0.89145035 
0.03463731 0.24579662 -0.9687024 
-0.12859216 -0.41470405 -0.90082437 
-0.5106867 -0.046084754 -0.85853094 
-0.9212485 0.12180041 -0.36941302 
-0.7447778 -0.17363694 -0.64432627 
-0.85950476 -0.41378197 -0.30005994 
-0.12250622 -0.07521416 -0.9896136 
0.32474577 -0.48613262 -0.8113048 
0.15945964 0.031803805 -0.9866921 
-0.45268157 0.08280032 -0.88781965 
-0.93194264 -0.121873274 -0.34151125 
-0.85907495 -0.069801345 -0.5070681 
-0.41037723 -0.674827 -0.6133508 
-0.6192301 -0.12769043 -0.77475756 
-0.10959585 -0.4558071 -0.88330555 
-0.23239659 -0.07846521 -0.9694509 
-0.64939433 -0.2655025 -0.71259767 
-0.4676216 -0.17288989 -0.866856 
0.02648054 -0.35081768 -0.9360693 
-0.84831417 -0.004960088 -0.5294702 
-0.42554393 0.40175644 -0.8108664 
-0.32199857 0.06386504 -0.94458365 
-0.26514322 -0.54428095 -0.79590046 
0.01858968 -0.3047287 -0.95225775 
0.32334766 -0.17681304 -0.92961466 
-0.063609265 -0.12880561 -0.9896277 
-0.3170869 0.60834086 -0.7275833 
-0.65325403 0.026103592 -0.75668865 
-0.709548 -0.0088573005 -0.7046015 
-0.028531559 -0.006253437 -0.99957335 
-0.19306287 0.28177044 -0.93985754 
0.7614809 -0.2707851 -0.58891624 
0.4178673 -0.017931858 -0.9083311 
0.09089624 -0.47547543 -0.87502056 
0.3224583 -0.73706126 -0.5939372 
0.40090922 -0.13988891 -0.9053744 
0.90694124 -0.24746153 -0.3409112 
-0.34383804 0.29435983 -0.8916993 
0.22151951 -0.36908218 -0.90261155 
0.8388395 -0.34427813 -0.42168826 
0.7112839 -0.54193705 -0.4476377 
0.30277827 -0.32353815 -0.8964644 
0.0020043086 -0.7110531 -0.7031356 
0.2710078 -0.8770571 -0.39664334 