# OOMMF: rectangular mesh v1.0
# Segment count: 1
# Begin: Segment
# Begin: Header
# Desc: Time (s) :  7.120000000000016e-07
# Title: m
# meshtype: rectangular
# meshunit: m
# xbase: 2e-09
# ybase: 2e-09
# zbase: 5e-10
# xstepsize: 4e-09
# ystepsize: 4e-09
# zstepsize: 1e-09
# xmin: 0
# ymin: 0
# zmin: 0
# xmax: 1.024e-06
# ymax: 1.024e-06
# zmax: 1e-09
# xnodes: 256
# ynodes: 256
# znodes: 1
# ValueRangeMinMag: 1e-08
# ValueRangeMaxMag: 1
# valueunit: 
# valuemultiplier: 1
# End: Header
# Begin: Data Text
-0.78356797 -0.5283373 0.3269265 
0.010789134 -0.96728474 -0.2534637 
-0.3213416 -0.6260402 -0.71050215 
-0.18388583 -0.8806204 -0.43668503 
0.012947638 -0.911885 -0.41024157 
0.513613 -0.8579999 -0.0061536483 
-0.16950095 -0.9846977 -0.04049538 
-0.6589849 -0.7141519 0.2360637 
-0.22014186 -0.8303061 -0.5119858 
0.36564612 -0.12238914 -0.9226721 
-0.20150504 -0.95387083 0.22254495 
-0.31011763 -0.8488082 -0.4281958 
0.4444597 -0.80670947 -0.38945523 
0.28036624 -0.33171707 -0.9007545 
0.5299959 -0.73097867 -0.42985412 
-0.6357877 -0.66673684 -0.38889074 
0.15800923 -0.94982 -0.26995426 
0.49659675 -0.86298954 -0.09295656 
0.40533084 -0.8449238 -0.3490139 
0.66073513 0.20476198 -0.72215074 
0.570067 0.1500335 -0.8077831 
0.106358 -0.23816203 -0.96538436 
0.5255338 -0.31774685 -0.7892093 
0.3801206 -0.5891871 -0.71299857 
0.86282 0.08186266 -0.49883878 
0.7824739 0.606727 -0.14006054 
0.99357724 0.03646003 0.107121676 
0.42502925 -0.5773533 -0.69714665 
0.4599499 -0.38410467 -0.8005684 
0.8948142 -0.41032088 -0.17591006 
0.43493977 -0.7838775 -0.4431293 
-0.35342082 -0.51525545 -0.78077245 
-0.8382616 -0.36462379 -0.4054219 
-0.38383427 -0.0994098 -0.9180354 
-0.6447458 0.19473894 -0.7391749 
0.13245463 -0.113059595 -0.98471993 
-0.3091736 -0.17328274 -0.9350855 
-0.05326416 -0.6552884 -0.7534986 
0.19102623 -0.5000525 -0.84466356 
-0.5855512 -0.20925617 -0.78316134 
0.33886138 -0.38408586 -0.8588662 
0.31968695 -0.8624174 -0.39247504 
0.09717436 -0.9430429 -0.31816256 
0.16752352 -0.8485478 -0.50189894 
0.538136 0.011678349 -0.8427772 
0.95992446 0.1484921 -0.2376872 
0.6265345 0.38763967 -0.67615825 
0.51340944 -0.803082 -0.30244026 
0.23269975 -0.6988382 -0.6763698 
-0.3313986 -0.4519664 -0.82819164 
-0.028566828 -0.6126869 -0.7898094 
-0.13436961 -0.66473323 -0.7348977 
0.17842437 -0.81085795 -0.55738163 
0.23272447 -0.30214503 -0.9244175 
-0.27790403 -0.9133323 -0.29764682 
0.3290408 -0.8020382 -0.49846464 
0.91648465 -0.3259935 0.23191436 
0.32439584 -0.739415 -0.5899431 
0.5675989 -0.30706576 -0.76389945 
0.48955768 -0.056916073 -0.87011135 
0.10141783 -0.70599306 -0.70091957 
0.5378627 -0.63289416 -0.55691 
0.46978602 -0.8797553 -0.07301781 
0.06390083 -0.9230417 -0.37935564 
-0.6812807 -0.72058433 0.1288988 
-0.72534764 -0.64487445 -0.24084823 
-0.58797145 -0.4825381 -0.6491892 
-0.5404807 -0.3723333 -0.7544857 
-0.5349787 -0.7500096 -0.38895154 
-0.7775264 -0.5438374 -0.3157431 
-0.5647211 -0.8163908 0.120814554 
-0.03762892 -0.7460753 -0.66479754 
-0.33667615 0.12509876 -0.93327355 
-0.033003844 -0.36900744 -0.9288403 
0.8079798 -0.15193257 -0.56928474 
0.060047146 -0.9499027 0.30672356 
0.75184494 -0.6335916 -0.18245791 
0.53779054 -0.3704235 -0.7573426 
-0.13742095 -0.8261027 -0.546507 
0.0069944076 -0.16206904 -0.98675466 
0.07945222 -0.55038494 -0.83112204 
0.71390104 -0.33877182 -0.61284506 
0.33539703 -0.9420373 0.008647964 
0.22351412 -0.19829749 -0.9543164 
-0.706254 -0.64473206 -0.2924482 
-0.918545 0.11629786 -0.37782276 
-0.9677001 0.054026466 0.24624726 
-0.33014354 -0.5422019 -0.77267224 
0.50166416 -0.3717704 -0.78110164 
-0.102700405 0.44141918 -0.89140445 
-0.0063164723 0.11728196 -0.99307865 
-0.0039954553 -0.27856004 -0.9604105 
0.27541497 -0.145549 -0.9502432 
-0.115265585 -0.92641395 -0.35842884 
-0.6448712 -0.46340606 -0.6077797 
-0.13882911 -0.48864993 -0.861364 
-0.007899452 -0.2480189 -0.96872306 
0.12730029 -0.80736107 -0.5761622 
0.72241277 -0.3298981 -0.60769 
-0.0026115894 -0.96710277 -0.25437292 
-0.92482173 -0.31190887 0.21775578 
-0.52465075 -0.26911947 -0.807661 
0.56419295 -0.78788346 -0.24683215 
0.5204908 -0.8435837 0.13212115 
0.6604387 -0.58626896 -0.46915826 
0.5126259 -0.8156256 -0.26827136 
0.34816396 -0.9345792 -0.07310029 
-0.49022236 -0.8388331 -0.2367305 
0.40392923 -0.43418255 -0.8051874 
0.40310457 0.3080212 -0.8617596 
0.47123206 0.07292379 -0.87898946 
-0.2680625 0.5434964 -0.79545844 
-0.3500777 -0.20117272 -0.9148635 
0.40453255 0.16319768 -0.8998444 
-0.32991666 -0.068168856 -0.94154555 
-0.8376524 -0.48170763 -0.25748056 
-0.17902367 0.3126988 -0.9328291 
0.52596146 -0.3666374 -0.7674254 
-0.3250422 -0.864143 0.38419324 
0.30618608 -0.94781744 0.08883854 
-0.1362289 -0.7536466 0.6430075 
-0.7161065 -0.2606431 -0.64750046 
-0.1948008 -0.6913933 -0.69572115 
0.27745622 -0.5943824 -0.7548031 
0.3929374 -0.39373097 -0.83100915 
-0.47007686 -0.15257175 -0.86933863 
-0.6743342 -0.44272527 -0.59098876 
-0.3067592 -0.664791 -0.6811401 
-0.4453389 -0.6295838 -0.6366299 
-0.19969597 -0.7211419 -0.6633823 
0.18577887 -0.31827587 -0.9296165 
0.60786134 -0.45620668 -0.64990777 
0.0100206155 -0.9417339 -0.33620974 
-0.78153247 -0.61130935 0.124530755 
-0.6802374 -0.71843517 -0.14535493 
-0.37828076 -0.6756022 -0.6328233 
-0.36238608 -0.6687757 -0.6491653 
0.17826533 -0.67885375 -0.71230555 
-0.19623184 -0.21487664 -0.9567242 
-0.7689623 -0.1627417 -0.6182332 
-0.5694925 -0.8185991 -0.07465819 
0.54176956 -0.7792657 -0.31500912 
0.15569408 -0.9771961 -0.14438519 
0.60065377 -0.5784069 0.55196065 
-0.7360742 -0.6705239 0.09269634 
0.2399589 -0.91249436 -0.33132142 
0.76526564 -0.63992864 0.06971254 
0.6080019 -0.46258986 0.64524764 
0.8705227 -0.3642506 0.33092585 
0.8460742 -0.53279334 -0.017021203 
0.56756204 -0.60392815 -0.55959296 
0.47264954 -0.84887004 -0.23669006 
0.07183086 -0.97397065 -0.21499217 
-0.45076713 -0.8778121 0.16203399 
-0.6954625 -0.7183228 0.018555535 
-0.59054154 -0.57808596 -0.5630962 
-0.85392743 -0.31303617 -0.4157117 
-0.8130643 -0.5758548 0.08554447 
0.37725633 -0.855233 0.35532278 
-0.041984107 -0.9863768 0.15905344 
-0.595741 -0.68443 0.42029557 
-0.66006404 -0.7418003 0.11852385 
0.54806924 -0.5358649 -0.64223754 
-0.08925219 -0.76149654 -0.6419947 
0.7126842 -0.6613803 -0.23378944 
0.9885705 -0.0315389 0.14742386 
0.33174056 -0.56255245 0.75728667 
-0.5723799 -0.31570563 0.7567768 
-0.7833038 -0.06587987 0.61813843 
-0.56427866 -0.68372196 0.46272454 
-0.51419336 -0.4585532 -0.7247994 
-0.011284798 -0.4763075 -0.87920636 
0.4785534 -0.44272012 -0.75827795 
-0.29031384 -0.5972761 -0.7476491 
-0.26329935 -0.849099 -0.45793492 
0.3550438 -0.9247551 -0.13701065 
-0.34741247 -0.6167941 -0.7063071 
-0.4192131 -0.5359632 -0.73280555 
0.39775538 -0.6464074 -0.6511131 
0.08876277 0.93008274 -0.3564651 
0.64592737 -0.0045959656 -0.763385 
0.5103917 -0.15818845 -0.84526724 
0.77408206 -0.18825284 -0.6044484 
0.9325185 -0.15772948 -0.3248551 
0.6869455 -0.7244968 0.056660816 
-0.09238068 -0.69995326 -0.70818883 
0.08234936 -0.62935257 -0.7727445 
-0.15206687 -0.33678508 -0.9292209 
0.1590929 -0.5225852 -0.8376122 
0.12365561 0.15685967 -0.9798492 
-0.2609008 0.014454811 -0.9652574 
-0.4819266 -0.24385892 -0.84159356 
-0.36771467 -0.11681831 -0.92257226 
-0.017822277 -0.8055134 -0.5923096 
-0.5880735 0.043632917 -0.8076298 
-0.26945135 -0.31499442 -0.910041 
0.48507574 0.5191945 -0.7036609 
0.37379485 0.21622096 -0.9019568 
-0.24961473 -0.78204715 0.57104725 
-0.8414659 -0.42974415 0.3274984 
-0.6316575 -0.6570132 -0.41151246 
-0.4696368 -0.8640051 -0.18148457 
0.017840518 -0.70774955 -0.7062382 
0.44011495 0.4119823 -0.7978531 
0.2539078 0.3608797 -0.8973833 
0.06137185 -0.1738437 -0.982859 
0.14651437 0.40458927 -0.9026856 
-0.37557536 -0.7722877 -0.512362 
-0.002742531 -0.421825 -0.90667313 
0.32546505 -0.87335 -0.36239812 
-0.8087863 -0.4853757 -0.33207723 
-0.5608176 -0.69109094 -0.4559352 
-0.67291576 -0.34492442 -0.65437883 
-0.75972986 0.096198484 -0.64308345 
-0.38204816 0.25179484 -0.88917863 
-0.6090698 -0.23194315 -0.7584434 
-0.64449614 0.24833708 -0.72315526 
0.2395272 -0.08221278 -0.96740264 
0.26778337 -0.55399704 -0.78827614 
-0.08957566 -0.63136107 -0.7702983 
0.727055 -0.54553574 0.4168715 
0.74816763 -0.63937896 0.17731276 
-0.48249817 -0.74944776 0.45334712 
-0.7322858 -0.55003256 0.4015243 
-0.48985922 -0.778447 -0.39250246 
-0.39213365 -0.5546082 -0.73392165 
0.62796575 -0.7782013 -0.00786152 
-0.63866335 -0.3309744 -0.69466907 
-0.12914284 -0.77333564 -0.62070465 
0.08273663 -0.76017404 -0.6444301 
-0.09836761 -0.85829026 -0.50364846 
-0.70729625 -0.46382946 -0.53347385 
0.5295537 -0.65624285 -0.5375112 
0.44851127 -0.46442464 -0.7636409 
-0.785691 -0.19905107 -0.58572024 
-0.40896222 0.120578766 -0.9045501 
0.2787625 -0.21121247 -0.9368462 
0.066160515 -0.7640556 -0.641749 
0.45715576 -0.8134194 -0.35966322 
0.31654397 -0.56406784 -0.7626451 
-0.27995354 -0.53035414 -0.80021906 
0.12994087 -0.5361182 -0.83408195 
0.8045213 -0.3292264 -0.49432313 
-0.4965789 -0.34524107 -0.7963781 
0.013198643 0.14881994 -0.9887763 
-0.30609986 0.12491731 -0.9437683 
-0.14663213 -0.6034987 -0.7837655 
0.32712343 -0.2277234 -0.9171327 
0.7586033 -0.3621961 -0.54160416 
0.7302648 -0.22860931 -0.64377886 
0.71142715 -0.6911894 -0.12699886 
-0.83583844 -0.27262294 -0.47649872 
-0.2869919 -0.6366129 -0.7157931 
0.21933277 -0.80570596 -0.5502102 
0.8775098 -0.42024142 -0.23102805 
0.8266 -0.52075136 -0.21342541 
-0.511546 -0.83445555 -0.20495039 
-0.4280186 -0.88980156 0.15828279 
-0.74747384 -0.5948156 -0.29576555 
-0.105514936 -0.8436748 -0.5263833 
0.043432817 -0.94334203 0.32896736 
-0.01118883 -0.7769768 -0.6294299 
-0.17594023 -0.7212026 -0.6700089 
-0.34235594 -0.4804187 -0.80745924 
-0.08339093 -0.94800705 -0.30712956 
-0.0453993 -0.6997856 -0.7129089 
-0.14374001 -0.5851184 -0.7981073 
0.09063911 -0.5029926 -0.85952497 
0.7069745 0.14426202 -0.6923696 
0.34235212 -0.16216539 -0.9254714 
0.79921234 -0.41540745 -0.43439206 
0.16679978 -0.90433 -0.39289317 
0.47283053 -0.71388763 -0.5165227 
0.34680325 -0.5759467 -0.74027896 
0.41149503 -0.45625553 -0.78898835 
0.5282315 -0.2950693 -0.79618204 
0.32162774 0.043895446 -0.94584817 
0.46884108 0.40641493 -0.7842289 
0.62934566 0.32430804 -0.7062212 
0.79265046 -0.026210554 -0.60911274 
0.67799217 0.7284547 0.098388985 
0.9717693 -0.20884964 -0.10975625 
0.7067075 -0.63374597 -0.3145326 
0.7874819 0.02320861 -0.61590064 
0.55690813 0.39173222 -0.7323928 
0.29029125 -0.37032327 -0.8823784 
0.17994952 -0.91129345 -0.37035438 
-0.6272939 -0.6844166 -0.37158635 
-0.49108213 -0.09887269 -0.86548406 
-0.8577601 0.26325658 -0.44152415 
-0.3277688 -0.22911823 -0.9165547 
-0.4355198 0.4586444 -0.7745759 
-0.33456072 0.14870855 -0.930567 
-0.5692425 0.22113834 -0.7918718 
-0.08649285 -0.68753654 -0.7209802 
-0.43062764 -0.07208657 -0.8996463 
-0.5460891 0.015469243 -0.83758426 
-0.16784237 -0.2527636 -0.9528586 
-0.12357951 -0.7335253 -0.6683329 
0.31294343 0.15388289 -0.9372228 
-0.20102759 0.17944905 -0.9630089 
0.5074537 -0.02624786 -0.8612792 
0.22511174 0.51329565 -0.8281621 
0.53631234 0.095650256 -0.8385823 
0.043308504 -0.08983291 -0.99501485 
0.2064488 -0.5933847 -0.7779933 
0.17458118 -0.7206714 -0.67093533 
0.08292954 -0.5674286 -0.819236 
0.5748965 -0.59386104 -0.5628704 
0.24638908 -0.4529975 -0.85678804 
0.16503859 -0.38547355 -0.9078394 
0.76707834 -0.5981105 -0.2320661 
0.72256094 -0.5248511 -0.44993004 
0.56709486 -0.2120753 -0.79588157 
-0.21740074 -0.13987249 -0.96600866 
0.39216056 0.09286405 -0.9151975 
-0.0010776649 -0.38369867 -0.9234578 
0.63065624 -0.4154666 -0.6554848 
-0.44221765 -0.5180165 -0.7321902 
-0.68404496 -0.6607398 -0.3090397 
-0.6173281 -0.3418944 -0.70852965 
-0.35396475 -0.44055372 -0.8249979 
-0.5291294 -0.6630078 -0.52956855 
-0.1535473 -0.32694715 -0.93248534 
-0.16001776 -0.74324596 -0.64959973 
-0.9871848 -0.052978724 -0.15053083 
-0.5453015 -0.8381226 -0.014026698 
-0.64390355 -0.03619434 -0.7642501 
0.5187072 -0.22174257 -0.82569546 
0.7078634 -0.26883033 -0.653192 
0.7206659 -0.5059534 -0.4739746 
0.67216116 0.4412779 -0.5945361 
0.47347888 0.15882757 -0.8663669 
0.26417643 0.15843008 -0.9513731 
0.13693082 -0.497921 -0.85634387 
-0.059638303 -0.3612783 -0.9305489 
0.35656148 -0.29700246 -0.8858067 
0.60640323 -0.38611943 -0.6951165 
0.83984053 -0.13983983 -0.52451193 
-0.38217068 -0.6844939 -0.620817 
-0.3138717 -0.45945954 -0.830892 
0.028777504 -0.32033822 -0.94686604 
-0.3272201 0.08401741 -0.9412057 
0.15838826 -0.41419983 -0.89629894 
0.4819508 0.059279423 -0.8741908 
0.37965953 0.069688134 -0.92249787 
-0.16595344 -0.104971506 -0.9805307 
-0.029124713 -0.05891713 -0.997838 
-0.1395678 -0.49418205 -0.8580822 
-0.14204173 -0.31705606 -0.93770975 
0.12284079 -0.7496032 -0.65038854 
-0.063182205 -0.9639997 -0.25828788 
-0.14148505 -0.5108949 -0.84792006 
0.29722548 -0.587879 -0.7523665 
0.38053834 -0.74547565 -0.5472264 
0.42224255 -0.5656389 -0.708353 
-0.042761177 -0.95930463 -0.27911687 
-0.36900324 -0.88804567 -0.27424732 
0.0803513 -0.99582183 0.043390136 
0.24438855 -0.6113207 -0.7527027 
0.14471342 -0.9787723 -0.14513083 
0.60140795 -0.7985607 0.024684643 
0.47694623 -0.7734273 -0.41753128 
0.02306005 -0.82768506 0.56071895 
0.6944109 -0.6681097 0.2672509 
0.3307853 -0.5287415 -0.7816736 
0.45032817 -0.29330173 -0.8433141 
-0.77255267 0.57091045 -0.27789152 
-0.42834464 -0.17490295 -0.88652694 
-0.6489242 0.18331122 -0.7384406 
-0.027412526 0.28589618 -0.9578685 
0.2584911 -0.47307187 -0.8422502 
0.018514547 -0.5225309 -0.8524194 
0.42964116 -0.13210423 -0.89328444 
-0.18084612 -0.8889161 -0.42085984 
0.2898353 -0.94406253 0.15729424 
0.5841973 -0.69312054 0.4222529 
-0.87437487 -0.48280126 -0.048699155 
-0.33750105 -0.4401198 -0.8320983 
0.4764448 0.025002345 -0.8788488 
0.23224474 -0.14062083 -0.96243864 
0.2966222 0.1717532 -0.9394234 
-0.44051448 -0.44977036 -0.77695143 
-0.57204676 -0.3243866 -0.7533499 
-0.2174079 0.05516004 -0.97452104 
0.0564455 -0.031438272 -0.99791056 
0.011074835 0.14022824 -0.99005735 
0.38171464 -0.2365708 -0.8934922 
-0.61593 -0.36492923 -0.69818115 
-0.4169371 -0.62098664 -0.6637312 
-0.18766299 -0.2537629 -0.9488872 
-0.16772462 -0.73486143 -0.6571508 
0.6746547 -0.14428054 -0.7238952 
0.6027229 -0.18004932 -0.77737206 
-0.21883498 -0.7187838 -0.6598949 
0.5536347 -0.15131134 -0.8188977 
0.03700941 -0.94642985 -0.32078174 
-0.3297064 -0.8090363 -0.48657364 
-0.28789908 -0.6974616 -0.6562481 
0.36143607 -0.5729739 -0.7355712 
0.25660908 -0.94418615 -0.20655325 
0.35382465 -0.9348815 0.028369445 
0.43164855 -0.8497681 -0.3026115 
0.52512705 -0.37483153 0.7640308 
0.7378571 -0.6140376 0.28022268 
0.63706166 -0.7074262 -0.3061058 
0.086978465 -0.5419796 -0.83587843 
0.070548795 -0.68989694 -0.7204618 
-0.15828863 -0.29308835 -0.9428913 
-0.60778964 -0.4970704 -0.61928415 
-0.4695493 -0.85273844 -0.22882475 
-0.65625405 0.29636857 -0.6938994 
-0.3370451 -0.88184726 -0.32976645 
-0.4550378 -0.797694 -0.3957587 
-0.26305878 -0.77489513 -0.57475 
0.48973662 -0.7794527 -0.3906554 
-0.23531215 -0.96807 -0.08642234 
0.04559966 -0.8571366 -0.5130669 
0.58845884 -0.017528173 -0.80833715 
0.95247304 -0.29380262 0.080468275 
0.74088126 -0.6229376 0.25108495 
0.83215445 -0.4851941 0.2685253 
0.5103466 -0.21325305 0.83310837 
-0.5307935 -0.55593723 0.63968134 
-0.8773567 -0.36685792 0.30929053 
-0.8923924 0.30277497 -0.33460888 
-0.28334257 0.13765635 -0.9490879 
0.15952283 -0.18596666 -0.96952 
-0.0271569 -0.6515772 -0.7580961 
-0.43445417 -0.79197836 -0.42897528 
-0.38276607 -0.9207317 0.07578462 
-0.31933856 -0.92942 -0.18493655 
0.040092863 -0.4365497 -0.89878637 
0.16579829 -0.7597423 -0.6287309 
0.34802762 0.08247789 -0.9338492 
0.13637955 -0.27001345 -0.9531492 
0.22410057 -0.11610258 -0.9676255 
0.25010082 0.029001702 -0.96778536 
0.24782173 -0.44102526 -0.8626014 
0.5863387 -0.26716712 -0.76474094 
0.7060575 -0.59467846 -0.38450038 
0.51685834 -0.742493 -0.42610055 
0.17679885 -0.94182295 -0.28585273 
0.29738688 -0.5508946 -0.7797924 
0.49319154 -0.6368716 -0.5925847 
0.5252675 -0.17677096 -0.83237386 
-0.22157082 0.50836056 -0.83215153 
0.27422398 -0.55578625 -0.7847948 
0.27727935 -0.5473496 -0.7896357 
0.8541619 -0.26335377 -0.44838852 
0.049489934 -0.2484955 -0.967368 
-0.5497027 -0.17864236 -0.81603545 
0.4037104 0.3383346 -0.850028 
0.5511672 -0.3775063 -0.7441128 
0.4126046 -0.68365765 -0.60197157 
0.13250571 -0.7614414 -0.6345466 
0.2505064 -0.6575413 -0.71055335 
0.13010068 -0.96222 -0.23917909 
-0.3399689 -0.38210616 -0.85931146 
-0.25719786 -0.1180179 -0.9591252 
-0.4628393 0.101057656 -0.880663 
0.49543136 -0.09458827 -0.86348176 
0.39797145 -0.26634562 -0.87788314 
-0.0018993191 -0.6793099 -0.7338491 
0.058269236 -0.21725155 -0.97437495 
-0.39218527 0.109169245 -0.91338533 
-0.63231236 -0.38846454 -0.67028093 
-0.34695426 -0.563847 -0.749466 
-0.42013574 -0.15047267 -0.8948989 
-0.5028262 0.08728118 -0.8599696 
-0.37727562 -0.31753117 -0.8699639 
-0.27610415 -0.3520031 -0.8943491 
0.051610537 -0.33507654 -0.9407763 
-0.25864422 -0.16126074 -0.952417 
0.3509878 -0.55090696 -0.7571718 
0.43441692 -0.609665 -0.6630163 
0.91115534 -0.34574455 -0.22418027 
0.809703 -0.57814145 0.10066526 
0.01827418 -0.9421164 -0.33478785 
-0.12285523 -0.41471994 -0.9016174 
-0.3648194 -0.9033083 -0.22570129 
-0.6114767 -0.66393906 -0.4304431 
-0.047910694 -0.27077553 -0.96144956 
-0.09807823 -0.1853145 -0.9777726 
-0.1176493 -0.8964638 -0.42721346 
-0.2777127 -0.2708 -0.9217067 
0.1490561 -0.72663105 -0.67066365 
-0.2800755 -0.41930026 -0.8635653 
-0.45133817 -0.52534044 -0.72132605 
-0.08730753 -0.39134845 -0.9160916 
-0.56237453 -0.02201388 -0.8265895 
-0.5873025 -0.41826499 -0.69291437 
0.45337746 -0.33093154 -0.82760686 
0.8383047 0.034319665 -0.54412085 
0.43533248 -0.5972906 -0.6735946 
0.6005277 -0.14476979 -0.7863894 
0.6725749 -0.15987507 -0.7225532 
0.12878136 -0.762814 -0.63366425 
0.33018863 -0.3172707 -0.88899654 
-0.2488749 -0.55588144 -0.7931312 
0.042453922 0.088323146 -0.99518675 
-0.52551675 0.3335426 -0.7826758 
-0.30883712 -0.028959492 -0.950674 
-0.23997898 0.053958792 -0.9692773 
0.2799271 -0.37157536 -0.8851964 
0.4392627 -0.80534065 -0.39808884 
0.5515473 -0.7843885 -0.2837789 
-0.11940674 -0.82991165 -0.5449668 
0.21191607 -0.67921084 -0.7026836 
0.041006062 -0.34457988 -0.9378611 
0.4657945 -0.7858346 -0.40681633 
0.7802435 -0.6072663 0.1498254 
-0.30067888 -0.2635098 -0.9165997 
-0.6920654 -0.3204413 -0.64680976 
-0.78322226 0.206185 -0.58655834 
0.39277813 -0.082308255 -0.9159425 
-0.15371908 -0.7950893 -0.5866886 
-0.65812147 -0.5791329 -0.48112497 
-0.14827468 -0.72384274 -0.67384446 
0.13349569 -0.64695615 -0.75075084 
0.44490817 -0.58251595 -0.68024397 
0.3981907 -0.027919149 -0.9168778 
0.10673084 -0.038720362 -0.99353373 
0.50544095 -0.5354136 -0.6766549 
0.5468999 0.042649888 -0.8361109 
0.24763507 0.13950902 -0.95875657 
0.879777 0.28186265 -0.38281322 
0.31057677 -0.65514946 -0.6887099 
0.3901721 -0.90555984 -0.16651474 
-0.029576072 -0.52778006 -0.848866 
0.6958127 -0.4957627 -0.5196769 
-0.009591572 -0.39111617 -0.92029136 
0.14101861 0.3626964 -0.9211759 
0.8395481 -0.0436938 -0.54152566 
0.5198895 0.5751245 -0.6316223 
0.27543205 0.38667053 -0.88012683 
0.7810935 0.623769 -0.028378792 
0.61733705 0.22319558 -0.75437313 
0.26602674 0.19580016 -0.94387084 
0.19366413 0.33837286 -0.92086804 
0.8060428 -0.4497157 -0.3847737 
0.30649766 -0.64152193 -0.7032132 
0.44324878 -0.5620094 -0.6983381 
-0.5222235 -0.48116305 -0.70410573 
-0.6484217 -0.22953202 -0.7258543 
-0.7520216 0.5643373 -0.34056872 
-0.465852 0.12220635 -0.8763832 
-0.45826933 0.21368904 -0.86274356 
-0.13717291 0.40507054 -0.9039366 
-0.7881259 -0.1220316 -0.60329586 
0.020596918 0.17415562 -0.9845028 
-0.3852593 -0.1983326 -0.9012433 
-0.3300814 -0.4781925 -0.8138662 
0.15254991 -0.5513395 -0.82021546 
-0.6583079 0.06152305 -0.75023043 
-0.4671876 -0.41804105 -0.7790876 
-0.40712386 -0.18233752 -0.8949879 
0.16941388 -0.4487471 -0.8774538 
0.29763916 -0.045374032 -0.95359963 
0.3085576 0.31613925 -0.8971334 
0.68542266 -0.27589512 -0.673853 
0.45391157 -0.57476795 -0.6808864 
0.48731318 -0.22839081 -0.8428307 
0.30040726 -0.8358159 -0.4595293 
0.30181906 -0.6858608 -0.66219354 
0.9093074 0.137099 -0.39289168 
0.657772 -0.41170812 -0.63073957 
0.54210734 -0.50760525 -0.66966903 
-0.024664462 -0.84512866 -0.5339936 
0.03251311 -0.6736642 -0.7383221 
-0.20435831 -0.24817595 -0.9469142 
-0.37741432 0.39834145 -0.83599204 
-0.12259693 -0.3469363 -0.9298415 
0.27073115 -0.6589396 -0.7017858 
0.17614841 -0.5964484 -0.7830844 
-0.0033650654 -0.61932415 -0.7851283 
-0.66156423 -0.42157948 -0.62016416 
-0.54492074 -0.21972013 -0.8091876 
-0.3028338 -0.7251699 -0.61840147 
0.06949718 -0.3663088 -0.9278945 
-0.36284882 -0.12035184 -0.92404336 
-0.85662687 -0.032675467 -0.5149006 
0.13345292 -0.71726686 -0.6838995 
-0.5048807 -0.26946983 -0.8200497 
-0.015651671 -0.36137486 -0.93228924 
0.9382198 -0.22670907 -0.2614318 
0.4856475 -0.17494436 -0.85647017 
0.7307894 0.6618632 -0.16698475 
0.56708413 0.052025482 -0.82201517 
-0.3161785 -0.3764768 -0.8708022 
0.3868052 0.062384877 -0.9200489 
-0.09128473 -0.33767447 -0.93682605 
0.59947556 -0.6251592 -0.4998051 
0.8878975 -0.16587505 -0.4290962 
0.18507476 -0.51210606 -0.838746 
0.0572022 -0.7546628 -0.65361446 
0.8657399 -0.44401 -0.23097534 
0.25042573 -0.45766616 -0.85312873 
0.7723489 -0.28851047 -0.56589663 
-0.00085002754 0.29214895 -0.9563725 
0.22543691 0.18030517 -0.9574279 
-0.18363403 -0.2383811 -0.9536525 
-0.6191344 0.2085723 -0.75707996 
-0.103287555 -0.011366732 -0.99458665 
0.05882886 -0.34213609 -0.9378071 
-0.119124286 -0.7162283 -0.68762374 
-0.16612023 0.17036833 -0.9712769 
-0.45689958 -0.63812697 -0.61970705 
0.1602343 -0.20388338 -0.96579325 
-0.4300085 -0.63672477 -0.6400581 
0.21602938 -0.568484 -0.79382443 
0.68807024 -0.0696438 -0.72229433 
0.30531517 -0.49245363 -0.81502897 
-0.060256347 -0.49673027 -0.86581075 
0.05561224 -0.9095142 -0.41193604 
0.028007414 -0.89234734 -0.45047963 
0.116070434 -0.7201786 -0.68401057 
-0.10057121 -0.9754603 -0.19586416 
0.011064044 -0.84932727 -0.5277507 
0.03497442 -0.99927485 0.015051257 
0.016398393 -0.9802081 0.19728953 
-0.20988984 -0.49302766 -0.8443163 
-0.8225041 -0.09149134 -0.56135225 
-0.9174156 0.25786304 -0.30307636 
-0.38452816 -0.50354 -0.77368325 
-0.452308 0.08768732 -0.88754064 
0.17762247 -0.19133726 -0.9653188 
-0.103912145 -0.05603151 -0.99300694 
-0.51249933 -0.326763 -0.7940847 
0.35299024 -0.08219954 -0.93200916 
-0.49895713 -0.32492498 -0.8034088 
-0.9349988 -0.34505543 -0.08193997 
0.011246739 -0.7227213 -0.69104815 
-0.19274923 -0.34929648 -0.9169731 
0.32068008 -0.37056983 -0.8716893 
0.65152335 0.29878232 -0.6973138 
0.14932261 0.44642156 -0.88227576 
-0.4082165 0.35981023 -0.838985 
-0.30725875 -0.22689392 -0.92418146 
-0.38279805 0.47200835 -0.79414976 
-0.43566072 -0.17788535 -0.8823585 
-0.026534729 -0.34804952 -0.9371006 
-0.4324318 -0.27674276 -0.858147 
0.50049424 0.32227385 -0.80352044 
-0.26762265 -0.22514857 -0.9368492 
-0.53549707 -0.11968815 -0.83601296 
0.041091874 -0.17264575 -0.9841265 
0.4467705 -0.39769313 -0.80139655 
0.06996823 -0.048919063 -0.9963491 
-0.35851228 -0.5513994 -0.75327796 
-0.26029617 -0.22441314 -0.9390872 
-0.019259816 -0.43864357 -0.8984548 
-0.00067863555 -0.7819124 -0.6233879 
-0.39069307 -0.49775597 -0.7743371 
-0.6918272 -0.35969868 -0.62609273 
0.5251518 -0.27321863 -0.8059574 
0.07456166 -0.9859965 -0.14916989 
0.26478136 -0.93169963 -0.24864995 
0.6019964 -0.7208773 -0.34341848 
-0.1107063 -0.96953845 -0.21849334 
-0.019884683 -0.99895746 0.041093856 
-0.079211086 -0.9762291 -0.20174848 
-0.27961525 -0.06115768 -0.95816237 
-0.069216006 -0.29493552 -0.953007 
-0.33251372 -0.28248847 -0.8997972 
-0.3228569 -0.19430318 -0.9262882 
0.055555332 -0.7674386 -0.6387109 
-0.6000736 0.24561216 -0.76130575 
-0.37243444 -0.03069459 -0.92755085 
-0.2675152 -0.13701667 -0.95376205 
0.018598769 -0.3721947 -0.9279684 
0.4038255 -0.46727365 -0.7864988 
0.39498183 -0.47468218 -0.7865534 
0.53501344 -0.46886584 -0.7027983 
0.72023654 -0.62999356 -0.29046074 
0.7959269 -0.604424 0.034236558 
0.48446733 -0.63727766 -0.5993068 
0.29200503 -0.947251 0.13209325 
0.19089745 -0.8568386 0.47894254 
-0.0504955 -0.9986172 0.014627138 
-0.5184035 -0.8316424 -0.19907 
-0.41966462 -0.28635025 -0.8613276 
-0.18812613 -0.33596689 -0.92289484 
0.13086103 -0.66576254 -0.73459905 
0.66806644 -0.6855213 -0.28939214 
0.38898757 -0.8671645 0.31098947 
-0.14922024 -0.8341495 0.53096884 
0.0032718594 -0.84149617 -0.54025316 
0.3481132 -0.93577933 -0.055984184 
0.4532997 -0.88236606 0.12629172 
0.8456418 0.28062847 -0.45402387 
0.6673336 -0.37563583 -0.64308923 
0.021925526 -0.26281834 -0.9645963 
0.41157627 -0.1984436 -0.8895085 
0.6249566 -0.020827137 -0.7803816 
0.55196315 0.057197835 -0.83190453 
-0.039992668 -0.82081044 -0.56979895 
0.114730805 -0.22091697 -0.9685209 
-0.16614775 -0.66274595 -0.7301799 
-0.52934486 -0.18247591 -0.82855093 
0.2352691 0.16054383 -0.9585793 
-0.2177607 -0.053543035 -0.9745325 
-0.35642275 0.21664889 -0.90885985 
0.34647122 -0.5160864 -0.78333426 
0.6522651 -0.56029695 -0.51050735 
0.82513976 -0.31701005 -0.46759942 
-0.12499453 -0.048840065 -0.99095464 
0.3107206 0.004407455 -0.9504911 
0.9831822 -0.033582546 -0.17951354 
0.27684122 -0.80348754 -0.52703583 
0.12570943 -0.45593244 -0.88109183 
-0.27786016 -0.17918335 -0.9437622 
-0.069898084 -0.44942558 -0.890579 
-0.047395356 0.007234514 -0.99885 
-0.32136056 -0.6318663 -0.7053173 
-0.56783557 0.12138993 -0.8141421 
-0.87833494 0.35460684 -0.32059586 
-0.8707805 -0.110938504 -0.4789927 
-0.59440625 -0.4026277 -0.69611216 
-0.48762685 -0.26240873 -0.8326835 
-0.41953665 0.0043706605 -0.90772784 
-0.26261097 -0.48637933 -0.83334905 
-0.46256742 -0.04052793 -0.88565737 
-0.33396393 0.9194002 -0.20777722 
-0.7610822 -0.60042983 -0.24543418 
-0.17618212 -0.7641172 -0.6205521 
0.05785498 -0.6547564 -0.75362253 
-0.7363301 0.13382627 -0.6632561 
0.25628808 -0.40391713 -0.8781614 
-0.68928033 -0.6039422 -0.40018302 
-0.14875025 -0.8780885 -0.45479026 
0.032357126 -0.37404177 -0.9268473 
0.5985343 -0.4757815 -0.6445066 
-0.35008165 -0.4790988 -0.80492693 
-0.081993416 -0.9074625 -0.41205463 
-0.10050254 -0.76728153 -0.63338655 
-0.033084676 -0.98848766 -0.14764036 
-0.6821462 -0.63997036 0.3537153 
-0.032998122 -0.6579153 -0.75236875 
-0.103767045 -0.33844212 -0.9352484 
0.5397936 -0.6110555 -0.5789941 
0.13403669 -0.88371193 -0.44842774 
-0.4944504 -0.86083156 -0.12036532 
-0.84708023 -0.21782084 -0.48477736 
-0.3256618 -0.6931083 -0.64307487 
-0.6589817 -0.47026944 -0.58701783 
0.039905947 -0.3675577 -0.92914414 
0.34881085 -0.40162975 -0.846773 
0.54807276 -0.654842 -0.5203828 
0.8529957 -0.13677154 -0.50367844 
0.5909185 -0.76714736 -0.24960034 
0.66081756 0.2144309 -0.71926326 
0.6542507 -0.27309784 -0.70524716 
0.5444213 -0.64537764 -0.5358107 
0.08054475 -0.86021703 -0.50352675 
0.62254167 -0.30767474 -0.719568 
0.39347887 -0.7741259 -0.4958866 
0.14477715 -0.47547528 -0.8677344 
0.170612 -0.48239705 -0.8591768 
0.54892117 -0.55420697 -0.62573177 
0.47657472 -0.61720455 -0.6260473 
0.3065005 -0.9485175 -0.07982606 
-0.25155914 -0.9353077 0.2488327 
-0.3781278 -0.92463565 0.045478232 
0.037361257 -0.626425 -0.77858585 
0.23984368 -0.37008816 -0.89750195 
-0.017284077 -0.7821023 -0.6229103 
0.6334256 -0.7402458 -0.22540675 
-0.5955282 -0.3825692 -0.70639014 
-0.29241237 0.15878446 -0.94301784 
-0.29211837 0.081858836 -0.9528725 
-0.40888977 0.018307578 -0.9124001 
-0.4063705 0.18265484 -0.8952655 
-0.5401339 0.092314 -0.83650076 
-0.06022274 -0.9136356 -0.40204877 
-0.3397207 -0.23222813 -0.91140544 
0.2663052 -0.17495757 -0.94787735 
0.5246937 -0.23944771 -0.8169219 
-0.27218416 -0.28858358 -0.91795176 
0.18965526 0.27054036 -0.9438426 
0.44345146 0.61239004 -0.6544687 
0.8036063 0.15464051 -0.57472014 
0.83698 -0.06426728 -0.54344666 
0.2081837 -0.7363204 -0.6438105 
0.43382454 -0.88740146 -0.15593252 
0.08714313 -0.5361798 -0.83959365 
0.4356303 -0.17187364 -0.88356423 
0.19043379 -0.18170838 -0.9647369 
0.1584955 -0.6027987 -0.7819929 
0.44943717 -0.089171216 -0.8888503 
-0.011221213 0.7105299 -0.7035776 
0.7393195 0.645129 -0.19291285 
0.5877686 0.37447885 -0.71714276 
0.69678503 0.20510377 -0.6873304 
0.53748995 0.4134764 -0.73494345 
0.43417475 0.32555655 -0.8399436 
0.75208324 -0.4037386 -0.5209281 
0.6202858 0.14505881 -0.77084607 
0.599889 -0.31712294 -0.73455185 
0.34091085 0.4275942 -0.8372234 
0.29866552 -0.2665031 -0.91639245 
0.18320128 0.19887945 -0.96274835 
-0.16383624 -0.1529316 -0.9745613 
0.07864059 -0.006572755 -0.99688137 
0.27332672 -0.03807368 -0.9611675 
0.33359158 -0.02357634 -0.9424229 
0.56382066 -0.06296364 -0.8234937 
-0.14664961 0.07531191 -0.9863174 
0.0015506321 -0.28613025 -0.95818955 
0.37399456 -0.21239768 -0.90278196 
-0.34129903 -0.6719422 -0.65727377 
-0.7320421 -0.6635587 -0.15428674 
-0.6540115 -0.5713668 -0.49579135 
-0.06379548 -0.9965294 0.053473826 
-0.14432839 -0.5537508 -0.8200789 
0.5166787 0.4145593 -0.749122 
0.5719536 0.33592638 -0.74834657 
0.5081294 -0.31232092 -0.8026583 
0.79084814 -0.14908285 -0.5935771 
0.5079399 -0.69264483 -0.51209396 
0.6496738 -0.69827867 -0.30055103 
0.2368269 0.017526278 -0.9713938 
0.27711993 -0.48148447 -0.83149105 
0.9310235 -0.26231325 -0.25374618 
0.0885073 -0.9036073 -0.41911846 
0.39825734 -0.5000689 -0.7689748 
0.008151671 -0.42688748 -0.904268 
-0.86862606 -0.27252758 -0.41378447 
-0.078839265 -0.7399118 -0.6680682 
-0.36672285 -0.23326966 -0.90061074 
-0.16041686 0.044189304 -0.9860598 
-0.6721324 -0.495032 -0.55061907 
-0.53373605 -0.12562814 -0.8362676 
-0.8056447 -0.09041145 -0.5854593 
-0.8272865 -0.29250842 -0.47962058 
-0.6386135 0.50085855 -0.5842205 
-0.25674883 0.033368476 -0.96590203 
-0.9684597 0.23269504 -0.089099824 
-0.400234 -0.55088675 -0.73235005 
0.0052046757 -0.1001337 -0.9949604 
0.083988436 0.06008228 -0.99465376 