# OOMMF: rectangular mesh v1.0
# Segment count: 1
# Begin: Segment
# Begin: Header
# Desc: Time (s) :  7.210000000000017e-07
# Title: m
# meshtype: rectangular
# meshunit: m
# xbase: 2e-09
# ybase: 2e-09
# zbase: 5e-10
# xstepsize: 4e-09
# ystepsize: 4e-09
# zstepsize: 1e-09
# xmin: 0
# ymin: 0
# zmin: 0
# xmax: 1.024e-06
# ymax: 1.024e-06
# zmax: 1e-09
# xnodes: 256
# ynodes: 256
# znodes: 1
# ValueRangeMinMag: 1e-08
# ValueRangeMaxMag: 1
# valueunit: 
# valuemultiplier: 1
# End: Header
# Begin: Data Text
-0.49504104 0.210777 -0.84291613 
-0.5958415 0.10249817 -0.7965345 
-0.44801947 -0.28263643 -0.8481718 
-0.5958611 -0.011541913 -0.8030046 
-0.6407292 -0.76574 0.05575299 
-0.32877937 -0.31619906 -0.8899002 
-0.9814613 0.01653085 -0.19094668 
-0.78375524 -0.3045131 -0.5412943 
-0.33640233 -0.5025796 -0.7963964 
-0.52610904 -0.78519607 0.32661375 
-0.24697986 -0.94147664 0.22939636 
-0.79974127 -0.58872265 0.11755666 
-0.8902687 0.39840546 -0.22066887 
0.16647328 0.40589744 -0.89862895 
-0.85326725 -0.49594048 -0.16117722 
-0.6464425 0.058781732 -0.7606951 
-0.42589897 -0.6883193 -0.5872195 
-0.037992172 -0.78960454 -0.6124388 
-0.17637375 -0.7427405 -0.6459326 
-0.7781162 -0.21419841 -0.59046966 
-0.7141555 0.09960387 -0.69286436 
-0.21510673 -0.17457142 -0.9608611 
-0.39305583 -0.2403545 -0.8875455 
0.80406946 -0.3484946 -0.4816887 
0.8374382 0.10766802 -0.5358218 
0.81274974 -0.21459699 -0.54165125 
0.28598255 -0.4862777 -0.8256803 
0.27487913 -0.61172473 -0.74177784 
0.6869418 -0.26263028 -0.677596 
0.4840876 0.09015808 -0.8703624 
0.53859425 -0.47309494 -0.6972069 
0.73369104 -0.6663288 0.13305464 
0.34398964 -0.07847003 -0.93568885 
0.44930395 -0.32633862 -0.8316425 
0.22609243 -0.6181022 -0.7528825 
-0.06737774 -0.7779127 -0.6247498 
0.7758963 -0.4134976 -0.47645012 
0.6485386 -0.44692636 -0.6161611 
0.0015045247 -0.9015407 0.43269172 
-0.24902222 -0.95048934 -0.18589774 
0.677434 -0.5719527 -0.46255088 
0.6135349 -0.47015664 -0.63445073 
0.9140133 0.28957155 -0.28412685 
0.24143302 -0.42381516 -0.8729782 
-0.5715974 -0.52606493 -0.62970805 
-0.36573282 -0.92817897 0.06872634 
-0.24552049 -0.9215434 0.30079496 
0.15649311 -0.84769744 0.50687194 
-0.0336308 -0.82265574 0.5675444 
0.13924506 -0.96053606 0.24079303 
0.71738577 -0.676027 0.1683606 
0.042873047 -0.9345352 -0.35327896 
0.31795 -0.8961774 0.3094736 
0.5394652 -0.6172178 0.5727299 
-0.27121934 -0.15510522 0.9499382 
-0.8769612 -0.39181757 0.2782413 
-0.32846832 -0.94402647 -0.030374363 
0.34093714 -0.5430395 0.7673787 
-0.21789186 -0.9151056 0.33927143 
-0.869196 -0.4499929 0.20495047 
-0.49843776 -0.48556027 -0.71818596 
-0.59275615 -0.5964076 0.5412377 
-0.8167468 -0.52590173 0.23738638 
0.30908048 -0.95103484 -0.0014184781 
0.18211836 -0.9789205 -0.09245249 
-0.024196075 -0.8949379 -0.44553426 
-0.59146845 -0.76985604 -0.2397643 
0.01117287 -0.67640084 -0.736449 
0.754676 -0.13758422 -0.6415098 
0.6983686 -0.6175672 -0.3617901 
0.5981905 -0.539092 -0.59291494 
0.26320475 -0.7412993 -0.61741287 
0.65024894 -0.44062278 -0.6188925 
0.65179807 -0.75018215 0.11129243 
0.79998523 -0.41301447 0.4352504 
0.41127402 -0.65335417 -0.6355958 
-0.18586177 -0.78363574 -0.59276515 
-0.3275262 -0.7700378 -0.54751116 
-0.1321563 -0.99091774 -0.024834605 
0.012843103 -0.96391183 -0.26591206 
-0.6407578 -0.6014348 -0.47718513 
-0.61806846 0.24703674 -0.74630034 
-0.5276272 0.22493206 -0.81915516 
0.15763772 0.07644791 -0.9845334 
0.18761964 -0.45644492 -0.8697453 
0.49767503 -0.4511032 -0.7408276 
0.0054384703 -0.3477581 -0.9375686 
0.27605566 0.10038781 -0.95588475 
0.16067001 -0.072642684 -0.98433137 
-0.60480833 -0.46462187 -0.646787 
-0.28828394 -0.8729667 -0.39347392 
-0.3268239 -0.9439363 -0.04658989 
0.21457574 -0.9548959 0.20525882 
0.50716937 -0.6942998 -0.51061434 
0.005239326 -0.79851127 -0.601957 
0.06110694 -0.17866148 -0.9820112 
-0.10282837 0.2760775 -0.9556189 
0.10911136 0.27352682 -0.9556557 
-0.18672235 -0.020422941 -0.9822005 
-0.03232206 0.2578726 -0.9656382 
-0.2691624 -0.3205238 -0.9081938 
-0.55439425 -0.29217154 -0.7792836 
-0.30529705 -0.3999831 -0.86418015 
0.41047293 -0.31621543 -0.8552893 
0.5487666 -0.6955262 -0.46378732 
0.60164964 -0.7961203 -0.064887844 
0.30094618 -0.29408944 -0.9071621 
0.85889095 -0.10574248 -0.50112355 
0.61152166 -0.4996137 -0.61353683 
0.6990359 -0.41979852 -0.57889384 
0.20313185 -0.34994334 -0.91448194 
0.43135178 -0.73183084 -0.52759767 
0.18816999 0.030438157 -0.9816647 
0.41037655 -0.17929794 -0.894116 
0.95958436 -0.077230595 0.27061692 
0.38860515 -0.90640396 0.16558322 
0.020712452 -0.9299006 -0.36722738 
-0.16784048 -0.8651378 -0.47261629 
0.44940096 -0.8797836 -0.15498324 
0.43601167 -0.48060426 -0.7608635 
0.44306615 -0.8217865 -0.35827288 
-0.1906255 -0.9526369 0.23694889 
0.51147956 -0.6391479 -0.57435066 
0.52456224 0.11284432 -0.8438606 
-0.28987396 0.29266343 -0.9112197 
-0.07104762 -0.49322394 -0.86699617 
-0.32762286 -0.38394892 -0.8632766 
0.07099698 -0.78409827 -0.6165625 
0.5579655 -0.5784992 -0.5949902 
-0.07892542 -0.2926633 -0.95295286 
-0.30909723 0.15045528 -0.9390539 
-0.3401601 0.6403537 -0.68864965 
-0.29133937 0.17840496 -0.9398367 
-0.71022666 0.35932106 -0.60536474 
0.79936475 0.3843578 -0.46182793 
0.7543456 0.42071962 -0.50394225 
0.63691324 -0.17478323 -0.75086117 
0.33463687 -0.47970223 -0.81111276 
0.7789922 0.12176869 -0.6150965 
0.096217625 0.080442436 -0.9921044 
0.48982707 -0.49970022 -0.7144013 
0.36287305 -0.025968432 -0.9314767 
0.16110049 -0.28314355 -0.94545037 
0.57491046 0.23862219 -0.7826477 
0.4801142 0.87705135 0.016469061 
0.4983059 -0.22113873 -0.8383252 
0.82644236 -0.5505764 -0.11772339 
0.58846474 -0.46694705 -0.66005284 
0.5047904 -0.70283884 -0.5012029 
-0.3404076 -0.8351256 -0.432074 
-0.3665322 -0.62103474 -0.6927987 
-0.42503372 -0.65380174 -0.62601095 
-0.25043625 -0.44843712 -0.8580128 
-0.6043174 -0.19752683 -0.77187026 
0.30478764 0.11569533 -0.9453672 
0.05713819 -0.36116138 -0.9307512 
0.094069615 0.36636218 -0.92570496 
0.027791386 0.31918472 -0.94728494 
-0.73041904 0.30241558 -0.6123993 
-0.16488695 0.11431656 -0.97966534 
-0.66779 0.033722214 -0.7435855 
-0.52676475 -0.08783638 -0.84546065 
-0.24156919 -0.42722723 -0.87127566 
-0.40698162 -0.6085333 -0.6812145 
0.07893262 -0.9964064 0.030726716 
0.31703937 -0.9471265 -0.04937156 
0.53870994 -0.14711617 0.8295472 
0.6327835 -0.74178445 -0.22212821 
0.29481897 -0.8568068 -0.42304122 
0.5063562 -0.43804857 -0.7427765 
0.38630652 -0.3913418 -0.83523583 
0.18974686 -0.19351819 -0.96257305 
0.35694888 -0.76663995 -0.53371423 
-0.30440155 -0.92665684 0.22056052 
-0.12449699 -0.92120796 -0.36861408 
-0.26388314 -0.43091622 -0.8629467 
-0.13036181 -0.67245245 -0.7285695 
-0.45175716 -0.49991414 -0.7389191 
0.30984017 -0.21896023 -0.9252327 
0.1673646 -0.23223132 -0.9581533 
0.55444735 -0.81020194 -0.19016059 
0.6573431 -0.41072243 -0.63182855 
0.1471972 -0.6493721 -0.7460891 
-0.88982517 -0.42331386 0.1703425 
-0.54351896 -0.29484957 -0.78590775 
0.3570023 -0.9125261 0.19961408 
0.2251543 -0.6309791 -0.74240893 
-0.27244824 -0.36074626 -0.8919832 
0.10281292 -0.47535363 -0.87376684 
-0.2271147 -0.5381883 -0.8116479 
-0.18959454 -0.8682051 -0.4585564 
0.06460743 -0.8769393 -0.47623894 
0.23942877 -0.53033 -0.81327975 
0.19155519 -0.8862881 -0.42166337 
0.34046254 -0.23390035 -0.91070086 
0.1443259 -0.07074747 -0.9869979 
0.2133299 -0.3661715 -0.9057642 
0.060247205 -0.25644073 -0.96468055 
-0.1828836 -0.9764362 -0.114568986 
-0.16686356 -0.7548 -0.6343765 
0.23040317 -0.7891559 -0.5693395 
0.07632532 -0.35527903 -0.931639 
0.703715 0.43237683 -0.563769 
-0.27282897 -0.5717665 -0.7737231 
-0.19349857 -0.54496163 -0.81582785 
-0.32656154 -0.30703384 -0.8939171 
-0.5143105 -0.43340662 -0.7400294 
-0.48191 -0.53114796 -0.6968822 
-0.6622361 -0.31365007 -0.68049026 
-0.5773218 -0.052477125 -0.81482863 
-0.21265544 -0.12747957 -0.96877587 
-0.2720321 -0.05444413 -0.9607468 
0.26361838 -0.033628788 -0.9640407 
0.6025506 -0.23580945 -0.7624478 
-0.57450074 0.19737728 -0.79434955 
0.22051574 -0.08614728 -0.9715717 
0.51612526 -0.42728403 -0.7423228 
0.3851773 -0.6390428 -0.6657799 
0.47976163 -0.39539656 -0.78325623 
-0.12885419 -0.9759978 -0.17557035 
-0.064798415 -0.74503136 -0.6638747 
-0.13209456 -0.98782605 -0.08216268 
-0.44691548 -0.6599086 -0.60397613 
-0.052883804 -0.008871395 -0.99856126 
0.2732208 0.29527557 -0.91551226 
-0.038774643 -0.6319428 -0.77404445 
0.2001226 -0.5951929 -0.778265 
0.5145735 -0.4836725 -0.7080078 
0.077334836 -0.98225224 -0.17088006 
0.3479293 -0.9287933 0.12762527 
-0.30700848 -0.92656356 -0.21731515 
0.13523841 -0.607897 -0.78241426 
0.289461 -0.8848807 0.36496368 
-0.6893119 -0.6280553 0.36110345 
-0.6752607 -0.20632032 -0.70813483 
-0.34530324 0.1323663 -0.9291097 
0.37582347 -0.23222531 -0.89712226 
0.45700416 -0.32556084 -0.82774246 
0.7811203 -0.15477401 -0.60489345 
0.91204286 -0.40590075 0.0585007 
0.74125993 0.6711341 -0.010620887 
0.50416297 0.70926875 -0.4927043 
0.29534537 -0.023150986 -0.9551101 
0.53473777 -0.6491195 -0.54101706 
0.51735514 -0.7682302 -0.37704927 
0.2660924 -0.6785413 -0.6846726 
0.22764623 -0.8610203 -0.45477593 
0.48272207 -0.67485714 -0.55816424 
0.4216804 0.8106899 -0.40616208 
-0.16356526 0.0010426679 -0.98653203 
-0.6819227 -0.019728398 -0.73115826 
-0.5625237 -0.30801916 -0.7672623 
0.1236312 -0.59703386 -0.7926323 
0.74896 -0.63852125 -0.1770578 
0.46952403 -0.86832815 -0.15985473 
0.47608292 -0.7520356 0.4558372 
-0.4616366 0.5345634 -0.7079079 
-0.72671926 -0.0012135267 -0.6869336 
-0.76800025 -0.4550288 -0.45069337 
-0.91123515 -0.3738908 -0.1727897 
-0.76601905 -0.5552507 -0.32390055 
-0.56151146 -0.28575435 -0.7765625 
-0.22675426 -0.6217641 -0.7496612 
-0.6468825 -0.4673034 -0.60263646 
-0.5783495 -0.6181476 -0.5323584 
-0.8979531 -0.42051634 0.12979391 
-0.15695333 0.12637697 -0.9794869 
-0.04594627 -0.6236418 -0.7803589 
-0.2188714 -0.72267884 -0.6556148 
-0.18149607 0.5890204 -0.78747344 
-0.80367583 -0.30747047 -0.50947744 
-0.41110507 -0.29884708 -0.8612103 
-0.2817303 -0.15830675 -0.9463441 
-0.50923926 -0.73256254 -0.451694 
-0.032665417 -0.86304206 -0.5040748 
-0.13345902 -0.37945503 -0.915534 
0.19671673 -0.09975515 -0.97537243 
0.6569736 0.6331821 -0.4092264 
0.10608403 0.8049687 -0.5837565 
0.5048366 -0.5300272 -0.68133056 
0.07430718 0.07752138 -0.9942177 
-0.016609848 -0.35180107 -0.9359275 
-0.24153379 -0.3976765 -0.8851638 
0.60598934 -0.79165643 -0.077827096 
-0.27225688 0.4344867 -0.85854393 
0.44084623 -0.3584909 -0.82288456 
0.84279907 0.005395857 -0.5382012 
0.36996028 -0.13946451 -0.91852003 
-0.015206738 -0.28708407 -0.9577848 
0.60535264 -0.09467045 -0.79030734 
0.87911624 -0.4641499 -0.10825724 
0.48036307 -0.7757794 -0.40916732 
0.46692133 -0.5961008 -0.6531833 
0.62986374 -0.7701902 0.100393586 
0.09977893 -0.9929413 -0.06412238 
0.5300294 -0.6679554 -0.5224025 
0.4295784 -0.64979476 -0.6270799 
0.7624939 -0.2356145 -0.60256857 
0.61304384 -0.09908505 -0.78381085 
0.43065977 -0.21570352 -0.8763585 
0.15774763 -0.80506164 -0.5718316 
0.13862593 -0.93274397 -0.33282363 
0.04966418 -0.9981324 -0.035570454 
0.45569217 -0.79244435 0.40543413 
0.07623266 -0.9969634 -0.015893437 
-0.38262802 -0.8757341 -0.2944244 
-0.30188176 -0.7636751 -0.57067317 
-0.011131652 -0.8711565 -0.4908793 
0.6168524 -0.74975264 -0.2395083 
0.4670601 -0.8658975 0.1790993 
-0.4786924 -0.7715209 0.41905755 
-0.26182178 -0.9183723 -0.2967182 
-0.4281776 -0.7785374 -0.45885023 
-0.6532233 -0.7462671 0.12800309 
-0.08224316 -0.93849415 0.335358 
-0.3110982 -0.5961771 0.74012893 
-0.26982254 -0.93852305 -0.21533757 
-0.22240822 -0.9471529 0.23116228 
-0.7247772 -0.6426904 -0.2482884 
0.22211844 -0.77764887 -0.58815455 
0.29688787 -0.8729636 -0.3870301 
0.094905384 -0.0043438114 -0.99547684 
0.041242782 -0.39934883 -0.915871 
0.14183833 -0.8117564 -0.5665099 
0.33052304 -0.46691188 -0.8202122 
0.26592442 -0.9306728 0.25126147 
0.24735348 -0.8661863 0.43420908 
0.34853435 -0.780423 -0.5190992 
0.22627436 -0.76157206 -0.60729575 
0.07065581 -0.91172373 -0.40468228 
-0.11785343 -0.98895156 -0.08991949 
0.0060409624 -0.19651969 -0.9804813 
0.103571214 -0.6659898 -0.7387358 
0.11900136 -0.7186961 -0.68506545 
0.2017332 -0.2741175 -0.94029963 
-0.6192462 -0.19784254 -0.7598636 
-0.19368526 -0.4735586 -0.8592022 
-0.4149051 -0.5107191 -0.7530072 
-0.32325566 -0.21444066 -0.9216947 
-0.40289348 -0.16808526 -0.89968 
0.22354455 -0.38812974 -0.89408237 
-0.27704036 -0.31322226 -0.90837246 
-0.33224586 -0.5941748 -0.7325088 
-0.21429555 -0.258861 -0.9418431 
-0.32852307 -0.09086367 -0.9401151 
0.6851148 -0.18360224 -0.7049171 
0.57175964 -0.7510169 -0.33024925 
-0.46474358 -0.77579415 -0.4267985 
-0.08020798 -0.7859254 -0.6130972 
-0.1489988 -0.6213372 -0.76924616 
0.017313858 -0.42346057 -0.905749 
-0.07504845 0.13979582 -0.9873322 
-0.23787548 0.37910485 -0.8942566 
-0.08892765 -0.31421652 -0.94517714 
-0.016814059 0.012384074 -0.999782 
-0.58966136 -0.25269276 -0.7671022 
-0.41847083 -0.0056740255 -0.9082126 
-0.508791 -0.37483644 -0.7750029 
-0.30251408 -0.5680334 -0.76539093 
0.31116757 -0.3548283 -0.8816302 
0.3526878 -0.4048401 -0.8436326 
0.0068241744 -0.54454416 -0.8387044 
-0.24120484 -0.55210924 -0.79812 
0.12618408 -0.32547975 -0.9370916 
0.3794234 -0.4719032 -0.79583 
0.492102 -0.76994365 -0.40622935 
0.4182684 -0.77237225 -0.47800922 
0.8327644 -0.52788794 -0.16684726 
0.22097917 -0.115984514 -0.96835726 
0.49332184 -0.56934404 -0.6576329 
0.8778494 -0.41550288 -0.23819685 
0.43730846 -0.803495 -0.40392742 
-0.33412653 -0.5286593 -0.7803069 
-0.33226883 -0.64513636 -0.68803823 
-0.20511739 -0.638019 -0.7421985 
0.40740043 -0.45318937 -0.792871 
0.027519425 -0.43369025 -0.90064174 
0.6059178 -0.5417736 -0.5825333 
0.19657396 -0.54917043 -0.8122626 
-0.12999444 0.63393766 -0.7623809 
-0.046941295 0.3269108 -0.94388866 
-0.3258593 -0.24951921 -0.91189694 
-0.6459978 0.13120899 -0.7519781 
-0.2541754 -0.3984615 -0.88126236 
0.36408484 -0.7234816 -0.5865294 
-0.31716523 0.4184196 -0.85107654 
-0.1828919 0.11984749 -0.9758008 
-0.8032763 0.19374141 -0.5632153 
-0.29983267 -0.34172902 -0.89068604 
0.22388566 0.421529 -0.8787426 
0.415739 0.1167834 -0.90195495 
0.7226758 0.21695496 -0.6562547 
0.570396 -0.68466157 -0.45374775 
0.26327512 0.08997581 -0.9605158 
0.6561567 -0.08614893 -0.74969107 
0.65935415 -0.12790754 -0.7408724 
0.62000835 -0.01026936 -0.78452796 
0.67554754 0.0403845 -0.73620963 
0.81661904 0.30301258 -0.49123996 
0.27797416 0.7642197 -0.5819783 
-0.169398 0.8810672 -0.44161618 
0.22790208 -0.3303041 -0.9159476 
0.21265137 -0.89365476 -0.39517158 
0.23555993 -0.7730771 -0.5889511 
-0.039635826 -0.7681987 -0.63898337 
-0.7123224 -0.6971099 -0.08145342 
-0.12541562 -0.75284475 -0.6461391 
-0.021602377 -0.6008893 -0.7990403 
0.2959216 -0.6575779 -0.6928361 
-0.4826018 -0.7274558 -0.48775372 
-0.41657558 -0.80092716 -0.4300937 
0.26136535 -0.525261 -0.809808 
0.23549566 -0.8474101 -0.47585502 
0.27684212 -0.3212127 -0.9056384 
0.074643165 0.20214945 -0.976506 
-0.41026816 0.35265625 -0.8410194 
-0.23265287 -0.0868428 -0.96867496 
-0.25711682 0.1480336 -0.95497483 
-0.37438962 -0.4083768 -0.8325027 
-0.13112363 -0.44118607 -0.8877846 
-0.25367618 -0.8597248 -0.44330767 
0.041350715 -0.6798114 -0.7322203 
-0.7076186 -0.37361258 -0.59974134 
-0.25135535 0.083477676 -0.96428835 
0.34158775 -0.42045194 -0.8405581 
0.55233747 -0.6693573 -0.4968744 
0.22804399 -0.35944265 -0.9048741 
-0.057008 -0.21174972 -0.9756599 
0.38067198 -0.13948968 -0.9141289 
0.38905045 -0.3371256 -0.8573134 
0.27173164 -0.34123245 -0.8998457 
0.5964297 -0.34723783 -0.7236696 
-0.3828242 0.17500195 -0.90709436 
-0.40865517 0.031192621 -0.9121556 
0.09626253 -0.13782698 -0.9857674 
-0.36388555 -0.117251776 -0.9240343 
0.27645826 -0.351534 -0.8944242 
0.42007717 -0.35675704 -0.8344218 
0.6783127 -0.5149086 -0.5241765 
-0.95840687 -0.15019648 -0.24268767 
-0.8370813 -0.25105065 -0.48607445 
-0.39069733 -0.41469526 -0.82181716 
-0.6563272 -0.17806293 -0.73316324 
-0.3818278 -0.21950512 -0.89778906 
-0.4383265 -0.096695326 -0.8935995 
-0.54847115 -0.3290605 -0.7686993 
-0.76170534 -0.43060893 -0.4841291 
-0.4030515 -0.7666011 -0.49987248 
-0.2911174 -0.5731826 -0.76597166 
0.11730085 -0.9213545 -0.3706028 
0.4628777 0.10244982 -0.88048184 
0.5485656 -0.036235362 -0.835322 
-0.11811003 0.10742061 -0.98717326 
-0.27821916 -0.37718084 -0.88336223 
0.099985786 -0.6616187 -0.7431444 
0.39537856 0.07734068 -0.91525644 
-0.06497513 0.22168924 -0.9729503 
-0.4836085 0.052268583 -0.8737224 
-0.22087592 0.026821379 -0.9749331 
0.106060274 -0.020877603 -0.99414057 
-0.3259934 0.35374784 -0.8766932 
0.047184333 0.04067838 -0.99805766 
0.062194042 -0.19900575 -0.9780229 
-0.4616524 -0.20233056 -0.86367786 
-0.70270985 0.14372279 -0.6968089 
0.21463946 0.052739877 -0.97526836 
0.61233824 0.3987133 -0.68269295 
0.5550864 -0.074639484 -0.82843715 
0.22784981 0.120948866 -0.96615523 
0.6907226 0.002168346 -0.7231167 
0.35861528 -0.20442718 -0.9108263 
0.47405872 -0.663551 -0.5787647 
0.26384923 -0.6619672 -0.70155764 
0.06308036 -0.48007664 -0.8749556 
0.65158665 -0.21709695 -0.7268451 
0.054302674 -0.69610405 -0.7158843 
0.23841162 -0.9044308 -0.35378638 
0.17082304 -0.93516296 -0.310306 
-0.20273685 -0.50078666 -0.8414931 
-0.012494301 -0.3537335 -0.9352628 
0.15115452 -0.42197537 -0.8939179 
0.23073304 -0.3923854 -0.890391 
0.3422842 -0.8436724 -0.4135921 
0.24522783 -0.80701923 -0.53719956 
0.3864806 -0.8633511 -0.32443425 
0.68334216 -0.72871256 -0.044962198 
0.047293175 -0.9518758 -0.3028133 
-0.091326945 -0.9727658 -0.21304004 
0.5312375 -0.6109592 0.58695465 
-0.7563866 -0.587197 0.2882346 
-0.29902828 -0.7275578 -0.61744785 
0.086516246 -0.9156619 -0.39252838 
0.53031814 -0.3119976 -0.7883021 
0.3377659 0.642111 -0.68819165 
0.25065804 0.8174976 -0.51852494 
0.41979077 0.5189716 -0.74461013 
0.95615935 0.27496028 -0.10077777 
0.44345844 0.82065636 -0.36037174 
0.7867102 0.13321052 -0.6027786 
0.67971474 -0.50620174 -0.53079903 
0.5329986 -0.8420179 -0.08317637 
-0.0051523177 -0.7069134 -0.7072814 
0.025286319 -0.5801509 -0.8141165 
-0.6114312 -0.51362145 -0.60195106 
-0.38631108 0.5155487 -0.7648354 
-0.40264207 -0.18173835 -0.8971347 
-0.21108529 0.12301367 -0.96969616 
-0.31347105 -0.45120096 -0.83555585 
0.30351436 -0.8076978 -0.50547343 
0.55187684 -0.672997 -0.49244997 
0.68460155 -0.718153 0.12480795 
0.69955087 -0.372561 0.6097761 
0.025421327 0.5729951 -0.81916445 
-0.8567789 0.25529745 -0.4480548 
-0.87791353 -0.14699326 -0.4556984 
-0.5245909 0.024433918 -0.85100377 
-0.40535566 -0.46860632 -0.7849173 
-0.21029109 -0.51441646 -0.8313563 
-0.6505603 -0.25296193 -0.71608764 
-0.47637254 -0.15718593 -0.8650791 
-0.8850145 -0.26280138 -0.38429794 
-0.38158715 -0.056751445 -0.9225891 
-0.51734835 0.05168083 -0.854213 
-0.26138198 0.030345192 -0.96475834 
0.1901528 0.45392644 -0.87051284 
-0.48855567 0.675405 -0.55239606 
-0.6377014 0.3966378 -0.6603146 
-0.4020421 0.19531286 -0.89454746 
0.071841195 0.3319067 -0.9405726 
-0.27696705 -0.864738 -0.41894805 
-0.38168448 -0.74838644 -0.5424341 
-0.11465972 -0.83135307 -0.54378796 
0.44792047 -0.5219187 -0.7259258 
0.53024423 0.48200142 -0.6975068 
0.5085281 0.52078205 -0.68570054 
0.10422172 -0.15009199 -0.98316336 
0.344939 -0.09408552 -0.9338978 
0.24906059 -0.19154868 -0.9493566 
0.40940177 -0.14960274 -0.90000516 
0.960836 -0.27046296 0.060365457 
0.14148694 0.5132595 -0.84649056 
0.13599056 -0.19061953 -0.972199 
0.67313594 0.06637074 -0.7365345 
0.57420146 -0.39613184 -0.7165001 
0.13132924 -0.12112428 -0.9839114 
0.42830065 -0.24053638 -0.8710343 
-0.2620896 -0.96476996 -0.022979455 
0.31147844 -0.5197784 -0.7954946 
-0.21011269 -0.08544008 -0.9739367 
-0.0599865 -0.5503087 -0.8328038 
0.37774828 -0.69268686 -0.6144032 
0.5128935 -0.4403491 -0.7369077 
0.22975335 0.21653368 -0.94885546 
0.4180767 -0.030903585 -0.90788597 
0.09268729 0.1912315 -0.977159 
0.69572467 -0.07012993 -0.71487695 
0.39760378 -0.5029108 -0.7674582 
0.6217335 -0.73616433 -0.26741263 
-0.5102117 -0.8446105 -0.16222626 
0.046018615 -0.9978169 -0.04736757 
-0.7488428 -0.66271895 -0.0061777295 
0.20736113 -0.43651256 -0.875476 
-0.26656052 -0.95172536 -0.15219826 
0.072272114 -0.9882473 0.13469984 
-0.07626279 -0.99693763 -0.017307347 
0.44014496 -0.8863535 -0.14370124 
-0.34712178 -0.7583823 -0.5516908 
-0.19252983 -0.29088 -0.93718785 
0.578057 -0.7129913 -0.3968547 
0.018423976 -0.98268235 -0.18438008 
-0.07436945 -0.9213278 -0.3816073 
0.6128035 -0.71377975 -0.33910236 
0.02730392 -0.8806816 -0.47292137 
0.20785397 -0.71474767 -0.6677818 
-0.21551012 -0.5366975 -0.8157887 
-0.21876562 -0.65891695 -0.71970135 
-0.20933726 -0.6531068 -0.7277565 
0.41023874 -0.6620561 -0.62720484 
0.54245126 -0.77551794 -0.32298407 
0.33821124 -0.46461847 -0.81837815 
0.618758 -0.30109164 -0.72559106 
0.8151905 -0.50322694 0.28675306 
0.011511782 -0.9511769 -0.30843166 
0.33094254 -0.5346956 -0.77754605 
0.43790698 -0.7428121 -0.50642645 
0.012736229 -0.9992987 0.035215043 
0.35863262 -0.721353 -0.59247994 
0.090240344 0.19266383 -0.9771067 
-0.26893678 -0.31283516 -0.9109375 
0.10754179 -0.7376266 -0.6665897 
-0.19169106 -0.42628357 -0.8840457 
-0.46044073 -0.541398 -0.703479 
0.27579612 -0.7765142 -0.56653535 
-0.06581514 -0.75401235 -0.65355474 
-0.252186 -0.28141972 -0.92585385 
-0.056951474 -0.27289087 -0.96035784 
0.15858774 -0.13605568 -0.97792584 
0.26809555 -0.48805225 -0.83062017 
-0.2555595 -0.4694173 -0.84518456 
-0.43474033 0.23912208 -0.86822903 
-0.31302097 -0.030198976 -0.949266 
0.17932737 -0.07722353 -0.98075396 
0.6363267 0.18561557 -0.7487559 
0.41819224 -0.68649185 -0.59484804 
0.027683608 -0.78273183 -0.6217431 
-0.11439314 -0.38684398 -0.9150225 
-0.06640094 -0.88645935 -0.45801818 
-0.31408367 0.2678323 -0.91083336 
-0.77319735 -0.13375667 -0.6198993 
-0.36989903 -0.2403557 -0.89744294 
-0.0057420796 0.0036724594 -0.99997675 
0.031239608 -0.64117444 -0.76675916 
0.38120833 0.26167765 -0.8866821 
-0.5979732 -0.001510395 -0.80151474 
-0.039086573 0.07872401 -0.99613 
0.2704603 -0.21702845 -0.9379499 
0.3973824 -0.121885 -0.9095226 
0.079473674 -0.14676157 -0.98597413 
0.23702869 -0.27571815 -0.9315562 
-0.80209285 -0.14182602 -0.58011436 
-0.46107784 -0.6132475 -0.6413539 
0.3239008 -0.8115467 -0.48629248 
-0.11765566 -0.86121005 -0.4944436 
0.18771514 -0.7686376 -0.6115222 
-0.15718006 -0.6380584 -0.75377446 
-0.3015258 -0.30408427 -0.9036675 
0.5513015 -0.44349605 -0.7066668 
-0.19426323 -0.102547176 -0.9755747 
0.041848753 -0.13550515 -0.9898925 
0.11141709 0.072212294 -0.9911467 
-0.3916752 -0.20664465 -0.8965984 
0.19897763 0.14976186 -0.9684934 
-0.05640261 -0.5319042 -0.8449241 
-0.47332767 -0.14694113 -0.86854434 
0.037479036 -0.53863966 -0.84170234 
-0.4241371 0.845235 -0.32509327 
0.169312 0.62427145 -0.7626393 
0.30040613 -0.12241578 -0.94592315 
0.17638928 0.026109815 -0.9839742 
-0.5670688 -0.1271757 -0.8137931 
-0.27329752 -0.41918463 -0.8657903 
-0.2093398 -0.26915255 -0.9400711 
-0.35059968 -0.1818177 -0.9187069 
-0.33077544 0.7781132 -0.5339734 
-0.27117586 0.22952944 -0.93476194 
0.114343695 0.44777915 -0.886803 
0.26205704 0.68066776 -0.68411815 
0.664368 0.55779165 -0.4974773 
0.23943672 -0.56044227 -0.79282695 
-0.064249076 -0.27661565 -0.95883054 
0.09966229 -0.72940516 -0.67678326 
-0.16225457 -0.97724223 0.13664217 
0.12801708 -0.7744758 -0.61951506 
0.64204115 -0.15905263 -0.74999034 
0.17112991 0.04935717 -0.9840114 
0.18916997 0.5886746 -0.7859244 
-0.2692169 0.4995326 -0.82340115 
0.30773434 0.6056411 -0.7338245 
0.42690438 -0.20782349 -0.880092 
0.34979293 -0.34678847 -0.87027735 
0.63963217 0.1097057 -0.76081234 
0.22187118 -0.42936638 -0.8754529 
0.09089389 -0.77922773 -0.62011486 
-0.2746043 -0.545539 -0.79182047 
0.0037892293 0.3424717 -0.9395206 
-0.626605 -0.36160442 -0.69036835 
-0.3952646 -0.7782771 -0.48790452 
-0.0026829117 -0.95244503 -0.30469853 
-0.042409644 -0.7194996 -0.69319683 
-0.41170043 -0.16890667 -0.8955296 
-0.5074131 0.05455459 -0.8599743 
-0.16991208 -0.31848636 -0.9325751 
-0.43823537 0.48252413 -0.7583668 
0.35788307 0.51065826 -0.78175956 
0.55489516 -0.07581128 -0.8284589 
0.10766856 -0.7617893 -0.6388149 
-0.029026106 -0.7367236 -0.6755708 
-0.19887215 -0.7250711 -0.65933436 
-0.5733795 -0.5474915 -0.60949904 
-0.12262904 -0.33564174 -0.93397367 
-0.51204365 -0.10685291 -0.8522875 
0.20211963 -0.009680155 -0.979313 
0.21623187 0.14106682 -0.9660973 
-0.55418265 -0.22815575 -0.80051637 
0.39777747 -0.41232732 -0.8196092 
0.37008888 0.3453977 -0.8624005 
0.5106094 0.18262066 -0.8401951 
0.46300673 -0.24833052 -0.8508566 
-0.0832487 0.43197215 -0.8980366 
-0.5721124 -0.020054197 -0.81993014 
-0.37961832 0.24756914 -0.8914031 
0.2567415 -0.09182228 -0.9621084 
0.3980234 0.040816344 -0.9164669 
0.541438 -0.5008379 -0.67528236 
-0.024930533 -0.9047091 -0.4252998 
-0.6677174 -0.6572152 -0.3496022 
-0.75870365 -0.05163457 -0.64938635 
-0.50359315 -0.02343812 -0.86362296 
-0.33024213 -0.83198273 -0.44580805 
-0.4377797 -0.3833386 -0.8132654 
-0.45245978 0.019380363 -0.89157426 
-0.8220327 -0.041296907 -0.56794095 
0.4402973 -0.2211126 -0.87019974 
0.3702811 -0.53847843 -0.7569234 
0.032340273 -0.56187814 -0.8265877 
0.14191802 -0.34244272 -0.92875844 
0.72994626 0.013856809 -0.68336415 
-0.09603651 -0.48901632 -0.86697185 
-0.71525043 -0.19740348 -0.67040944 
-0.12996149 -0.17729624 -0.9755389 
-0.24403019 0.3854888 -0.88985825 
0.4875655 0.14814852 -0.86042553 
0.4721244 0.17014606 -0.864956 
-0.36131895 0.17906436 -0.9150872 
-0.5197401 0.13417235 -0.84372276 
0.016676703 -0.052713938 -0.9984704 
-0.46513158 0.24915722 -0.84945476 
0.013345375 -0.16187656 -0.98672086 
0.45709234 0.037841618 -0.8886139 
0.4061419 -0.20534158 -0.8904401 
-0.19574675 0.8956912 -0.39927492 
-0.35128146 0.39846966 -0.84724456 
0.6132913 0.1271465 -0.779556 
-0.024115555 0.089543454 -0.99569094 
-0.17862321 -0.33225232 -0.92612207 
0.41544536 -0.47158507 -0.7778256 
0.28462628 -0.46136057 -0.84031796 
-0.077814505 -0.62586266 -0.77604175 
-0.39871404 -0.6300646 -0.6663676 
-0.19707167 -0.87069637 -0.45061135 
0.1278707 -0.7310685 -0.67021483 
0.24525528 -0.8665977 -0.43457824 
0.38452265 -0.41123286 -0.82645625 
0.27687368 -0.32557178 -0.9040708 
0.06517237 -0.45640904 -0.8873801 
-0.5590551 -0.12324013 -0.81992036 
0.3132819 -0.2532807 -0.9152614 
0.10761849 0.07306377 -0.99150395 
-0.23512891 -0.55050594 -0.8010354 
0.1976738 -0.8121057 -0.5490077 
0.6421128 -0.5475008 -0.53659487 
-0.4488659 -0.6672298 -0.5944106 
-0.20338431 -0.8445197 -0.49540025 
0.055972327 -0.9714825 -0.23041053 
-0.5843649 -0.8063358 0.09132468 
-0.47696614 -0.6524531 -0.58890426 
-0.35515633 -0.62960356 -0.6909873 
0.02751842 -0.8324814 -0.55336916 
-0.46324736 0.2499528 -0.8502503 
-0.47470057 0.81594294 -0.32999498 
-0.037303478 -0.5379465 -0.84215325 
0.6316405 -0.12646282 -0.76487744 
-0.41488352 -0.34797674 -0.8407043 
0.614617 0.1399438 -0.776313 
0.44174212 -0.17396876 -0.88011295 
0.3075803 -0.15343657 -0.9390696 
0.24302483 0.20206814 -0.9487399 
0.1353911 0.5026198 -0.8538399 
-0.6419917 -0.53154355 -0.552547 
-0.75174695 0.30912462 -0.5825106 
-0.601995 -0.26357 -0.7537459 
-0.62434566 -0.11548271 -0.7725647 
-0.2783921 -0.2207595 -0.93475306 
-0.23736204 -0.760934 -0.6038533 
-0.17032868 -0.64556086 -0.74447256 
0.3148965 -0.44944745 -0.8359649 
0.6777183 -0.7130754 -0.1795037 
0.45253715 -0.78752387 0.41834962 
-0.40047348 0.88259816 0.24625538 
-0.581282 0.77256614 -0.2554461 
-0.41994834 0.25145912 -0.8720159 
-0.5106433 0.07142485 -0.8568209 
-0.28509545 -0.48684254 -0.8256543 
-0.16405185 -0.840351 -0.5166212 
0.30288833 -0.9510097 -0.06196238 
-0.8809918 0.11303259 -0.4594313 
-0.7009477 -0.25651723 -0.66548574 
-0.37202838 0.16455525 -0.9135187 
-0.2970954 0.008463173 -0.9548104 
-0.4787116 0.010881689 -0.8779048 
0.2814953 0.44014254 -0.8526634 
-0.52599424 -0.0881664 -0.84590596 
-0.51008743 0.28362954 -0.812013 
-0.31083435 -0.15490131 -0.9377567 
0.53641003 -0.45746383 -0.70921874 
0.41908923 -0.5446669 -0.72643125 
-0.0036674063 -0.8027959 -0.59624267 
-0.45174718 -0.6759295 -0.58227473 
-0.50365263 0.41354984 -0.75849235 
0.100695215 0.12287499 -0.98730046 
-0.20453113 -0.0137084685 -0.97876406 
-0.59454894 -0.5372129 -0.59825903 
-0.11624786 0.3300539 -0.93677694 
0.21656798 -0.028939683 -0.9758386 
0.14931326 -0.08813839 -0.984854 
0.14430705 -0.31696638 -0.93739414 
0.3582452 0.45350385 -0.816085 
-0.40624666 0.65564215 -0.63647234 
-0.04591512 0.49066925 -0.8701353 
0.095235035 0.103334025 -0.99007696 
0.45212412 -0.005722483 -0.89193666 
0.28223902 0.08965942 -0.95514524 
-0.22067347 -0.51074773 -0.83092725 
0.06277463 -0.29715466 -0.95276356 
-0.26979053 0.22167957 -0.9370546 
0.3485603 -0.5504965 -0.75859046 
0.012343813 -0.6865748 -0.7269544 
0.13816875 -0.6511145 -0.74629706 
0.15567683 -0.5396599 -0.8273645 
0.67615706 0.29176718 -0.67652315 
0.797766 0.348247 -0.4922333 
0.54656124 0.4033958 -0.73385465 
0.16959453 -0.6254347 -0.7616227 
0.16843094 -0.41664994 -0.8933275 
-0.039636627 -0.81733197 -0.5748022 
-0.507695 -0.83247995 -0.22186248 
-0.7076191 -0.09354792 -0.7003743 
-0.1231269 -0.90760267 -0.4013691 
-0.5444501 -0.47285262 -0.6928091 
-0.5531108 -0.54862154 -0.6269634 
-0.45325738 -0.6879658 -0.56679875 
0.08657429 -0.8005657 -0.59295815 
-0.34954917 -0.63911533 -0.6850892 
-0.24207681 -0.26946238 -0.93208855 
0.30261073 -0.3649367 -0.8804817 
0.21432537 -0.6707475 -0.710044 
-0.14455119 -0.85250604 -0.50233305 
0.22265726 -0.69305354 -0.68563884 
0.5361247 -0.08574719 -0.83977246 
-0.11166732 -0.27408695 -0.9551999 
-0.22036965 -0.5647926 -0.7952651 
-0.7889887 -0.54553586 -0.28264374 
-0.061991625 -0.30795062 -0.9493806 
0.34666497 -0.8971464 -0.27377307 
0.080834046 -0.94641197 0.3126823 
0.09081585 -0.79351556 -0.60173565 
0.60391 -0.48251238 -0.63440883 
0.82346344 -0.38982984 -0.4122385 
0.16435486 -0.4529752 -0.8762426 
0.53314114 -0.518741 -0.6683326 