# OOMMF: rectangular mesh v1.0
# Segment count: 1
# Begin: Segment
# Begin: Header
# Desc: Time (s) :  7.300000000000017e-07
# Title: m
# meshtype: rectangular
# meshunit: m
# xbase: 2e-09
# ybase: 2e-09
# zbase: 5e-10
# xstepsize: 4e-09
# ystepsize: 4e-09
# zstepsize: 1e-09
# xmin: 0
# ymin: 0
# zmin: 0
# xmax: 1.024e-06
# ymax: 1.024e-06
# zmax: 1e-09
# xnodes: 256
# ynodes: 256
# znodes: 1
# ValueRangeMinMag: 1e-08
# ValueRangeMaxMag: 1
# valueunit: 
# valuemultiplier: 1
# End: Header
# Begin: Data Text
-0.38454834 -0.86892617 -0.31159273 
-0.671613 -0.4473326 -0.590618 
-0.5505588 -0.01592979 -0.8346444 
-0.089038625 0.22292326 -0.9707613 
-0.021396248 -0.2341607 -0.97196245 
0.2544789 0.21244313 -0.9434556 
0.47887713 0.82579255 -0.29789847 
-0.69782674 0.38622126 -0.6032172 
0.15748721 0.63638085 -0.7551273 
-0.12562469 0.013369888 -0.9919878 
0.24777348 0.28427768 -0.9261721 
0.7276815 0.10416873 -0.67795914 
0.746431 0.16717024 -0.6441234 
-0.52115303 0.016997477 -0.8532941 
-0.030456437 -0.6579874 -0.7524128 
0.5004658 -0.48880836 -0.7145631 
0.30868134 -0.15388577 -0.93863475 
-0.3136973 -0.4122005 -0.8553857 
0.76018864 -0.62981206 -0.15953046 
0.22459175 -0.9575441 -0.18074255 
0.2525935 -0.84164655 -0.47731304 
-0.5143399 -0.42134973 -0.74693966 
-0.63271534 -0.37806055 -0.6758266 
0.64650774 0.21412781 -0.73224115 
-0.38892302 -0.70537823 -0.5926049 
-0.36694252 -0.27931932 -0.8873184 
-0.42297238 0.09314569 -0.90134245 
-0.11296369 -0.18110417 -0.9769547 
0.2981006 -0.10269662 -0.9489939 
-0.43787193 -0.891645 -0.11505485 
0.13216566 -0.9445552 0.30057925 
0.08124513 -0.7681053 0.6351484 
-0.7123604 0.6198028 -0.3292222 
-0.42419702 -0.405611 -0.80965227 
-0.28955024 -0.26595494 -0.9194719 
-0.19348681 0.065308966 -0.9789268 
-0.25702852 -0.4455385 -0.85757315 
-0.24484986 -0.5543556 -0.79544854 
-0.4364715 -0.71641296 -0.54428416 
0.020360122 -0.97920024 -0.20187211 
-0.16407672 -0.91147757 0.37721014 
-0.45222 -0.7902001 0.41361934 
-0.045760687 -0.8836689 -0.46587056 
-0.16819581 -0.51897883 -0.838076 
0.13212156 -0.5221406 -0.8425634 
0.13332324 0.16981773 -0.97641534 
0.07808295 0.2523702 -0.96447515 
0.46550572 -0.434534 -0.77102834 
0.7382485 -0.45854092 -0.49470133 
0.988503 0.059443504 0.13902663 
-0.54399383 -0.6477588 0.5333661 
-0.7429689 -0.6293146 -0.22794852 
-0.5658816 -0.6206944 -0.54269385 
0.047267947 -0.25084198 -0.9668734 
0.08841801 -0.32351533 -0.94208294 
-0.7309382 -0.3841429 -0.56406 
-0.04801063 -0.21402878 -0.97564685 
0.81439936 -0.12431266 -0.5668335 
0.7083364 -0.42481577 -0.5637297 
0.5071449 -0.649784 -0.56620204 
0.6471707 -0.007304782 -0.7623102 
0.5828801 0.054594092 -0.8107221 
0.8517519 0.16083889 -0.49864784 
0.09732373 -0.8399834 -0.53381264 
-0.046852015 -0.7811359 -0.62260073 
-0.37347236 -0.6724748 -0.63898057 
0.11821935 -0.77658445 -0.61882216 
-0.36870337 -0.8158403 0.4454911 
-0.5367925 -0.8195938 -0.20029952 
0.11019218 -0.51505643 -0.8500439 
0.306853 -0.31141245 -0.89936846 
0.29431015 -0.7786277 -0.5541846 
-0.7299651 -0.6699892 -0.1351497 
-0.9247433 -0.35641807 -0.1334764 
-0.049888894 0.23491539 -0.9707348 
-0.17162275 -0.17334932 -0.96979153 
0.30940646 -0.44416115 -0.8408261 
0.28323275 -0.9588121 0.021414477 
0.49337697 -0.86979884 0.0054056095 
0.16803952 -0.49068254 -0.8549816 
0.017945051 -0.68701595 -0.72642076 
0.0064535835 -0.59212655 -0.8058192 
-0.45904517 -0.62353325 -0.6328381 
-0.65836835 -0.60850775 -0.44302315 
-0.38629356 -0.916664 -0.102491185 
-0.5215993 -0.8248122 -0.21821819 
0.21045135 -0.8449574 -0.49168825 
0.0014381297 0.26235855 -0.96496946 
0.078477226 -0.06963456 -0.994481 
0.5261553 0.37740308 -0.76205486 
0.9188184 0.14564 -0.36682683 
0.7626535 -0.62892896 -0.15102313 
0.7848564 -0.3333854 -0.522355 
-0.0669358 -0.6411353 -0.7645033 
0.4280645 -0.2760815 -0.86054623 
0.7680367 -0.11017044 -0.6308583 
0.872275 -0.45729902 -0.17324564 
0.7111439 -0.19216576 -0.6762741 
-0.33445194 -0.8261453 -0.45346004 
0.25004682 -0.25168127 -0.9349509 
0.26195744 -0.9275835 -0.2663967 
0.023340333 -0.9973886 -0.068347506 
-0.06777343 -0.6741194 -0.7355065 
0.49004933 -0.2522318 -0.8344045 
-0.5007765 0.06703178 -0.86297715 
-0.7495806 -0.489561 -0.44548744 
-0.4887533 -0.75516343 -0.4368622 
-0.9143361 -0.34574527 -0.21083152 
-0.35865715 -0.3627571 -0.8601002 
-0.83336836 0.0699877 -0.54826915 
-0.70301247 -0.1222707 -0.7005879 
0.05647596 -0.9403139 -0.3355894 
-0.25478896 -0.78275484 -0.56778294 
0.1842606 -0.67350936 -0.71584445 
0.27370268 0.0788076 -0.9585803 
-0.019980025 -0.35070825 -0.9362716 
-0.040532403 -0.5184675 -0.8541361 
-0.65663594 -0.14785305 -0.73957336 
-0.50291896 0.1647333 -0.8484902 
-0.433634 0.33572882 -0.8362103 
-0.32796308 -0.21051216 -0.920937 
0.16248214 -0.28296033 -0.9452688 
0.2510996 -0.78849196 -0.56145304 
-0.5579151 -0.7267089 -0.40078044 
0.13930254 -0.27650538 -0.9508626 
0.879022 -0.4475292 -0.1644324 
-0.15715824 -0.6154095 -0.77238107 
-0.11971241 -0.8649286 -0.48740914 
-0.17591919 -0.88830006 -0.42423525 
-0.12313301 -0.9920361 0.026509235 
-0.5806729 -0.72037655 -0.37931094 
0.19602351 -0.5110941 -0.83687377 
0.5843703 -0.74272 -0.32692257 
0.5605629 -0.21835487 -0.79880565 
0.28075925 -0.95963824 -0.016394239 
-0.46735162 -0.884049 0.0063169743 
0.047208235 -0.9978057 -0.04642414 
0.59043556 -0.8064501 -0.031999886 
0.32052484 -0.72663385 -0.6076736 
0.3814962 -0.6947482 -0.60974234 
0.71204364 -0.6174541 -0.33428174 
0.17850457 -0.5938374 -0.7845339 
-0.039462786 -0.9451568 0.3242243 
-0.37889892 -0.8404263 -0.38745236 
0.11014425 -0.3232999 -0.9398646 
-0.54970515 -0.4276176 -0.7176123 
-0.15162462 -0.7601619 -0.6317941 
0.6050378 -0.2672822 -0.7499931 
0.8666303 -0.43155956 -0.2504164 
0.72067827 0.21415797 -0.6593628 
-0.682293 -0.68903565 -0.24434842 
-0.6590741 -0.5502993 -0.5126325 
-0.31135026 -0.766828 -0.56128067 
0.19654927 -0.35329658 -0.91463107 
0.13737063 0.09737895 -0.9857214 
0.06212022 -0.34788826 -0.9354757 
0.4338366 -0.82332855 -0.3659454 
0.31615886 -0.26829627 -0.90997845 
0.40355337 -0.73582983 -0.54378223 
0.008835021 -0.09134259 -0.99578035 
-0.44720244 0.67474544 -0.5871359 
-0.5138123 -0.51840377 -0.68356013 
-0.1548415 0.2840875 -0.9462127 
0.7835348 -0.017618584 -0.621098 
0.16454509 -0.15938546 -0.9734071 
0.2132247 0.57167524 -0.7922895 
-0.083618924 -0.7800349 -0.6201238 
-0.48575953 -0.6178145 -0.61833894 
-0.82249874 -0.5034809 -0.26458046 
-0.1917611 -0.71233845 -0.6751309 
-0.0012613105 -0.8657958 -0.5003959 
0.43857118 -0.89256966 0.10476026 
-0.2511007 -0.8925636 0.37453812 
-0.65153784 -0.6361845 0.4132407 
-0.54065084 -0.80021954 -0.2595102 
-0.8604478 -0.43649265 -0.26287612 
-0.23931101 -0.46123537 -0.8543958 
-0.24984853 -0.6935031 -0.6757435 
-0.23204252 0.21479373 -0.9486938 
-0.39372987 -0.21478567 -0.8937807 
-0.095312946 0.05056573 -0.9941623 
0.20582584 -0.24382745 -0.94772565 
-0.0724155 0.12408486 -0.98962563 
-0.4935203 -0.23270652 -0.83802474 
-0.09547531 0.42322585 -0.90097976 
0.20644072 -0.21471243 -0.95461035 
-0.19915426 0.24526615 -0.9487793 
-0.123523206 -0.54060715 -0.8321575 
0.62849164 0.10024781 -0.77132916 
0.3934703 -0.36369777 -0.8443371 
0.009745468 0.13051303 -0.99139875 
0.15799963 -0.6901722 -0.7061859 
-0.21119744 -0.623074 -0.75311 
-0.39601547 -0.8378295 -0.3757841 
-0.5200216 -0.39181703 -0.75898415 
-0.8229486 -0.41352886 -0.38955066 
-0.08622273 -0.8172503 -0.56979626 
0.337576 -0.3663631 -0.86707586 
0.45900044 -0.85864633 -0.2281341 
0.6194118 -0.69712937 -0.36102584 
0.96437496 -0.11313021 -0.23912846 
0.8780967 -0.22094451 -0.42441678 
0.6742287 -0.7157132 -0.18212725 
0.5391348 -0.83077544 0.13836852 
-0.17217536 -0.9744503 -0.14423062 
-0.07266466 -0.85617507 -0.5115507 
-0.23437724 -0.57773715 -0.7818486 
-0.62193364 -0.39260548 -0.6775394 
-0.528478 -0.7300577 -0.43327445 
-0.22180447 -0.12156798 -0.9674834 
-0.04533739 0.1244955 -0.9911838 
-0.6854605 0.4110963 -0.6009523 
-0.20514011 0.03585475 -0.9780756 
-0.524277 -0.14893688 -0.838422 
0.47104874 -0.72343576 -0.50473136 
-0.08508989 -0.99590904 0.030413117 
-0.06026725 -0.10603563 -0.9925343 
0.28479314 -0.7729071 -0.5670164 
0.56985873 -0.72977203 -0.3777485 
0.08905936 -0.76768655 -0.6346067 
0.5209146 -0.7766021 -0.35431233 
0.63047016 -0.5901585 0.50420266 
0.17832117 -0.96736556 -0.18001533 
-0.7334936 -0.50979334 0.44955298 
-0.24639626 -0.7225378 -0.6459319 
0.06157271 -0.45660418 -0.8875367 
0.8683083 -0.25225762 -0.42709106 
0.315525 -0.6922611 -0.6490136 
0.0764289 -0.86083645 -0.5031095 
-0.51663053 -0.81660354 0.25739405 
0.013753511 -0.58106565 -0.81374043 
-0.66549754 -0.45585507 -0.591024 
-0.57970876 -0.80876875 -0.09915132 
-0.17291689 -0.63447654 -0.75335205 
0.073628604 -0.12021364 -0.99001396 
-0.10090747 -0.06713533 -0.9926281 
-0.38034385 0.06049172 -0.92286474 
0.6901844 -0.40000057 -0.6030299 
0.8419899 -0.45897612 0.28353855 
0.13559635 -0.9642642 0.22761427 
-0.60439926 -0.7883425 0.11496828 
0.26427528 -0.9496422 -0.1683397 
-0.4742446 -0.8759285 -0.08855154 
-0.26294005 -0.9647984 -0.005166408 
-0.124411695 -0.9917442 0.031069614 
0.07394093 -0.97421986 -0.21313986 
-0.60535204 -0.7934916 -0.062609285 
-0.35992137 -0.4455078 -0.8197435 
-0.2557225 -0.2889897 -0.92254597 
-0.58553094 -0.52877593 -0.61445063 
-0.28771213 -0.020583902 -0.95749575 
-0.33950332 -0.7751759 -0.53276616 
-0.15254772 -0.9865511 -0.058705207 
0.14333637 -0.8910323 -0.430716 
-0.4605351 -0.7681214 -0.4448561 
-0.4419972 -0.438746 -0.7823942 
-0.9096142 -0.011527351 -0.4152941 
-0.45369992 0.06813817 -0.8885458 
-0.50350523 0.38402683 -0.7739547 
-0.16524464 0.80922395 -0.56378275 
-0.04398612 0.17487878 -0.98360693 
-0.03446706 0.7795497 -0.6253913 
-0.29158565 0.51453173 -0.8063715 
-0.30125114 -0.02163456 -0.95329946 
0.44459006 -0.16353561 -0.88067913 
-0.40613967 -0.791469 -0.45675766 
0.17367023 0.20846415 -0.96248704 
-0.041087326 -0.6853873 -0.72701865 
-0.14521311 -0.24655363 -0.9581882 
-0.3702783 -0.23635858 -0.8983478 
-0.12881513 -0.25454944 -0.95844215 
0.3631287 -0.8308144 -0.4217641 
0.23920046 -0.71156937 -0.6606453 
0.9695038 -0.19794406 -0.14450088 
0.89452165 -0.09506586 0.43679935 
0.63357335 -0.7103084 -0.3066706 
0.73455703 -0.67299 -0.08666255 
0.14166409 -0.76256895 -0.63120514 
-0.049293347 -0.87764484 -0.47677022 
-0.05117143 -0.26089343 -0.96401054 
-0.24421401 -0.5183293 -0.8195696 
-0.38811436 -0.5568384 -0.73436934 
0.05237558 0.3068486 -0.95031613 
-0.45340845 0.28152966 -0.84567255 
-0.35072073 -0.46190077 -0.8146427 
0.05342052 -0.7734364 -0.6316189 
0.17486024 -0.8424851 0.5095516 
-0.5382069 -0.8370221 0.098627545 
-0.9610141 -0.12894452 0.24459195 
-0.66363245 -0.47714525 -0.57612884 
-0.40778264 -0.03916148 -0.91223884 
0.24505468 0.31719238 -0.91615355 
-0.11071814 -0.25515673 -0.96053976 
-0.33495703 -0.39369994 -0.8560398 
-0.5862648 -0.6755887 -0.44707227 
0.0697902 -0.7589801 -0.6473629 
-0.08075141 -0.97590876 -0.2026853 
0.07890769 -0.37146538 -0.9250876 
0.19985488 -0.654513 -0.72915757 
-0.063874826 -0.09034634 -0.99385995 
0.4768422 0.03399754 -0.8783313 
-0.22748508 -0.09136615 -0.9694859 
-0.22059831 0.41863227 -0.88095605 
-0.30301106 0.16616096 -0.93838954 
0.13627575 0.38471276 -0.91292113 
0.24522713 -0.78439224 -0.5697303 
-0.8139686 -0.2182018 -0.5383707 
-0.5979116 0.19184302 -0.7782661 
-0.28478032 -0.9318292 -0.22493206 
-0.1894717 -0.7861092 -0.5883306 
0.3265211 -0.13917059 -0.934888 
-0.34209308 -0.5386005 -0.76998824 
-0.097651824 -0.019835725 -0.99502295 
0.08755266 -0.065089814 -0.9940312 
0.012881625 -0.565905 -0.8243699 
-0.2703645 0.3649077 -0.8909239 
0.028837705 0.1050482 -0.99404895 
0.035612717 -0.0031069175 -0.9993609 
0.5223626 0.2877333 -0.8027123 
-0.3266787 0.005700242 -0.9451183 
-0.37447459 0.17682064 -0.9102216 
0.41343352 0.10269858 -0.90472424 
-0.16220802 -0.23834342 -0.9575391 
-0.3260431 -0.6193448 -0.7142185 
-0.5545291 -0.32992354 -0.76396865 
-0.026484631 -0.78510904 -0.6187911 
0.3801325 -0.2575615 -0.88834757 
0.11272826 -0.25256908 -0.9609898 
0.026518842 -0.25894827 -0.9655271 
-0.6596877 -0.21181777 -0.72107244 
-0.48388708 -0.18613943 -0.8551055 
-0.7169496 -0.42883724 -0.54961985 
-0.52247554 -0.18424605 -0.83251 
-0.24663337 -0.68058574 -0.6899095 
-0.0036278116 -0.8289073 -0.55937433 
0.30623943 -0.7883838 -0.5335434 
-0.048289143 -0.6286513 -0.7761867 
0.4727978 -0.2987959 -0.8289652 
-0.6921051 -0.6468062 -0.3203628 
-0.27782774 -0.9051241 -0.32181075 
0.079689585 -0.94233733 -0.32503837 
-0.29644886 -0.08163446 -0.9515534 
0.100692384 0.31779012 -0.9427993 
-0.7667316 0.19225802 -0.6125028 
0.09408761 0.13812697 -0.98593533 
0.348815 0.81934315 -0.45497784 
0.29591325 0.68752074 -0.66313696 
0.439309 -0.2854346 -0.8517833 
-0.004055936 -0.72935313 -0.6841255 
0.64395875 -0.03720712 -0.7641549 
0.6981864 -0.27611464 -0.66052747 
0.7052245 0.23576923 -0.66863394 
0.08473035 -0.54477465 -0.834291 
0.6197889 -0.18130709 -0.7635376 
0.5568776 -0.01896756 -0.830378 
0.6857918 -0.13261083 -0.7156144 
0.07298072 -0.6053225 -0.7926277 
0.3429405 -0.07247655 -0.93655694 
0.34641594 -0.35234404 -0.86939615 
-0.25066537 0.31636104 -0.91492224 
-0.46590158 0.35218507 -0.81172746 
-0.69827515 -0.51128644 -0.50099707 
-0.20422307 -0.872347 -0.4441887 
0.039256707 -0.3990627 -0.916083 
-0.48200476 -0.6491646 -0.5884358 
-0.6279425 -0.22467393 -0.74512404 
-0.31620398 -0.5867782 -0.7454572 
-0.6458712 -0.5974426 -0.47530282 
-0.62403923 -0.28800854 -0.72637886 
-0.15588318 -0.21882175 -0.96323293 
0.21206436 -0.13216914 -0.96827686 
-0.34530246 -0.37883458 -0.858633 
-0.1891308 -0.1442134 -0.9713043 
0.1609488 -0.06852508 -0.9845811 
-0.3443202 -0.2544077 -0.90372586 
-0.22866023 -0.7095265 -0.66654843 
0.33477336 0.15999864 -0.92861587 
0.48473382 0.19225718 -0.8532705 
0.14402255 -0.094829686 -0.9850203 
-0.14687732 -0.4074983 -0.90131694 
-0.17930982 -0.2875701 -0.9408249 
0.6804249 -0.56804377 -0.4629776 
0.050463803 -0.977851 -0.2031281 
-0.4102164 -0.9095521 -0.06661443 
0.57444257 -0.50894403 -0.64108646 
0.44254112 -0.07727642 -0.8934125 
-0.33022723 -0.41410962 -0.8482118 
-0.28789353 -0.5412489 -0.7900424 
-0.1799074 -0.6687262 -0.7214143 
0.57776845 -0.15674883 -0.80100775 
-0.112203345 -0.55713075 -0.82280964 
0.3582727 -0.70406705 -0.6131316 
0.13330781 -0.55396396 -0.8217987 
0.24102028 -0.32697 -0.91378325 
-0.0026578386 -0.14557225 -0.98934406 
0.06447616 -0.02893028 -0.9974998 
0.25097853 -0.47214076 -0.84504014 
0.3593364 -0.7766405 -0.5174041 
0.7322094 -0.680461 0.029022196 
-0.069523156 -0.95038986 -0.30319244 
0.41322178 -0.7038267 -0.5778199 
0.19457035 -0.042027976 -0.97998774 
0.15491742 -0.006590444 -0.98790544 
0.4472058 -0.20490795 -0.87064326 
-0.17256926 -0.782402 -0.59838706 
0.13276334 -0.9656922 -0.22318731 
-0.44995022 -0.6821961 -0.5763274 
-0.6851804 -0.57762194 -0.4437126 
-0.5984454 -0.4844954 -0.6380653 
-0.34800512 0.4009837 -0.84741056 
-0.29469165 0.3614633 -0.884591 
-0.036563013 -0.49619457 -0.8674412 
-0.38484514 -0.76690984 -0.51355964 
-0.4799443 -0.38465935 -0.7884737 
-0.21300952 0.6851718 -0.69653904 
0.22199474 -0.015140847 -0.97493035 
0.015110842 0.2853984 -0.9582899 
-0.46188474 -0.8048384 -0.37268996 
-0.4162293 0.40805325 -0.812555 
0.43438718 0.025088828 -0.90037686 
0.3887526 0.4838584 -0.7840615 
-0.4982796 0.5481144 -0.6717798 
-0.15411426 0.37792662 -0.9129186 
-0.049948946 -0.5246592 -0.8498457 
-0.22556186 -0.42351127 -0.8773597 
0.08216874 -0.47514638 -0.87606186 
-0.4755473 -0.69484717 -0.5394833 
-0.41167676 -0.8996834 -0.14523089 
-0.23572174 -0.8096322 -0.5375231 
-0.8062572 -0.5778633 -0.12658407 
-0.76925427 -0.43490893 -0.4680836 
-0.73652774 -0.16565238 -0.6558096 
-0.6095519 -0.096176185 -0.78689057 
-0.25077218 -0.3797224 -0.890463 
-0.15930088 0.09755008 -0.9823988 
0.71798474 0.0046218727 -0.6960435 
0.4207902 -0.18912831 -0.8872239 
0.35283375 0.016199693 -0.9355458 
0.07017297 0.14407305 -0.9870759 
0.60603285 0.07732596 -0.79167235 
0.44912696 0.33008873 -0.8302569 
0.16206926 0.1699701 -0.9720307 
-0.12992555 0.40653545 -0.9043497 
0.30843306 -0.07868588 -0.94798607 
0.14079107 -0.39563677 -0.90755147 
0.42785034 -0.16471705 -0.888714 
0.40262976 -0.27710086 -0.87241304 
0.4667614 -0.35094106 -0.8117723 
-0.14733407 -0.8373852 -0.5263826 
-0.3117819 -0.8047424 -0.5051552 
-0.24049632 -0.021149267 -0.97041965 
-0.4085065 -0.7517751 -0.5176454 
-0.37372598 -0.7166965 -0.5887912 
-0.34899762 -0.3174958 -0.88170123 
0.3202954 -0.8194143 -0.47536424 
0.55296284 -0.5224905 -0.6490269 
0.6821406 -0.3837723 -0.6224171 
0.82347083 -0.45872048 0.33387324 
0.7471392 -0.63507885 0.19610682 
0.23187321 -0.95039797 0.20731287 
-0.11510906 -0.36555293 -0.9236455 
-0.1367511 -0.5399177 -0.8305348 
0.003303074 -0.096421525 -0.99533516 
-0.052504215 -0.2160354 -0.9749729 
0.082904406 -0.30482697 -0.9487926 
-0.87676275 -0.14880906 -0.45732152 
-0.42296353 -0.21367331 -0.8805939 
-0.6703061 0.50525934 -0.5435098 
-0.804309 -0.22805318 -0.5487064 
-0.24582715 -0.57665867 -0.77912384 
-0.2774133 0.041142177 -0.9598694 
-0.4273768 -0.37224713 -0.8238818 
0.08187204 0.13013338 -0.9881105 
0.20383626 -0.3490069 -0.914683 
0.63598675 -0.18426192 -0.74937874 
0.15032955 -0.2490051 -0.95676416 
0.564356 -0.41141304 -0.71571064 
0.62211806 -0.6454413 0.44314194 
-0.0065035545 -0.9998925 -0.013147404 
-0.033809543 -0.9725398 0.23026791 
0.019106477 -0.714776 -0.6990925 
0.17884111 -0.35929722 -0.9159265 
0.6921712 -0.38054317 -0.61325854 
-0.16504067 -0.62710243 -0.7612516 
0.36836818 -0.60616636 -0.70488816 
-0.019439504 -0.5519303 -0.8336637 
-0.18308333 -0.27791524 -0.9429972 
0.0142742405 0.20974782 -0.9776513 
-0.827626 0.03405761 -0.5602457 
-0.114171825 -0.6716742 -0.73199636 
-0.34183857 0.05052217 -0.93839973 
0.11779379 0.04519805 -0.992009 
0.04163725 -0.0985295 -0.99426275 
0.6762177 -0.69529724 -0.24349847 
0.45701644 -0.8805768 -0.12538147 
0.43523073 -0.822933 -0.36517859 
0.16164462 -0.9748048 -0.15370943 
0.23402652 -0.8713725 -0.43120944 
-0.3884961 -0.662569 -0.64036953 
-0.037141733 -0.95555 -0.29248014 
-0.3389446 -0.6150133 -0.71195173 
-0.38386008 -0.6491842 -0.6566669 
-0.48737788 -0.79367906 -0.36405563 
-0.37801343 -0.607482 -0.69862115 
-0.16192049 -0.68073595 -0.7144092 
-0.4604604 -0.42068574 -0.7816647 
0.32668546 -0.5328589 -0.780601 
0.123992 -0.44906372 -0.8848547 
-0.1358846 -0.990369 0.026545381 
-0.7596456 -0.54193497 -0.35950688 
-0.36785397 -0.12586066 -0.9213266 
0.12689771 -0.36416745 -0.9226479 
-0.40862772 0.64169896 -0.6490346 
-0.40128976 0.42025608 -0.8138498 
-0.88503397 -0.028671734 -0.46464267 
-0.69276565 0.43099004 -0.578207 
0.007272167 0.4941445 -0.8693494 
-0.45304388 0.39140883 -0.80096847 
-0.023379162 0.47028986 -0.8822023 
0.50980717 0.01830637 -0.860094 
0.022062512 0.29954353 -0.9538276 
-0.4657906 -0.3710992 -0.803321 
0.13150077 -0.8523467 -0.5061745 
-0.39339936 -0.30150983 -0.86852103 
0.27560723 -0.6931278 -0.66604394 
-0.23152766 -0.16978006 -0.9578986 
-0.7389908 0.12818608 -0.66140836 
0.5283019 -0.50492483 -0.6826039 
0.36994025 -0.7515507 -0.54618293 
0.37470463 -0.9211163 -0.10555263 
0.110374406 -0.82482654 0.55450773 
0.115132436 -0.9822103 0.14834905 
0.038828697 -0.98565066 0.16427174 
-0.41709667 -0.49620354 -0.7614543 
0.22246741 -0.9104453 -0.34870845 
-0.29795077 0.19732337 -0.933964 
-0.7231625 0.2905926 -0.6265716 
-0.6014003 0.064814076 -0.7963145 
-0.15784493 -0.17416295 -0.9719837 
0.6318627 -0.09249364 -0.7695418 
0.16922823 -0.41376463 -0.89451706 
0.03475227 -0.12241862 -0.9918699 
0.14138164 -0.40945712 -0.901308 
-0.45653322 -0.88816696 0.05231507 
-0.7195697 -0.68021667 0.13973123 
-0.48175544 -0.73532504 -0.4766643 
0.2321257 -0.2680153 -0.93503237 
0.31411293 0.02360404 -0.9490922 
0.27529743 -0.076343946 -0.958323 
-0.11175009 -0.54137886 -0.8333193 
-0.5293574 -0.14483619 -0.8359446 
0.6108403 -0.10271284 -0.78506327 
0.0945201 -0.719223 -0.68831986 
0.21498936 -0.5374424 -0.8154357 
-0.43798974 -0.45140868 -0.7774286 
-0.5115134 -0.18906835 -0.8382167 
-0.08483531 0.12920083 -0.9879829 
0.28532028 0.07329182 -0.9556258 
-0.07421314 0.060362898 -0.9954139 
0.5620921 0.49700335 -0.66109014 
0.14900064 0.20710316 -0.96690595 
0.13655369 -0.35116032 -0.9263042 
-0.47825003 0.23198579 -0.8470298 
0.15364045 -0.5883606 -0.793868 
0.37105548 -0.85209006 -0.3691347 
-0.053326055 -0.61215323 -0.78893906 
-0.74916923 0.025463145 -0.66188914 
-0.314988 -0.19393708 -0.92907 
-0.2432386 -0.1720644 -0.9545831 
0.27936468 -0.33683875 -0.89916354 
0.6952543 -0.61974216 -0.36406213 
0.21363758 -0.45799223 -0.86290336 
-0.43685454 -0.25232044 -0.8634191 
-0.17457455 -0.20271547 -0.96355087 
-0.0011885458 -0.050708797 -0.9987128 
0.27170497 -0.037860177 -0.96163565 
0.047016393 0.24051258 -0.9695067 
0.0661959 0.056527853 -0.9962042 
0.20652722 -0.5232275 -0.8267887 
-0.10638818 -0.55208576 -0.8269722 
-0.3176361 -0.64666605 -0.6934915 
-0.10803262 -0.34464997 -0.93249416 
-0.21122098 -0.030033205 -0.9769768 
-0.20196028 0.09391978 -0.9748801 
-0.10807472 -0.22618972 -0.9680693 
-0.3755845 -0.41102573 -0.8306589 
0.19758415 -0.37959978 -0.9038057 
-0.15871586 -0.9110668 -0.38048208 
0.49143404 -0.2733979 -0.8268895 
-0.12695663 -0.7804047 -0.61225045 
0.10109588 0.2089804 -0.97268033 
-0.35674936 -0.5302779 -0.7691133 
0.23250268 0.06447026 -0.9704567 
0.24190347 -0.4869254 -0.8392773 
-0.070137225 -0.67163444 -0.73755544 
0.15350163 -0.86635274 -0.4752581 
0.56817925 -0.35382512 -0.7429537 
0.21492723 -0.11384624 -0.96997184 
-0.1404726 -0.1414978 -0.9799214 
-0.34249347 -0.39572057 -0.8521171 
0.1360814 0.11858183 -0.9835753 
-0.21051101 0.028793294 -0.97716737 
-0.55061376 0.30538946 -0.7768925 
0.2712319 0.3020523 -0.91389155 
0.16295426 -0.36188653 -0.9178693 
0.34586284 0.35583213 -0.86819494 
0.17340256 0.33672187 -0.9254999 
0.43645495 0.451556 -0.77820575 
0.31355414 -0.46620336 -0.8272474 
0.6368008 -0.08245895 -0.7666064 
0.4904193 0.3741482 -0.7870846 
0.53327256 0.45808473 -0.7111813 
0.40933073 -0.1320086 -0.9027857 
0.28440356 0.25306088 -0.92470264 
0.14601801 0.19690157 -0.9694888 
0.33699927 -0.03674437 -0.94078773 
-0.14709204 -0.059517827 -0.98733056 
-0.49867612 -0.3745284 -0.78169733 
0.11958066 -0.65757525 -0.74383825 
0.35365605 0.04199534 -0.9344324 
0.12514748 -0.72510743 -0.6771687 
-0.20479321 -0.3547337 -0.912263 
-0.5985514 0.29734758 -0.74385536 
-0.6782079 -0.47676367 -0.55922323 
-0.23928759 -0.32551083 -0.91475916 
0.0223902 0.20503487 -0.9784986 
-0.256805 0.09866302 -0.96141404 
-0.164944 -0.18982819 -0.967863 
0.45888743 -0.007960556 -0.88845885 
0.075775355 -0.3290218 -0.9412772 
-0.36978388 -0.106836945 -0.922955 
-0.5855826 -0.49013025 -0.6456511 
0.5695853 -0.21705663 -0.7927542 
-0.12722924 -0.7311424 -0.67025644 
0.014270154 -0.24761711 -0.9687529 
0.47746524 0.00738379 -0.8786197 
0.3188459 -0.13752565 -0.93777615 
0.8833835 -0.28544894 -0.3716888 
0.515222 -0.8540736 0.071448095 
0.49579933 -0.8154497 -0.29870537 
-0.053676844 -0.34149286 -0.9383504 
0.02319413 -0.42600352 -0.9044242 
0.51199555 0.093738124 -0.85385823 
-0.060627017 0.14769891 -0.9871725 
0.28119582 -0.47137612 -0.83590287 
0.3418717 -0.23334277 -0.9103158 
-0.08318694 0.044969253 -0.9955188 
0.4969065 -0.53039116 -0.6868546 
-0.066099085 0.33555657 -0.9396982 
-0.79473245 0.2789258 -0.53907406 
-0.023604922 0.2825625 -0.9589585 
0.30986843 0.28977424 -0.9055454 
0.55856746 -0.74667203 -0.36122474 
0.17702311 -0.40143472 -0.8986174 
0.7267598 -0.5886091 -0.3540615 
0.16708615 -0.8104568 -0.5614643 
-0.401252 -0.7269316 -0.55728567 
-0.59265965 -0.38033354 -0.7100007 
-0.21454859 -0.6789907 -0.7020973 
0.056922633 -0.63864434 -0.7673939 
-0.20286138 -0.8690606 -0.4511996 
-0.18983677 -0.6222294 -0.75946873 
-0.41927812 -0.077073425 -0.90458035 
-0.46928984 -0.7371794 -0.48614168 
0.22478162 -0.3140485 -0.92241365 
0.047965102 0.33178407 -0.9421353 
-0.5307117 0.17375277 -0.8295512 
-0.22688341 0.7548647 -0.6153888 
-0.009625423 0.124994375 -0.9921108 
-0.39472735 -0.253596 -0.8831078 
-0.24367906 0.37920994 -0.892648 
-0.33311233 -0.48279482 -0.8099046 
-0.45801497 -0.039744448 -0.8880557 
-0.07183011 -0.27894 -0.9576184 
-0.55807966 -0.024640353 -0.82942146 
0.7646379 0.091039956 -0.63799745 
0.47633255 0.27489805 -0.83518773 
0.6126665 -0.0461921 -0.7889906 
0.16421078 -0.00049942697 -0.9864252 
-0.015880806 -0.5211943 -0.8532904 
-0.25397483 -0.482579 -0.838221 
-0.48472795 -0.37221757 -0.791513 
-0.53747815 -0.7127933 -0.45060313 
-0.64174056 -0.47572863 -0.60154074 
-0.35499927 -0.6746056 -0.6472116 
-0.34738216 -0.68341535 -0.6420819 
-0.3010267 0.2737433 -0.913481 
-0.78493947 -0.21335165 -0.5816796 
-0.23100638 0.08847347 -0.96892136 
-0.5180047 -0.09466787 -0.850123 
-0.33971813 0.3299801 -0.880741 
-0.07417628 0.42204562 -0.90353495 
-0.14085516 0.1456165 -0.9792628 
0.36629525 0.26798317 -0.89107406 
0.22073108 0.2857696 -0.9325307 
0.33498117 0.8202751 -0.4636123 
0.420459 0.89123464 -0.17004408 
-0.42466718 0.28127912 -0.86054623 
0.23221278 0.48382646 -0.84379464 
0.13373005 0.00090801413 -0.9910174 
-0.18605158 0.08367222 -0.9789708 
0.6539895 0.055352263 -0.75447595 
0.7657693 -0.04552213 -0.64150226 
0.4058023 -0.7468512 -0.5268186 
-0.28358072 -0.7867053 -0.5483402 
-0.84316736 -0.41528463 -0.3414785 
-0.68983495 -0.07175207 -0.7204023 
-0.45584 -0.46550375 -0.7586279 
-0.49915832 -0.24066262 -0.83241975 
0.008386614 -0.39901152 -0.91690767 
0.16876897 -0.80560327 -0.5679088 
-0.1321432 -0.81804585 -0.5597671 
0.9063657 0.32723847 -0.26723796 
0.70730823 -0.6639777 -0.2425876 
0.6373098 -0.53881514 -0.5509215 
0.6243981 -0.7802512 -0.03654116 
0.20237839 -0.79682285 -0.56931233 
0.20555086 0.32844442 -0.92188567 
0.5127386 -0.008088139 -0.85850674 
-0.26414263 -0.18453819 -0.9466649 
0.34759092 -0.35667276 -0.8671593 
-0.5000361 0.008937276 -0.8659584 
-0.7069169 -0.22842464 -0.66939574 
-0.802529 -0.15896627 -0.5750452 
-0.89891046 -0.0770425 -0.43130562 
-0.100305006 0.07870308 -0.9918391 
0.002280643 0.22845447 -0.973552 
0.05552043 -0.13188204 -0.9897094 
-0.25693792 -0.13137557 -0.9574568 
-0.25532416 0.21854848 -0.94183123 
-0.22972709 -0.62594235 -0.7452662 
-0.0060313786 0.28296864 -0.9591102 
0.11908345 -0.37941962 -0.91752934 
0.29624593 -0.0876543 -0.95108104 
0.07780381 -0.17168576 -0.9820746 
0.123327546 -0.75424814 -0.6449033 
0.026422923 -0.9393794 0.34186023 
0.22629854 -0.97333133 -0.037619043 
-0.045041006 -0.5678371 -0.82190776 
-0.011928583 -0.57755905 -0.8162619 
-0.26434278 -0.6573687 -0.70568365 
-0.71103173 -0.21406795 -0.6697827 
0.69625497 0.098604195 -0.7109896 
-0.31198665 0.7589385 -0.57155657 
-0.86361736 -0.035220418 -0.5029161 
-0.73067456 -0.68215024 -0.028031912 
-0.26879147 -0.12570766 -0.9549601 
-0.16408853 -0.27998486 -0.94587713 
-0.031011125 0.070142165 -0.9970549 
0.095623866 -0.5428462 -0.8343705 
0.2906516 -0.5133734 -0.80744636 
0.013996965 -0.4554082 -0.8901727 
-0.1393747 -0.8981807 -0.4169485 
0.25966656 -0.32885918 -0.9079786 
0.14077581 -0.6773433 -0.7220722 
0.3772082 -0.18153161 -0.9081632 
-0.32616132 -0.8450443 -0.4236967 
0.5072938 -0.8272039 -0.24163342 
0.041211482 -0.70536774 -0.70764256 
0.22269095 -0.4977551 -0.8382414 
-0.3699871 0.065762 -0.92670655 
-0.27593866 -0.12868197 -0.95252234 
0.59318525 -0.4727657 -0.6516318 
0.19020732 -0.363936 -0.911796 
-0.31997508 -0.5246835 -0.7888746 
0.039544124 -0.5325726 -0.8454601 
-0.07995368 -0.6368794 -0.76680636 
0.82206935 -0.51417583 -0.24459197 
-0.7473188 0.6221749 0.23326586 
-0.5734515 0.10170578 -0.8129018 
-0.55008477 0.5032622 -0.6664338 
-0.88213474 -0.45042175 -0.13769044 
-0.8888892 0.4491456 0.09024553 
-0.983272 0.13855773 -0.11822845 
-0.113371804 0.11330374 -0.98707104 
-0.6282473 0.09315855 -0.7724163 
-0.19312695 -0.7495583 -0.6331385 
-0.11347049 -0.4187046 -0.9010055 
0.28413823 -0.7790335 -0.5589028 
-0.29320785 -0.4757604 -0.8292655 
0.48402408 -0.014624466 -0.8749325 
-0.30951315 0.24474466 -0.918859 
0.33283344 -0.3173096 -0.8879958 
-0.14479324 -0.37097183 -0.91728675 
0.4141738 -0.33940917 -0.84454817 
-0.36209214 -0.9016267 -0.23655605 
-0.38215593 -0.3097471 0.8706398 
-0.32455304 -0.9222882 -0.20988075 
-0.5257759 -0.4150534 -0.7424894 
-0.13724203 0.27251494 -0.9523131 
0.34944493 0.26058328 -0.89999145 
0.12710832 0.09110845 -0.98769575 
-0.74380904 -0.51417285 -0.42705315 
-0.41263312 0.31393307 -0.85509056 
0.028172016 0.4553462 -0.88986874 
0.5341107 0.18386558 -0.8251784 
-0.13440533 -0.6696111 -0.7304494 
0.026568377 0.06494376 -0.9975352 
0.33460328 -0.22907466 -0.9140927 
-0.553278 -0.5742042 -0.6034676 
-0.43343186 -0.60213083 -0.67050374 
-0.80228466 -0.20004535 -0.5624244 
-0.28250486 -0.14704885 -0.9479281 
-0.094495066 0.4298036 -0.8979642 
-0.19888033 0.239311 -0.95035625 
-0.3606046 -0.30620578 -0.8810235 
-0.68657804 -0.40748537 -0.6021348 
-0.39587647 -0.25515342 -0.8821443 
0.15619877 -0.74908096 -0.64380103 
-0.5735537 -0.7211454 -0.3885687 
-0.35631528 -0.3119478 -0.8807543 
-0.32592207 -0.19691598 -0.9246616 
-0.07059274 -0.141861 -0.9873663 
0.54159653 0.27486768 -0.7944312 
0.6781443 -0.04656222 -0.7334523 
0.13505404 -0.5208073 -0.8429236 
-0.023930877 0.79300135 -0.6087497 
-0.59154606 0.17563657 -0.7869087 
-0.61706233 0.34552872 -0.7069965 
-0.7111813 0.36896145 -0.5984052 
0.2610073 -0.08012327 -0.96200603 
0.11022065 0.11606637 -0.987107 
0.33657268 -0.11350341 -0.9347919 
0.74349886 0.13941383 -0.6540438 
0.12536429 0.35556015 -0.9262078 
0.7386597 -0.026009187 -0.6735766 
0.74139696 0.2181645 -0.634614 
-0.08941442 -0.6876898 -0.7204776 
-0.16311347 -0.5696746 -0.8055216 
0.4922129 -0.13666579 -0.8596795 
-0.08940097 0.6553779 -0.7499916 
-0.366686 -0.027403582 -0.9299411 
-0.10460156 0.7063885 -0.7000528 
-0.1410631 0.1603737 -0.9769246 
-0.28773808 0.1672576 -0.9429909 
-0.71681756 -0.08147943 -0.6924838 
-0.2449147 0.50874925 -0.825343 
-0.2030649 -0.09371077 -0.97467065 
0.12499566 -0.11145383 -0.98587734 
-0.30532447 -0.4573852 -0.83520997 