# OOMMF: rectangular mesh v1.0
# Segment count: 1
# Begin: Segment
# Begin: Header
# Desc: Time (s) :  7.390000000000017e-07
# Title: m
# meshtype: rectangular
# meshunit: m
# xbase: 2e-09
# ybase: 2e-09
# zbase: 5e-10
# xstepsize: 4e-09
# ystepsize: 4e-09
# zstepsize: 1e-09
# xmin: 0
# ymin: 0
# zmin: 0
# xmax: 1.024e-06
# ymax: 1.024e-06
# zmax: 1e-09
# xnodes: 256
# ynodes: 256
# znodes: 1
# ValueRangeMinMag: 1e-08
# ValueRangeMaxMag: 1
# valueunit: 
# valuemultiplier: 1
# End: Header
# Begin: Data Text
-0.60627455 -0.3849764 -0.6958624 
-0.80576026 -0.46237707 -0.37007824 
-0.38005337 0.10812353 -0.9186233 
-0.041403662 -0.41848293 -0.90728045 
-0.29834005 -0.45607802 -0.83844274 
-0.561104 0.05510206 -0.82590926 
0.07713468 -0.7450659 -0.6625158 
-0.13104892 -0.7175345 -0.6840837 
0.26596105 -0.7830585 -0.56221366 
-0.47974098 -0.84448445 0.2381066 
-0.32619673 -0.91235054 -0.24741116 
-0.25897387 -0.816907 -0.5153597 
0.6827151 -0.60721385 -0.4064376 
0.17259729 -0.86009973 0.4800403 
-0.36425257 -0.919315 0.14892988 
-0.09204692 -0.8985869 -0.42903268 
-0.08235462 -0.6542561 -0.7517758 
-0.18109716 -0.7321057 -0.6566773 
-0.9870278 -0.14718695 -0.064126626 
-0.5784265 -0.1508141 -0.80167204 
0.4658883 -0.2244341 -0.85590744 
0.020675687 0.23071629 -0.97280145 
-0.58378685 -0.20832452 -0.7847253 
-0.6202223 -0.6020393 -0.50286484 
-0.43448758 -0.68986994 -0.579051 
-0.17184281 -0.021984065 -0.9848791 
-0.08226616 0.25884074 -0.9624104 
-0.3155513 -0.1846858 -0.9307624 
0.13474783 -0.31479225 -0.9395472 
-0.12733068 0.43773273 -0.8900433 
-0.09324211 0.53027636 -0.842682 
-0.7573975 -0.30374542 -0.57800347 
-0.239261 -0.52687734 -0.8155701 
-0.45517457 -0.03280745 -0.8897977 
-0.03838679 0.4537221 -0.89031607 
-0.787601 0.025000833 -0.6156783 
-0.24515645 -0.0258217 -0.9691397 
0.121731855 -0.7212821 -0.6818604 
-0.33106315 -0.6440482 -0.689637 
-0.70954585 -0.5388387 -0.45408994 
-0.67997485 -0.1674306 -0.7138637 
-0.25695777 -0.70604193 -0.6599073 
-0.17237705 -0.95106196 -0.25645155 
-0.35733405 -0.56643176 -0.7426086 
-0.44567996 -0.5138576 -0.733021 
0.043148182 -0.98994774 -0.13469169 
-0.33607477 0.26713452 -0.9031572 
-0.023952415 0.6979812 -0.7157154 
-0.38987842 0.47819313 -0.7869728 
0.18733262 -0.67391294 -0.7146663 
0.69841784 -0.14055452 -0.70175284 
0.21942991 -0.95543355 0.19747742 
-0.61428744 -0.65755385 -0.43620414 
-0.037574254 -0.130917 -0.9906811 
-0.028271798 -0.21879178 -0.9753619 
-0.009777449 0.19870035 -0.9800115 
0.40504062 0.13454026 -0.90434575 
0.66870576 -0.3556681 -0.65294176 
0.03164777 0.18646169 -0.98195237 
0.28044778 0.77583236 -0.56518435 
-0.060356125 -0.43506485 -0.8983739 
0.3565342 -0.4190394 -0.8350386 
0.34170416 -0.6190853 -0.7070868 
0.23889013 -0.75850147 -0.6063061 
0.41940802 -0.29130554 -0.85978955 
-0.5968925 -0.77747756 0.198111 
-0.87958294 -0.42921245 -0.20520857 
-0.38370773 -0.72448546 -0.5726161 
-0.27437523 -0.9480359 -0.16107836 
-0.968509 -0.04772934 -0.2443609 
0.12597664 0.2204965 -0.9672183 
-0.41932583 0.30013785 -0.8567866 
0.4176971 -0.31183526 -0.8533979 
0.33553624 0.16008973 -0.92832476 
-0.33651772 -0.22505444 -0.9143886 
0.35577506 -0.2686818 -0.89511687 
0.8276668 -0.48029783 -0.29031324 
-0.2555804 -0.48818472 -0.83447856 
0.33746848 -0.7685758 -0.54351294 
-0.0064802356 -0.8054925 0.59257054 
-0.34498018 -0.48082548 0.806099 
-0.5837673 -0.79905176 0.1439869 
0.4781442 -0.8493991 0.22338177 
0.7559379 -0.34689903 0.55517477 
0.36345372 -0.8880087 -0.28167692 
-0.21124747 -0.6010177 0.7708127 
-0.40722847 -0.34007227 0.8476532 
0.06823163 -0.7073519 0.70356077 
-0.32392478 -0.91245663 -0.24999127 
0.51261884 -0.8025819 -0.30509713 
0.24105476 -0.8840101 -0.40052336 
0.86725664 -0.43309975 -0.24554169 
0.46733004 0.34950113 -0.81206626 
0.7840607 0.19095667 -0.5905796 
0.7940634 0.4576998 -0.3999681 
0.94296527 -0.31361872 0.11162343 
0.2904967 -0.33190352 -0.8974696 
0.13920844 -0.072976194 -0.9875705 
0.3233484 -0.45238858 -0.8311381 
0.44989532 -0.21736522 -0.8662256 
-0.025180044 -0.6125035 -0.7900667 
-0.108138606 -0.62510383 -0.7730145 
0.5099457 -0.44507846 -0.7361119 
0.07002919 -0.7299717 -0.6798803 
0.5016726 -0.4556337 -0.7353384 
0.32069835 -0.36206347 -0.87525004 
-0.14716887 -0.59497654 -0.7901545 
0.38191542 -0.82633924 -0.41388917 
0.60686195 -0.76365036 -0.22035612 
0.8855105 -0.45383158 0.09953915 
0.77553356 -0.6253537 0.086489886 
0.41040847 -0.8495345 0.33144554 
-0.48312643 -0.8665725 0.12506422 
-0.43717986 -0.6549712 -0.61634946 
-0.003664893 0.12355492 -0.992331 
-0.56592655 -0.5094882 -0.64818907 
-0.6957145 -0.37920186 -0.61007166 
-0.9090478 -0.07051114 -0.41068283 
-0.27062735 0.112586 -0.95607805 
0.18283549 -0.56751615 -0.8028055 
0.6457714 -0.7618992 -0.049891178 
0.3346791 -0.9311356 -0.1448322 
-0.25705156 -0.9335232 -0.24991812 
-0.2858306 -0.40527132 -0.86836404 
0.28992507 -0.23398006 -0.9280069 
0.12446775 -0.2957486 -0.94712234 
0.33799762 -0.6467276 -0.68374056 
0.8227117 -0.4975119 -0.27500454 
-0.17762306 -0.7536563 -0.632813 
-0.8031816 -0.44504303 -0.3960254 
-0.60797477 -0.10473559 -0.78701794 
0.112692304 -0.4473581 -0.88722676 
0.7487468 -0.57789415 -0.32467934 
0.7217444 -0.024165478 -0.6917377 
0.751028 -0.49948323 -0.4318258 
0.41050258 -0.67380255 -0.6143922 
-0.22829385 -0.8520437 -0.47106624 
-0.6201791 -0.77960837 -0.08711266 
-0.23253012 -0.49828374 -0.83525026 
0.031935804 0.3521411 -0.9354019 
-0.07283961 -0.31351906 -0.94678414 
0.4741667 -0.44792047 -0.75797975 
-0.4676473 0.23683117 -0.8515967 
-0.28725928 0.25048766 -0.9245205 
-0.62529165 -0.085509695 -0.7756922 
0.08679562 0.30306047 -0.9490105 
-0.08992689 -0.084115945 -0.9923899 
0.39953035 -0.36394757 -0.8413784 
0.40923488 -0.34329554 -0.8453846 
-0.05206397 -0.5214655 -0.8516825 
0.4063933 -0.50622463 -0.7606452 
0.6197345 -0.4846172 -0.61731297 
0.5701325 -0.6768156 -0.46569258 
0.9265336 -0.27309334 -0.25875786 
0.6785817 -0.3061424 -0.66768545 
0.9473148 0.19527946 -0.25389108 
0.97427785 -0.22392169 0.025335578 
0.5940629 -0.56637233 0.5712369 
-0.6152971 -0.6439677 0.45465946 
-0.41335508 -0.3953204 -0.82028 
0.48117563 -0.765427 -0.42730722 
0.3722277 0.05921696 -0.92625046 
0.8064018 0.2672963 -0.5275119 
0.59961635 -0.56447166 -0.56730247 
0.48291546 -0.8453287 -0.22849953 
0.29613507 -0.95513105 0.0053749382 
-0.48828477 -0.3800159 -0.7855992 
-0.16015786 -0.31459695 -0.93561655 
0.8869884 -0.013970225 -0.46158043 
0.21329577 -0.96100277 0.17600727 
0.4743975 -0.88030857 -0.001996989 
-0.52246016 -0.74118567 0.42152014 
0.53505534 -0.6981138 -0.47576573 
0.8005963 -0.45941898 -0.38468158 
0.18518656 -0.8573213 -0.48031875 
-0.5572433 -0.60009986 -0.57389903 
-0.028852422 -0.8197267 -0.5720278 
0.25604653 -0.82553923 -0.5029167 
0.77980685 -0.5167317 -0.3533974 
0.71602154 0.24101277 -0.65515345 
0.64574206 -0.39391997 -0.6540981 
0.4185258 -0.5359798 -0.73318607 
0.5534569 -0.83165604 -0.045098357 
0.50725543 -0.85766697 -0.084257364 
0.6465195 -0.3383457 -0.6837652 
0.64421666 -0.47691727 -0.5979422 
0.4380887 -0.5274131 -0.7279518 
0.12836833 -0.38445103 -0.91417664 
0.20849188 -0.37326202 -0.90399486 
0.54379636 -0.3612284 -0.7574955 
-0.0053330497 -0.3771487 -0.9261373 
0.12722403 -0.9707456 -0.20363481 
-0.067834854 -0.5804124 -0.8114924 
0.4288932 -0.2932327 -0.85443854 
0.15596725 -0.16758797 -0.9734416 
-0.3546439 -0.01663627 -0.9348535 
-0.6534455 -0.3664034 -0.6623878 
-0.33803558 -0.21068247 -0.9172486 
-0.4118463 -0.32307988 -0.8520575 
0.30043966 -0.5946058 -0.7457748 
0.41088364 0.28617337 -0.86560935 
0.4997565 -0.12158958 -0.8575893 
0.24982414 0.26171032 -0.93225294 
0.33938125 0.004942671 -0.9406359 
0.24879247 -0.8918954 -0.37765738 
0.91243345 -0.3995345 0.088528655 
0.7746923 -0.53442425 0.33799776 
0.9636767 -0.18278648 -0.19472118 
0.38929793 -0.8381352 -0.382069 
0.6050489 -0.4961509 0.62269586 
-0.2991491 -0.9536009 -0.03399013 
-0.061368026 -0.3765322 -0.92436874 
-0.40150008 -0.35536873 -0.84410363 
-0.4145717 -0.7659896 -0.4913149 
-0.5158704 -0.82009643 -0.24762782 
-0.41750926 -0.7331686 -0.53679603 
0.39710546 -0.71283567 -0.5780766 
0.576912 -0.5201379 -0.6297851 
0.42667732 -0.46060398 -0.77832556 
-0.016422171 0.37754408 -0.925846 
-0.31191123 -0.1658777 -0.9355191 
0.3052943 -0.15837102 -0.93899626 
-0.12281764 -0.97474194 -0.18653186 
0.59439063 -0.52284056 -0.6110136 
-0.6918433 -0.7209457 -0.039877784 
-0.06626555 -0.9968967 0.04249549 
0.1241417 -0.9567794 -0.26298666 
0.590057 -0.7122699 -0.3801373 
0.26043352 -0.8148708 -0.5178419 
0.61114585 -0.1395464 -0.77911973 
0.871381 -0.15237755 -0.46634343 
0.88476485 -0.15760326 -0.43858021 
0.39605102 -0.6765519 -0.6208231 
0.22686262 -0.5707451 -0.7891663 
-0.17307925 -0.96110386 0.21522804 
-0.6231189 -0.47712037 0.6197412 
-0.40800527 -0.2908317 -0.86541814 
0.68854684 0.070903316 -0.72171736 
-0.2369531 -0.11448678 -0.96475184 
0.41362086 0.51359135 -0.75175923 
0.4999182 0.3370941 -0.79777783 
0.35248792 0.06045318 -0.9338618 
-0.15563777 -0.68015945 -0.716352 
0.08389925 -0.99436015 -0.064875245 
0.32407486 -0.94343454 -0.07004808 
-0.18984586 -0.52301913 -0.83090895 
0.67648673 -0.21348809 -0.7048323 
0.36749864 0.13731757 -0.9198308 
0.54811156 -0.47671074 -0.6872559 
0.37544286 0.008273385 -0.9268087 
0.3921893 0.010030963 -0.9198299 
0.7461241 0.4954567 -0.44477144 
0.013743199 -0.45929527 -0.8881774 
0.49262822 0.71716815 -0.4929374 
0.39420646 0.26674464 -0.8794592 
-0.024568563 -0.47004285 -0.88230157 
0.41278863 -0.6803155 -0.60562074 
0.09278882 -0.7872759 -0.6095794 
-0.057701338 0.45360592 -0.8893326 
0.29971564 -0.2260944 -0.92685056 
-0.51256764 -0.55128455 -0.65830064 
-0.40980414 -0.40287822 -0.8183824 
-0.56600744 -0.1805793 -0.8043797 
0.226392 -0.31525263 -0.9216086 
0.88726634 -0.3260235 -0.32629302 
0.19975398 -0.96323466 0.17965934 
-0.17192157 -0.92953515 -0.32620165 
-0.087634884 -0.9924887 -0.08536064 
0.50397 -0.73995847 -0.44550627 
-0.20141007 -0.59161615 -0.78065646 
-0.23715438 -0.9698783 -0.05562335 
-0.46517208 -0.5510164 -0.6928174 
0.43565762 -0.58019185 -0.68817145 
0.5639617 -0.7204344 -0.4036354 
0.3777393 -0.2653048 -0.8870888 
-0.18688022 -0.2496455 -0.95013314 
0.2976257 0.42496708 -0.8548813 
0.43145144 -0.15173878 -0.8892835 
0.6113501 0.030207183 -0.7907835 
0.40322626 -0.6806354 -0.6116732 
0.2187697 -0.5282344 -0.82043177 
0.1468498 -0.49715477 -0.8551447 
-0.4654622 0.32487807 -0.8232857 
-0.29545808 0.12716658 -0.9468544 
0.13460492 -0.009435764 -0.9908545 
-0.76435274 0.5500834 -0.33641243 
-0.34638548 -0.04515004 -0.9370052 
-0.6762293 -0.6472853 -0.3517608 
-0.02977117 -0.4296267 -0.9025157 
-0.28470322 -0.44868883 -0.84712595 
-0.23742476 0.14283887 -0.96084684 
-0.17077893 0.39522278 -0.9025705 
0.64289784 -0.004865303 -0.76593655 
0.37930024 -0.8728643 -0.30698413 
-0.02413217 -0.73070663 -0.68226504 
-0.7037474 -0.45798153 -0.5431322 
-0.7628296 -0.14017218 -0.6312234 
0.078736596 -0.5668476 -0.8200514 
-0.79600614 -0.06603074 -0.60167617 
0.47774234 -0.522496 -0.70622957 
0.2157356 -0.796461 -0.5648964 
-0.6002884 -0.6096726 -0.5176419 
-0.54344326 -0.059913367 -0.8373051 
-0.44212496 0.48459205 -0.7547821 
0.10814377 0.6182631 -0.7784957 
0.041723546 -0.31967136 -0.94660944 
0.334636 -0.45267087 -0.82650334 
0.13369876 -0.5396291 -0.831219 
-0.22401702 -0.37722692 -0.89861906 
0.34452653 -0.45583814 -0.8206785 
0.5894017 -0.32417488 -0.73994344 
-0.057623893 0.42957175 -0.9011923 
-0.21514325 0.29444322 -0.93113726 
0.82437116 -0.44206002 -0.3535465 
-0.44898775 0.30627942 -0.83940625 
-0.48891357 -0.13537727 -0.86176366 
-0.99737805 0.06552833 -0.030709086 
-0.010078787 -0.08565733 -0.99627376 
0.23569123 0.055155024 -0.9702616 
-0.35068923 -0.2017346 -0.91450554 
0.26028544 -0.61140215 -0.7472877 
0.46090356 -0.049427733 -0.88607275 
0.2512019 -0.8885356 -0.38392994 
-0.6359885 -0.6576637 -0.403729 
0.0044350023 -0.98917353 -0.14668423 
-0.11289719 -0.5832768 -0.8043895 
0.35357833 0.11328348 -0.9285199 
-0.015275992 -0.056473695 -0.99828726 
-0.3746127 -0.20841813 -0.90345293 
-0.23573059 0.3098757 -0.9210908 
0.34707725 0.61103606 -0.7114579 
0.9727706 -0.05514651 -0.22511397 
0.3790423 -0.5733951 -0.726323 
0.4047142 -0.73744214 -0.54072696 
0.40657693 -0.6624462 -0.62917435 
-0.351169 -0.9362868 -0.0068919356 
0.3252327 -0.48982134 -0.8088874 
0.18272947 -0.9742402 0.13215952 
0.40348446 -0.8983046 -0.17392269 
0.27715978 -0.9129679 0.29945317 
0.713724 -0.6424765 -0.27896613 
0.41408294 -0.9060583 0.08714273 
0.27318463 -0.76288027 0.58598965 
-0.04282126 -0.8028025 -0.59470546 
-0.045826126 -0.49495134 -0.8677115 
0.17090033 -0.40393564 -0.89868194 
0.25281844 -0.6119277 -0.7494181 
0.627181 -0.2903272 -0.72274077 
0.19598454 0.012661206 -0.98052526 
0.94968647 0.17073943 -0.2625717 
0.8067973 -0.50197756 -0.31160334 
0.74330693 -0.6337184 -0.21423313 
0.18665701 -0.23407975 -0.954131 
0.8255268 -0.41557896 -0.38183728 
0.9037185 0.16672209 -0.3943307 
0.95357645 0.25591287 -0.15874675 
0.90141857 -0.41587383 -0.12038954 
0.024144007 -0.9495655 -0.31263804 
0.3656815 -0.0011895908 -0.93073934 
0.5796074 -0.5195423 -0.6277986 
0.97862977 -0.19429426 -0.06733251 
0.81567216 -0.40248436 -0.41555405 
-0.28127572 -0.47183454 -0.8356173 
0.03351972 -0.93195343 -0.3610254 
0.68070763 -0.7316714 0.035973087 
0.53673154 -0.8262604 0.17091835 
0.07765025 -0.99426556 0.07352888 
-0.07852784 -0.98331046 -0.16411544 
-0.7128734 -0.5601137 -0.4220001 
-0.1313757 -0.086519554 -0.98754996 
0.04773326 0.39770103 -0.9162727 
-0.1311174 -0.099239446 -0.9863872 
-0.047535922 -0.6136865 -0.7881175 
-0.6635657 -0.0814086 -0.74367553 
-0.21582377 -0.27280757 -0.937548 
0.21937548 -0.6366388 -0.7393007 
0.41375718 -0.6856698 -0.59888405 
0.48008975 -0.8715498 -0.09957344 
0.24377243 -0.65553844 -0.7147338 
0.37834027 -0.6273179 -0.68068415 
0.52607733 0.091705225 -0.8454779 
0.26007226 -0.23167992 -0.93738306 
0.8438366 -0.53584087 0.028537724 
0.7685947 -0.6182136 0.16454305 
-0.45959327 0.44238937 -0.7701076 
-0.6614082 -0.292691 -0.6905587 
-0.3406523 -0.09180981 -0.935696 
0.018943226 -0.48201638 -0.87595737 
0.718308 -0.6099113 -0.33472654 
0.38682485 -0.6649048 -0.6389587 
0.80855924 -0.28740606 -0.513449 
0.50779796 -0.8613135 0.016745118 
0.22542024 -0.70455897 -0.6728911 
-0.25729573 0.31131607 -0.9148122 
-0.0760642 -0.1069449 -0.9913512 
-0.054660305 -0.2904294 -0.95533395 
-0.4015724 -0.46577886 -0.7885365 
-0.06601565 -0.43016797 -0.90033185 
-0.12282942 0.10847467 -0.9864818 
-0.22430208 0.45144913 -0.8636448 
-0.1455529 0.087565325 -0.98546773 
0.66611284 -0.08499542 -0.7409923 
0.3036758 0.27418968 -0.9124698 
0.214204 0.40266246 -0.8899324 
-0.06912517 -0.18388058 -0.980515 
0.4568254 -0.22985274 -0.8593477 
0.4567521 -0.320853 -0.82971746 
0.7622798 0.30463758 -0.57107407 
0.70479804 -0.17295215 -0.68800235 
-0.094153374 0.3374139 -0.936636 
0.23430173 0.11098208 -0.9658084 
0.59933066 -0.12819634 -0.79016984 
0.9807888 0.0831861 -0.17644642 
0.4752095 -0.7488177 -0.46200448 
0.49260607 -0.7260229 -0.47982287 
0.052462194 -0.803332 -0.5932162 
0.13824044 -0.57462347 -0.80665827 
0.32542714 -0.54821897 -0.7704241 
0.3814743 -0.055881027 -0.92268884 
-0.122034706 -0.74979717 -0.65031666 
0.056408234 -0.97416246 -0.21869093 
-0.12285762 -0.9144535 -0.38559157 
-0.4230509 -0.20361885 -0.8829312 
0.23006545 -0.22465284 -0.9468902 
0.90623766 -0.37926096 -0.18680058 
0.54180545 -0.83063686 -0.12841149 
0.22780181 -0.85753715 -0.46123353 
0.6624661 -0.7483603 0.033100974 
0.79552275 -0.4912626 -0.35468963 
0.66947657 -0.29796916 -0.6804524 
0.036034606 -0.9071699 -0.41921896 
-0.37099674 0.14801164 -0.9167628 
-0.087366566 -0.12192996 -0.98868614 
0.2154857 -0.1668396 -0.96214896 
0.7697028 -0.12617266 -0.62580997 
0.64219606 -0.62401843 -0.4451801 
0.76179254 -0.50004655 -0.41185635 
0.73365086 0.023903878 -0.6791061 
0.5300386 -0.3388779 -0.77731645 
0.90925354 -0.30847532 -0.27946556 
0.37400043 -0.40936562 -0.83219194 
0.2638051 -0.2346385 -0.93560237 
0.3105805 -0.26456776 -0.9129862 
-0.16926417 -0.28114676 -0.9446196 
-0.00096990686 0.14304027 -0.9897164 
0.17430542 -0.40977207 -0.8953796 
0.5999009 -0.6175908 -0.50862616 
0.13559093 -0.9221862 -0.36219874 
-0.2878202 0.047597762 -0.95650095 
0.31213072 0.7825962 -0.5386259 
0.3526227 0.26697204 -0.8968742 
0.14751045 -0.5433491 -0.82644564 
-0.4558893 -0.6969886 -0.55350864 
-0.034387175 -0.12424402 -0.99165565 
-0.33260903 -0.14936581 -0.93116117 
-0.22879611 0.12513977 -0.9653976 
-0.013491681 0.17140996 -0.9851074 
-0.47970986 0.2433398 -0.84300905 
0.06747551 -0.011578399 -0.9976537 
0.45720774 -0.35753578 -0.81432754 
0.8215485 -0.49791524 -0.2777382 
0.7054696 -0.6863242 -0.1768382 
0.8219687 -0.55851567 -0.111479804 
0.84358996 -0.37095115 -0.38826728 
0.830791 -0.40262282 -0.38429323 
0.5180627 -0.4406387 -0.7331089 
0.09768405 -0.5957287 -0.79722345 
0.16458923 -0.59082484 -0.7898331 
-0.53730476 -0.35266614 -0.76611364 
-0.049453314 -0.5836601 -0.8104907 
-0.08906004 -0.97875893 0.18465984 
-0.56244427 -0.64431995 -0.51817787 
0.22607288 0.02460422 -0.9737997 
0.5115714 -0.15579058 -0.84499943 
0.69395965 -0.26983464 -0.6675397 
0.6389212 -0.3523135 -0.68385303 
-0.14213398 -0.5241848 -0.83965963 
-0.19616435 -0.53415513 -0.8223126 
0.2159029 -0.6459998 -0.7321682 
0.2603137 -0.45444688 -0.85188895 
0.1873369 -0.79204065 -0.5810134 
-0.4769698 -0.8232697 -0.30777735 
0.21215501 -0.7316164 -0.6478641 
-0.542426 -0.810135 -0.22238559 
0.5060582 -0.34649122 -0.78984106 
0.62083244 0.035491433 -0.7831395 
0.6908366 -0.28814542 -0.6631117 
0.562003 -0.76315224 -0.31898478 
0.073068134 -0.5349339 -0.84172857 
-0.15411676 -0.9308883 -0.33120248 
0.14250025 -0.9807635 -0.13340397 
-0.7229807 -0.64790505 0.23982933 
-0.47925946 -0.075549394 -0.8744156 
-0.36748838 -0.25263464 -0.89505756 
-0.3904736 0.22000284 -0.8939402 
-0.1426622 0.556381 -0.818589 
-0.49041316 -0.4794457 -0.7277547 
-0.35785297 -0.11126956 -0.9271248 
-0.025591742 -0.79107475 -0.6111839 
0.2201009 -0.23870227 -0.9458208 
0.12647232 0.10661148 -0.98622453 
0.5420407 -0.27176845 -0.79519427 
0.6200268 -0.47721806 -0.6227598 
-0.49280107 -0.09115539 -0.86535424 
-0.36293054 0.25531986 -0.8961547 
0.042068444 0.21229148 -0.97630054 
0.86720765 0.11063827 -0.48549995 
0.34167403 0.92306745 -0.17665032 
0.86595035 -0.34360018 -0.36341313 
0.81325215 -0.4520945 -0.36637622 
0.7388685 0.14634034 -0.6577674 
0.6429691 -0.2447141 -0.725745 
0.18548253 -0.300935 -0.9354328 
0.55839294 -0.6513024 -0.5138118 
0.26522306 0.0012358916 -0.9641864 
0.7633281 0.0055040177 -0.6459877 
0.16003692 -0.9638325 -0.21310826 
-0.3738117 -0.8789331 0.29621178 
-0.7418096 -0.5375313 -0.4009721 
-0.018533684 0.21186809 -0.9771225 
0.5374307 0.6079228 -0.58446395 
0.11368913 -0.9193702 -0.37660766 
-0.24415673 -0.7142359 -0.65593797 
-0.5229064 -0.8167042 -0.24405588 
0.047049046 -0.8627229 -0.5034835 
0.0878746 -0.53891504 -0.8377641 
-0.10397432 0.1096606 -0.9885161 
-0.42095706 -0.16091175 -0.89269406 
0.043382388 -0.65084887 -0.75796694 
0.7431661 -0.2680639 -0.61306286 
0.90461683 0.14120862 -0.402155 
0.56755674 -0.22290269 -0.79258686 
0.2884486 0.29454666 -0.91106516 
0.4282211 -0.15574437 -0.8901519 
-0.039467543 -0.578348 -0.8148349 
-0.077413626 -0.22487773 -0.971307 
0.28218082 0.018351633 -0.9591857 
-0.057333726 -0.014650754 -0.99824756 
-0.47472107 0.4218882 -0.77243143 
-0.48970982 -0.035013907 -0.8711822 
-0.2241156 0.3128925 -0.9229683 
-0.038624972 -0.28753233 -0.9569918 
0.45425862 -0.35841268 -0.8155916 
-0.39631328 0.27055302 -0.87734646 
-0.28041586 0.109250695 -0.95364106 
-0.398829 -0.11820989 -0.9093745 
-0.6547206 0.5511426 -0.5172841 
0.20395403 0.8808845 -0.42713624 
0.33201945 0.18885465 -0.9241737 
0.34161615 -0.82232964 -0.4550521 
-0.21230035 -0.95323384 -0.21511365 
-0.8699329 -0.27441594 -0.4097715 
-0.5795417 -0.5266438 -0.62191457 
-0.1819161 -0.5639005 -0.8055575 
0.19205166 -0.27069688 -0.943313 
-0.001058065 -0.45294186 -0.89153945 
0.53137225 -0.25160444 -0.80891204 
0.08435612 -0.16514443 -0.98265535 
0.16808443 0.083599545 -0.9822213 
-0.3871299 0.38235036 -0.8390106 
0.023781098 0.23202279 -0.9724197 
-0.3851088 -0.14146899 -0.91196364 
0.26086774 -0.17299002 -0.9497487 
0.56912804 -0.24663927 -0.7843867 
-0.1357337 -0.7330407 -0.6665042 
-0.27597383 -0.5124078 -0.81318927 
-0.4475352 -0.62525296 -0.6393521 
-0.34966016 -0.21000196 -0.91303724 
0.6207587 0.45325255 -0.63970363 
0.43021238 -0.41103217 -0.80372256 
-0.16812655 -0.666464 -0.7263328 
-0.30631283 -0.9397189 -0.15199015 
-0.47070396 -0.19691923 -0.8600352 
-0.14550409 -0.59469986 -0.79067105 
0.21640068 -0.42036453 -0.8811723 
0.18856557 -0.22579457 -0.95575094 
0.613187 -0.7378232 -0.2821678 
0.44015512 -0.8564001 0.26989347 
0.5050813 -0.4076952 -0.7607086 
-0.29213294 -0.80425715 -0.5175217 
0.017061967 -0.37883767 -0.92530584 
0.5842067 -0.17188466 -0.79319495 
0.73164576 -0.19128521 -0.65429693 
0.28819925 -0.19944695 -0.9365694 
-0.5667747 0.26338562 -0.78063726 
-0.22170036 0.32611164 -0.918967 
-0.03995063 0.6653385 -0.74547213 
0.69475543 0.28505567 -0.66034704 
0.39887074 0.15260927 -0.90421927 
0.4218309 -0.06838659 -0.9040919 
0.5477767 -0.21336678 -0.8089594 
0.2082723 -0.8504368 -0.4830942 
0.6328205 -0.45154068 -0.6290066 
0.87074023 -0.4819096 0.09785067 
0.6954124 -0.68929523 0.20315957 
0.29619393 -0.8799225 0.371491 
0.35381353 -0.8221127 -0.44603446 
-0.1365683 -0.7746357 0.6174858 
0.22619933 -0.86421347 -0.44940966 
-0.13353911 -0.97625 -0.17059734 
0.0066907387 -0.92837834 -0.37157634 
0.16395806 -0.4661022 -0.86940587 
0.7157783 -0.39641175 -0.574908 
0.51524395 -0.27284572 -0.81245244 
0.36744687 -0.2369001 -0.89936715 
0.57504296 0.37031826 -0.7295136 
0.26990658 -0.18096767 -0.9457278 
0.22121662 -0.031612046 -0.9747122 
0.29789257 -0.08272623 -0.9510081 
0.49486473 0.11865982 -0.86083037 
0.60090244 0.36754024 -0.70981026 
0.9148497 0.23372748 0.32927454 
0.47965905 -0.760305 -0.4380222 
0.054076344 -0.8298632 -0.55534047 
0.035667576 0.1454677 -0.9887199 
0.60306484 -0.22310127 -0.7658581 
0.4658855 -0.10063796 -0.87910336 
0.673262 0.4680782 -0.5723821 
0.08011537 -0.455073 -0.88684285 
0.25824773 -0.87933844 -0.4000899 
0.36800689 -0.6673259 -0.6474929 
-0.052203603 -0.9568205 -0.2859534 
0.7355561 -0.53297406 -0.41820568 
0.68715173 -0.64695203 -0.3305686 
-0.32925227 -0.48139077 -0.81231517 
-0.34306258 -0.39641923 -0.85156333 
-0.05233202 -0.23144828 -0.97143865 
0.7838084 -0.112035766 -0.610813 
0.25539967 0.1293749 -0.9581405 
0.08319756 0.2380273 -0.96768856 
-0.0835336 0.14272724 -0.98623073 
-0.2690857 -0.6195005 -0.73743623 
0.200949 -0.3079988 -0.92992276 
-0.16809277 -0.06691155 -0.98349774 
0.024635028 -0.732195 -0.6806494 
0.73528457 -0.6534261 -0.17997503 
0.7530572 -0.59064835 0.28989574 
0.43647876 -0.8616795 -0.25883353 
0.67981577 -0.29066956 -0.6733215 
-0.021212112 -0.03116711 -0.9992891 
0.181632 0.29658434 -0.9375754 
0.013559004 -0.5017165 -0.86492586 
0.22501068 -0.013001296 -0.9742696 
-0.5382477 0.21104158 -0.8159357 
0.24595973 -0.7354999 -0.63130325 
0.40052092 -0.57809484 -0.7109075 
0.14411443 -0.76546997 -0.62712574 
0.4255283 -0.6774765 -0.59995943 
0.5039213 -0.32471335 -0.8003903 
-0.12556131 0.101059064 -0.9869253 
-0.17667219 -0.72444946 -0.6663033 
-0.09591313 -0.41706938 -0.9037997 
0.1626116 -0.0032580558 -0.98668486 
0.1952946 -0.28941545 -0.93706924 
-0.09004173 0.23185867 -0.9685732 
0.40502214 -0.22222966 -0.88688844 
0.28186047 -0.065383494 -0.9572251 
0.7786839 -0.008025871 -0.62736523 
0.2705252 0.124834895 -0.95458496 
0.11208733 -0.18424854 -0.9764676 
0.42774266 -0.029257823 -0.903427 
-0.09005507 0.27051786 -0.9584937 
0.12441795 0.53690386 -0.83441865 
-0.0827453 -0.033230748 -0.99601656 
-0.10679077 -0.28204957 -0.95343786 
0.021383347 0.15273586 -0.98803574 
0.14696492 0.14868078 -0.9779036 
-0.6035207 0.03987471 -0.7963497 
0.1155352 0.22854869 -0.9666525 
0.26968926 -0.47611263 -0.8370092 
-0.26289162 -0.46051756 -0.8478276 
-0.11842703 -0.8172632 -0.56396466 
-0.009252559 -0.925294 -0.37913787 
0.33727837 -0.7766532 -0.53202754 
0.16670193 -0.82056576 -0.5467014 
-0.041160803 -0.6624226 -0.7479988 
0.20594053 -0.41211876 -0.887551 
0.051669665 -0.51789266 -0.85388374 
0.36251956 -0.27730018 -0.8897664 
0.44458744 -0.40941432 -0.79669446 
0.534911 -0.64511514 -0.5456159 
-0.07715909 -0.7535564 -0.65283954 
-0.08105037 -0.5235665 -0.84812087 
-0.16312405 -0.8617426 -0.48040628 
0.21345189 -0.6682295 -0.71267647 
-0.13900606 -0.6903305 -0.71001494 
0.16883641 -0.5811131 -0.79611677 
-0.27504703 0.31245402 -0.9092424 
0.42556533 0.047387782 -0.90368617 
0.14884092 -0.046182577 -0.9877822 
0.4234504 -0.13141367 -0.89633715 
0.52270496 0.5742152 -0.6301243 
0.8448585 -0.09504117 -0.5264802 
0.70320463 0.036086116 -0.71007127 
0.6952769 -0.17170762 -0.69793016 
0.93397325 0.044411615 -0.35457242 
0.31372315 -0.03515307 -0.94886357 
0.07464185 -0.27140078 -0.9595678 
0.31948522 -0.6686578 -0.67143583 
-0.09752055 -0.3648465 -0.9259464 
-0.5719952 -0.19519892 -0.7966925 
-0.009415148 -0.3773246 -0.92603326 
0.41503567 -0.1462974 -0.8979658 
0.07951732 -0.61718565 -0.78278923 
-0.12586373 0.48569986 -0.8650167 
-0.02438317 -0.13629103 -0.9903688 
-0.5620328 -0.41317186 -0.7165251 
0.09349373 0.30227757 -0.94862384 
-0.17913106 0.73194796 -0.657392 
0.08738373 -0.08971347 -0.9921269 
-0.25142875 -0.22747007 -0.94076616 
0.17195377 0.36569878 -0.9147111 
0.15167053 -0.36259213 -0.91952324 
-0.052436113 -0.28702483 -0.95648694 
-0.18125188 0.0070910715 -0.9834112 
0.28882414 -0.29028693 -0.9123125 
0.26157904 -0.6543356 -0.7095219 
0.24749361 -0.90355355 -0.34976855 
0.9502196 -0.28543597 0.12493652 
0.60740423 -0.6507705 -0.45558533 
0.62213475 -0.3455033 -0.7025496 
0.78655124 -0.026563784 -0.61695355 
0.03793139 -0.21501331 -0.97587425 
0.37392056 -0.0139175765 -0.92735636 
0.36917976 0.47094032 -0.80120015 
0.412129 -0.2088138 -0.8868746 
-0.22224678 -0.905084 -0.36253196 
0.22194578 -0.05055769 -0.97374743 
0.5396368 0.1841427 -0.82151306 
0.56351674 0.53897154 -0.62606597 
0.15137275 -0.16251197 -0.97502625 
0.17222871 -0.46104342 -0.87050354 
0.0014063098 -0.57310134 -0.8194834 
0.050984338 -0.48493892 -0.8730606 
0.24300425 -0.52487326 -0.8157554 
0.4684003 -0.34098005 -0.8150669 
0.6536053 -0.654727 -0.3796483 
0.46066242 -0.7688561 -0.4434529 
0.09106005 -0.48980045 -0.8670662 
-0.29645008 -0.524953 -0.79783565 
0.44824517 -0.43297884 -0.7820522 
0.96271 0.18491212 -0.19747658 
0.41405648 -0.5912158 -0.6921136 
0.20168369 -0.769578 -0.6058659 
0.08259469 -0.7580112 -0.64699084 
-0.3184293 -0.6487662 -0.6911622 
-0.30114773 -0.6304491 -0.71543276 
-0.69353354 -0.63597107 -0.33845526 
-0.7825429 -0.26375338 -0.56396884 
-0.20161341 -0.23695154 -0.95037156 
-0.2575433 -0.10738978 -0.96028066 
-0.19870864 -0.028191062 -0.9796532 
-0.59201044 -0.08310775 -0.8016339 
-0.063078284 0.6431433 -0.7631435 
-0.3543909 -0.09498262 -0.93026096 
-0.060092088 0.117750496 -0.99122345 
0.4805456 -0.2929132 -0.82660615 
0.6503506 -0.28509954 -0.704104 
0.55670786 -0.41545796 -0.7193546 
0.09122011 0.10620289 -0.99015146 
0.08949756 -0.2022916 -0.97522736 
0.44952354 -0.07883315 -0.8897832 
0.86597323 -0.06378166 -0.49600652 
0.8256427 -0.11250503 -0.5528623 
0.8511104 0.4922134 -0.18258443 
0.4731689 0.4451576 -0.7602276 
0.519263 -0.19485919 -0.83210325 
0.73185545 0.2504932 -0.63375133 
0.042365607 -0.66541797 -0.7452678 
-0.6307656 0.2717534 -0.7268321 
0.4768044 -0.12076096 -0.8706747 
0.45181066 -0.59729195 -0.6626534 
0.4316553 0.005440788 -0.90202224 
0.09724525 -0.8469872 -0.52264357 
-0.72651225 -0.035255477 -0.68624854 
-0.17312688 0.097422935 -0.98006934 
-0.13209842 0.41038805 -0.90229255 
-0.74285835 -0.5483995 -0.38395247 
-0.511365 -0.4724617 -0.7178342 
-0.5019806 -0.7336672 -0.4579825 
-0.061558913 -0.7905868 -0.6092479 
0.17224386 -0.8527397 -0.49311978 
0.38622025 -0.069593765 -0.91977745 
-0.13760394 -0.14202468 -0.98025215 
0.32507852 -0.33828637 -0.8831117 
0.41958055 -6.5277213e-06 -0.90771806 
0.8402103 -0.29954863 -0.4520149 
0.73494315 0.4367445 -0.5187608 
0.3177102 0.7597177 -0.567353 
-0.45368925 0.40009263 -0.7962989 
-0.15584233 0.6312262 -0.75978076 
0.021275673 0.28124124 -0.95940125 
-0.15426455 0.6043726 -0.7816241 
-0.18470088 0.29497966 -0.93748206 
-0.36744577 0.48597646 -0.79297566 
0.48696113 0.5355203 -0.6899905 
0.6365698 0.332222 -0.69599396 
-0.6402261 -0.083393 -0.76364666 
-0.1963988 0.3153356 -0.9284347 
-0.5518055 0.1579818 -0.8188727 
-0.42368302 -0.4142136 -0.8055555 
-0.4058755 -0.31205118 -0.8590048 
-0.14619017 0.20166078 -0.9684841 
-0.17452398 -0.3601334 -0.91643083 
-0.40891993 -0.38241303 -0.82858 
0.031554844 -0.1993958 -0.9794109 
0.112691134 -0.33420885 -0.93573785 
-0.5334337 -0.668202 -0.5186085 
-0.34768966 -0.9262123 -0.14574882 
-0.25948006 -0.3638919 -0.89456856 
-0.272684 -0.29914397 -0.9144159 
0.5084152 -0.22113013 -0.8322353 
0.14664704 -0.051197752 -0.98786306 
-0.063793324 -0.13364725 -0.9889736 
0.10017544 0.26679927 -0.95853174 
-0.17290309 0.40220794 -0.89907366 
0.11503614 0.3103985 -0.9436204 
0.35281545 -0.4354325 -0.82820284 
0.1612547 -0.04104173 -0.9860591 
-0.3577872 0.022987315 -0.9335202 
0.0687753 -0.28632563 -0.9556609 
0.19133292 -0.7967622 -0.573203 
0.06365391 -0.79797596 -0.59931856 
-0.55896926 0.00063428626 -0.8291882 
0.25269055 -0.2643619 -0.93073106 
-0.38275227 -0.41663384 -0.8245708 
-0.04526235 -0.44297475 -0.8953909 
0.0878186 -0.3484155 -0.93321735 
0.12113235 0.116066046 -0.9858274 
-0.035998136 0.2086 -0.9773384 
0.37018976 -0.19303691 -0.90867835 
0.70073795 -0.23739749 -0.67276216 
0.26324072 -0.6044126 -0.7519241 
0.08748949 -0.50489825 -0.85873353 
-0.35929388 -0.5675941 -0.74077326 
0.08484347 -0.7899735 -0.6072426 
-0.0006790497 -0.16660978 -0.9860227 
0.15720518 -0.2895437 -0.94416684 
0.09303103 0.11365541 -0.98915505 
-0.09416608 0.0677422 -0.9932492 
-0.3128118 0.24837008 -0.91676676 