# OOMMF: rectangular mesh v1.0
# Segment count: 1
# Begin: Segment
# Begin: Header
# Desc: Time (s) :  7.450000000000018e-07
# Title: m
# meshtype: rectangular
# meshunit: m
# xbase: 2e-09
# ybase: 2e-09
# zbase: 5e-10
# xstepsize: 4e-09
# ystepsize: 4e-09
# zstepsize: 1e-09
# xmin: 0
# ymin: 0
# zmin: 0
# xmax: 1.024e-06
# ymax: 1.024e-06
# zmax: 1e-09
# xnodes: 256
# ynodes: 256
# znodes: 1
# ValueRangeMinMag: 1e-08
# ValueRangeMaxMag: 1
# valueunit: 
# valuemultiplier: 1
# End: Header
# Begin: Data Text
-0.32673547 -0.07986538 -0.94173545 
-0.21953656 -0.34784004 -0.91148835 
0.20587581 0.005160774 -0.9785646 
0.40433326 0.09430697 -0.90973663 
0.46107793 -0.19770744 -0.8650543 
-0.18837225 -0.51007426 -0.83924973 
-0.28891832 -0.9551129 -0.06546505 
-0.029694248 -0.67650825 -0.7358362 
0.56507057 -0.5862556 -0.58051676 
0.15499103 -0.59255445 -0.79047906 
-0.08558196 -0.32849985 -0.9406188 
-0.14993405 -0.7370587 -0.65898734 
-0.3514823 0.69281393 -0.629658 
0.15496115 0.7727396 -0.61551654 
0.12612034 0.74502534 -0.65500456 
-0.111033745 0.38291273 -0.9170875 
-0.29736033 -0.071007185 -0.95212126 
-0.34463912 0.06493269 -0.9364869 
-0.8417336 -0.40022272 -0.36236238 
-0.2075448 -0.6423571 -0.73776865 
-0.18457441 -0.39117986 -0.9016156 
-0.30420652 -0.6431996 -0.70267534 
-0.36780292 -0.45053133 -0.81347555 
-0.2493978 -0.5944741 -0.76446146 
-0.021559736 -0.91616833 -0.40021366 
-0.027437283 -0.4366532 -0.89921147 
-0.4957477 -0.59240997 -0.6350471 
0.07838721 -0.9966885 -0.021625856 
-0.25201768 -0.900343 -0.35478112 
-0.20515388 -0.7147219 -0.6686439 
-0.4988133 -0.8641923 0.06600869 
-0.9244648 -0.38044128 -0.025082722 
-0.18559735 -0.8332618 -0.52079594 
-0.29821956 -0.5623969 -0.7712165 
-0.73124295 -0.65714073 0.18289289 
-0.41316086 -0.8860109 0.21043524 
-0.6771562 -0.6184476 -0.3987257 
-0.2953235 -0.60305136 -0.74102175 
-0.7835564 -0.052780077 -0.6190749 
-0.37873107 0.07096667 -0.922782 
0.2932104 -0.38576326 -0.87476546 
0.4377351 -0.31668276 -0.8414868 
0.10894908 -0.9442268 -0.31075034 
-0.024016587 -0.98030216 0.19603825 
-0.8246926 0.07634412 0.56040496 
-0.9374926 -0.33657148 0.088472046 
-0.44772074 -0.6635165 -0.59940976 
0.098319076 -0.7090989 -0.6982208 
0.8495832 -0.21465884 -0.48179877 
0.25820556 -0.2468435 -0.93402255 
0.1821909 0.01759506 -0.9831058 
0.8991281 -0.20365112 -0.38742074 
0.6797817 -0.24989535 -0.68952835 
-0.030408671 -0.060544413 -0.99770224 
-0.5519928 0.05531133 -0.8320125 
-0.04452492 -0.05940565 -0.99724054 
-0.42811495 -0.26567256 -0.86379147 
-0.37179267 -0.038873985 -0.9275015 
0.735065 0.10765572 -0.669395 
0.9017765 -0.046537463 0.42968985 
0.38094372 -0.448638 0.80845886 
-0.69954735 -0.58286035 0.4134094 
-0.7157099 -0.35173613 0.60335815 
-0.4116809 -0.05863818 0.9094397 
-0.33167034 -0.9125689 -0.23919204 
-0.084959544 -0.9763607 -0.1987506 
0.31160852 -0.7361205 -0.600855 
0.43715626 -0.8131106 -0.3843769 
0.56779486 -0.5158873 -0.6414588 
-0.029783383 -0.97710985 -0.21064058 
0.8687997 -0.07752792 -0.48905692 
0.4687645 -0.43372047 -0.7695105 
0.21451567 0.050191365 -0.97543013 
0.7693943 0.19697517 -0.60764575 
0.72601414 0.1473012 -0.6717186 
-0.46663067 0.18333025 -0.8652432 
0.016942814 -0.013138984 -0.99977016 
0.8233202 -0.44367343 -0.35397443 
-0.022123307 -0.56541574 -0.8245094 
-0.66411334 -0.19024792 -0.7230209 
-0.44648132 0.039302245 -0.8939294 
0.02817878 -0.76195383 -0.647018 
-0.012299829 -0.27774113 -0.9605772 
0.46049497 0.05631091 -0.8858745 
0.66310173 -0.70519763 -0.25098315 
0.046131298 -0.4971206 -0.8664544 
0.6255228 0.091464505 -0.77482617 
0.30561215 -0.1967077 -0.93161553 
0.15496536 -0.29769266 -0.94200045 
0.35348246 0.069244966 -0.9328748 
0.47003078 0.08336724 -0.87870425 
0.17836848 0.30520946 -0.9354315 
0.60285217 -0.6108606 -0.51324326 
-0.20646611 -0.7265513 -0.65535873 
-0.7435193 -0.44093254 -0.50275004 
-0.64642364 -0.73994607 -0.18605484 
0.49796262 -0.52401096 -0.6909746 
0.6156324 -0.6385344 -0.46181238 
0.12721798 -0.35372686 -0.92665684 
0.6462971 -0.40954632 -0.64387256 
-0.6022817 -0.64499366 -0.47036165 
-0.53829837 -0.46440142 -0.70325404 
0.38513264 -0.73844355 -0.55351067 
-0.32458213 -0.8720322 -0.3663416 
-0.28932044 -0.37060574 -0.8825786 
0.19019489 -0.40491283 -0.89435536 
0.24930519 -0.15267293 -0.9563148 
0.06030931 0.27761286 -0.9587981 
0.58535224 -0.32883242 -0.7411019 
0.6797186 -0.11394728 -0.7245679 
0.4150104 -0.5882318 -0.69408196 
0.2037359 -0.8829953 -0.42286044 
0.29329783 -0.70746815 -0.64301264 
0.49665743 -0.5398233 -0.67964864 
-0.18573077 -0.79064494 -0.5834249 
0.44381365 -0.8273139 -0.34435618 
0.42958018 -0.8190016 -0.38039097 
0.9340247 -0.35700482 0.012060912 
0.34276807 -0.9068234 -0.24531893 
0.3756399 -0.9231448 -0.081843995 
0.30418637 -0.949891 0.0719581 
0.14513156 -0.77575594 -0.61411685 
0.69262874 -0.27514574 -0.6667536 
0.7724968 0.37532642 -0.51222944 
0.09452519 -0.32899493 -0.9395889 
-0.30730084 -0.13531159 -0.9419432 
0.51268727 0.25412735 -0.8201043 
-0.25276986 -0.21511951 -0.9433086 
0.25552937 -0.6781531 -0.68906695 
0.5689986 -0.6771856 0.46654084 
-0.71334076 -0.6934026 -0.10167565 
-0.2608521 -0.8565519 -0.44528085 
0.1098582 0.51277995 -0.8514623 
0.5126981 0.452009 -0.7299511 
0.63028526 -0.2697614 -0.7279899 
0.42857307 0.19746761 -0.8816643 
0.9351247 -0.28815082 -0.2061822 
0.9477568 -0.31884435 0.009765711 
0.86626005 -0.41121715 0.28371486 
0.6532899 -0.74634165 -0.12722646 
-0.009939503 -0.99971086 -0.021898225 
-0.19441274 -0.3656688 -0.91021436 
0.47556219 -0.3382973 -0.8120318 
0.3283404 -0.17744966 -0.9277415 
-0.0016175824 -0.35953748 -0.93312925 
-0.07793161 -0.19706236 -0.9772887 
0.3358064 -0.35807893 -0.8712139 
0.060776852 -0.46827042 -0.8814925 
0.071602955 -0.6527536 -0.7541789 
-0.29908422 -0.71893126 -0.6274445 
-0.35383442 -0.8204471 -0.44907436 
0.124786235 -0.8541558 -0.50482315 
0.3445125 -0.7171201 -0.60584646 
0.22120422 -0.9603462 -0.16971679 
0.36880118 -0.5540251 -0.7463524 
-0.01562642 -0.60383004 -0.79696 
0.4355111 -0.87667364 0.20438567 
0.50327355 -0.72575927 -0.4690302 
-0.2932516 -0.35248443 -0.88868344 
-0.40071556 -0.32463372 -0.85676134 
0.1323515 -0.2633246 -0.95558536 
-0.31934854 -0.48359942 -0.8149528 
-0.2001715 -0.6591034 -0.72492355 
-0.7237566 -0.6805968 -0.113861695 
-0.32172194 -0.063609295 -0.9446952 
-0.14054419 -0.81626904 -0.5603145 
-0.7197971 -0.41002426 -0.56015384 
-0.6437461 -0.7429707 -0.18326387 
-0.9112305 -0.4117661 -0.010377226 
-0.46699873 -0.8635442 0.19027269 
-0.85697204 -0.43746868 -0.27243358 
0.1037175 -0.59876126 -0.7941837 
0.003043182 -0.3815339 -0.92434984 
0.10319595 -0.3698577 -0.92333955 
-0.035689566 -0.2796933 -0.95942587 
0.48330146 -0.6333788 -0.60436004 
0.15492211 -0.014648483 -0.98781806 
0.28282166 -0.07602291 -0.95615506 
0.2743358 0.06985057 -0.95909375 
-0.6859561 -0.04681903 -0.7261352 
-0.7459712 -0.38858774 -0.5408573 
-0.14859203 -0.2605001 -0.9539708 
-0.012054319 0.27831295 -0.9604149 
0.6369927 -0.24294785 -0.731585 
0.9838857 -0.042191267 -0.17374945 
0.1404755 -0.9724009 0.18628812 
0.0031252513 -0.9541102 -0.29943946 
0.3209425 -0.4562236 -0.8299734 
0.26894736 -0.62178636 -0.7355604 
0.046017464 -0.5729257 -0.8183145 
-0.24184915 -0.86037785 0.44861892 
0.33380958 -0.65513885 0.6777642 
0.5762278 -0.5740102 -0.58178514 
0.47145525 -0.7976725 0.37609634 
0.09224947 -0.8211903 -0.56314874 
0.1221384 -0.82734597 -0.5482525 
0.054509535 -0.99722844 0.050638776 
0.52557373 -0.8192475 -0.22935984 
0.11593262 -0.81945777 -0.56129193 
0.2241597 -0.8309882 0.50912786 
0.5954192 -0.6344144 -0.49294463 
0.22302304 -0.9213882 -0.31828353 
0.28287488 -0.9292916 -0.23748463 
-0.42526153 -0.71770936 -0.5514037 
0.14217982 -0.49976435 -0.85441244 
0.68113816 -0.7069163 0.19057891 
0.7441871 -0.6447071 0.17475258 
0.25084746 -0.96768254 -0.02580995 
-0.2301507 -0.22382528 0.9470655 
-0.824175 -0.54327244 -0.15997134 
0.61313164 -0.6019557 -0.5115847 
-0.28608015 -0.0098390095 -0.95815516 
-0.37684217 0.84525084 -0.37886798 
0.08584509 -0.033798393 -0.99573505 
-0.030519702 -0.10436035 -0.99407125 
-0.39304182 -0.36845946 -0.84247005 
-0.37809223 -0.69302636 -0.6138085 
0.14550021 -0.72221595 -0.6761907 
0.10742321 -0.7058594 -0.7001591 
-0.3094637 -0.70040494 -0.64316815 
-0.5116372 -0.32603332 -0.79494005 
-0.51437974 -0.8083514 -0.28632423 
0.091978945 -0.92536795 -0.36774203 
-0.59521425 -0.75816506 -0.26628163 
-0.4761162 -0.011419024 -0.8793082 
0.40399948 0.42938304 -0.80772185 
0.5117285 0.19180128 -0.83746415 
-0.31523558 -0.09367466 -0.94437903 
-0.31147188 -0.22075586 -0.9242577 
0.055336997 0.15999079 -0.98556626 
-0.33894876 -0.22156766 -0.91434216 
-0.70418227 0.2588797 -0.66114205 
-0.8666856 0.22541253 0.44502276 
-0.40138555 -0.6970329 -0.5941673 
-0.04334478 -0.9819718 0.18399073 
-0.4649872 -0.8413335 0.27558115 
-0.97276044 -0.23168282 0.00776511 
-0.30658224 -0.5751338 -0.75843817 
-0.35715294 -0.63564914 -0.6843917 
-0.05952449 -0.546337 -0.83544767 
-0.4817493 -0.58263487 -0.6545642 
-0.4660396 -0.4766154 -0.74541587 
-0.13239351 -0.28984818 -0.9478714 
0.4642599 -0.515568 -0.7201753 
0.5502316 -0.58809835 -0.5927779 
0.5164299 0.15712753 -0.8417905 
0.09048537 -0.021848548 -0.99565816 
0.584021 -0.44326794 -0.6800243 
0.15733422 -0.14187352 -0.9773013 
-0.09843337 0.12728404 -0.98697 
-0.17364149 -0.6038402 -0.7779625 
0.04852891 -0.09961564 -0.9938419 
0.7583416 0.18346526 -0.6255066 
-0.56827736 -0.2734336 -0.7760766 
-0.25772473 -0.18256405 -0.9488143 
0.01158468 -0.8505883 -0.5257045 
0.025461221 -0.89009035 -0.45507255 
-0.32511544 -0.6419993 -0.6943608 
0.33092257 -0.2762564 -0.90231514 
-0.1721282 -0.37341464 -0.9115555 
-0.18493395 -0.31922415 -0.9294597 
-0.020958707 -0.99916434 -0.035091814 
0.24200676 -0.96892565 -0.05114509 
-0.15386572 -0.3949835 -0.90571153 
-0.1080334 -0.18905148 -0.9760064 
-0.30219507 -0.42377424 -0.85386986 
0.078806184 -0.462195 -0.88326967 
0.23680803 0.08837721 -0.9675286 
0.08413388 0.0061162305 -0.99643576 
0.20464484 0.5782168 -0.78980124 
-0.25366417 0.7585789 -0.6001773 
-0.61525756 0.63919926 -0.46139187 
0.31381032 0.05866035 -0.947672 
-0.52429914 -0.099900685 -0.8456537 
-0.18590218 0.16579148 -0.9684801 
-0.48282546 -0.20774406 -0.85071856 
0.4628166 -0.66448075 -0.5867421 
-0.22607805 -0.59389216 -0.77212745 
-0.37422368 -0.29716963 -0.8784343 
-0.13303609 -0.3726639 -0.91838074 
0.085702665 -0.6311095 -0.77094483 
0.53114307 -0.70844 -0.46475786 
-0.424992 -0.4124115 -0.8057907 
0.24687135 -0.33853093 -0.9079931 
-0.07963586 -0.66394764 -0.7435266 
0.37705013 -0.4411469 -0.8143848 
-0.15974438 -0.8180484 -0.5525202 
-0.3485789 -0.8662568 -0.35789958 
-0.21886234 -0.8692613 -0.44326538 
-0.15977365 -0.96133506 0.22429319 
-0.7824154 -0.61436695 -0.101879515 
-0.41716215 -0.7842468 -0.4592741 
-0.38159534 0.3798992 -0.8426516 
-0.21306172 -0.29799333 -0.9304864 
-0.94362026 0.29713655 -0.14591303 
-0.32934532 -0.054425158 -0.9426397 
0.3414905 -0.406867 -0.8472564 
0.023619842 -0.6634742 -0.74782634 
0.37055513 -0.9241067 0.09335792 
-0.20668423 -0.91073495 0.3575523 
-0.5946851 -0.802262 -0.052205727 
-0.865621 0.2352528 -0.4419915 
-0.35549408 -0.1622644 -0.9204859 
-0.012826734 -0.43550292 -0.90009594 
0.5850918 -0.30117482 -0.7529684 
0.5148544 -0.08089733 -0.85345215 
0.20526259 0.047827035 -0.9775377 
0.6617953 -0.36991453 -0.65206623 
0.70189655 -0.12305231 -0.70156926 
-0.267687 -0.027519435 -0.9631129 
0.2825301 -0.32218874 -0.9035326 
0.3518186 -0.29736412 -0.88758004 
0.02335353 -0.63011336 -0.7761519 
0.8797677 0.23255213 -0.41464245 
0.7450584 0.19752434 -0.63708097 
0.84629804 -0.37171778 0.3815831 
-0.22670369 -0.11449138 0.96721107 
-0.6024355 -0.08467086 0.79366386 
-0.4259135 -0.89217323 0.15041456 
-0.72227275 -0.6672486 -0.18193822 
-0.30119908 -0.8516979 -0.42882365 
0.11392648 -0.6134285 -0.7814898 
-0.10091572 -0.54902464 -0.8296915 
0.063276164 -0.12517652 -0.9901147 
0.54501843 -0.43680516 -0.71565086 
0.6304781 -0.41731772 -0.6544795 
0.36246052 -0.6112749 -0.7035379 
0.33146265 -0.6117852 -0.718228 
-0.34399948 -0.2968839 -0.8907999 
0.054147247 -0.88697004 -0.45864174 
-0.23281185 -0.40806517 -0.8827692 
-0.71701425 -0.10829384 -0.68859506 
0.12922908 -0.36900225 -0.9204006 
0.38840064 -0.7533996 -0.53059775 
0.3848749 -0.9229563 0.0047857263 
-0.36656338 -0.8245379 -0.4310088 
-0.33065453 -0.2960177 -0.8961257 
0.27093822 -0.5967701 -0.7552867 
-0.3395588 -0.39690724 -0.85273933 
0.031788703 -0.10457482 -0.9940089 
0.4359348 -0.531578 -0.7262133 
0.04466322 -0.13955915 -0.98920596 
0.31342742 0.49284238 -0.81170785 
-0.18057647 -0.13575019 -0.97414786 
0.14366911 -0.09549137 -0.98500794 
-0.0020671536 0.44376233 -0.89614224 
0.45224738 0.18983681 -0.8714554 
0.017304424 0.08377628 -0.9963343 
0.45835817 -0.4771949 -0.7497952 
0.22890162 -0.67926687 -0.6972808 
-0.5281674 -0.3879133 -0.7553559 
-0.37037542 -0.84773916 -0.3796847 
0.29878756 -0.8351921 -0.4617144 
0.81964236 -0.38422418 -0.42492142 
0.9042628 -0.38602498 -0.1824654 
0.8877195 -0.40255538 0.22339013 
-0.008968776 -0.82772815 -0.5610578 
0.11781181 -0.52787733 -0.84111005 
0.29345298 0.21432908 -0.9316375 
0.031869967 -0.0067150258 -0.9994695 
0.2557093 0.39033395 -0.88445026 
0.5578575 0.25665715 -0.78925425 
0.48729545 0.08901731 -0.8686881 
0.64083177 -0.032793757 -0.7669805 
-0.8726157 -0.31641084 -0.37205645 
-0.21862699 -0.09602783 -0.971072 
-0.37964866 -0.50980526 -0.7719881 
-0.15857904 -0.009153586 -0.98730385 
0.07338626 -0.4222254 -0.9035155 
0.14448941 -0.548149 -0.8238055 
0.0564109 -0.220575 -0.9737374 
0.30480033 -0.5555357 -0.77361286 
0.26663762 -0.59067297 -0.76158375 
0.47197723 -0.6355719 -0.6109712 
-0.14915751 -0.8838819 -0.44328874 
-0.060766436 -0.9002331 -0.43114722 
0.13410145 -0.47855344 -0.86775774 
0.18730669 -0.90630543 -0.3788491 
0.18244448 -0.5453026 -0.81814367 
0.571749 -0.34878075 -0.7426003 
0.057177715 0.4215804 -0.9049867 
-0.022354765 0.31084213 -0.9501987 
-0.35212904 0.076337546 -0.9328332 
0.1420483 -0.12160526 -0.9823617 
0.105024405 -0.17606372 -0.97876024 
-0.20715337 -0.5302633 -0.8221364 
-0.32408416 -0.87482226 -0.36007717 
-0.17193583 -0.48580012 -0.8569926 
0.10658915 0.33615282 -0.9357564 
0.38430738 0.6914098 -0.6117683 
0.31806746 0.88925415 -0.3287252 
0.5875181 0.07180653 -0.8060189 
0.74381834 -0.34821033 -0.57051194 
0.9094325 -0.34662822 -0.22974241 
0.9617725 0.16399458 -0.21931624 
0.27082804 -0.94045746 0.20540659 
0.31533635 -0.501102 -0.8058908 
0.2749443 0.33416578 -0.9015204 
0.1850824 0.62937635 -0.7547384 
0.003198552 0.362754 -0.93187946 
-0.6056232 0.4532983 -0.65401936 
-0.3282271 0.8768346 -0.3513235 
-0.40913853 -0.32729396 -0.8517537 
-0.49049762 -0.5130981 -0.7043738 
-0.6506968 0.15096459 -0.7441797 
-0.28033578 -0.3134766 -0.9072731 
0.7336249 -0.5210816 -0.43619782 
0.6882531 -0.704768 -0.17207517 
0.46988237 -0.75812584 -0.45216805 
0.038808882 -0.72002375 -0.6928634 
0.21784653 -0.38386464 -0.8973244 
0.008951343 -0.4338596 -0.90093607 
0.37765658 -0.64102167 -0.6681818 
0.68974245 -0.4684858 -0.55206573 
-0.6847492 -0.2760951 -0.67445546 
-0.6809516 0.34916013 -0.643733 
0.7363746 -0.26569977 -0.6222188 
0.5788143 -0.4379363 -0.6878851 
-0.0616974 -0.907571 -0.4153413 
-0.7201932 -0.52341706 -0.45536408 
-0.96219975 -0.25363767 0.09919448 
-0.9134266 0.2705769 -0.30403963 
-0.60547155 0.53701174 -0.58738625 
-0.2656454 -0.36556324 -0.89207405 
-0.6934699 -0.49388707 -0.5245714 
-0.45797214 -0.7227537 -0.51757956 
-0.91005963 -0.14224176 -0.38930556 
-0.3786877 -0.17750886 -0.90834266 
0.022438085 -0.008359348 -0.9997133 
0.41921556 0.05682906 -0.9061064 
0.6392598 -0.3156968 -0.7012008 
0.59797364 -0.7464378 -0.2919901 
-0.46007907 -0.13361593 -0.8777666 
-0.028665178 -0.28967834 -0.9566947 
0.37025586 -0.42995062 -0.82343984 
-0.0607839 -0.7733346 -0.6310776 
0.044575263 -0.41066426 -0.91069645 
0.42248005 -0.45049477 -0.7864892 
0.27939427 -0.12101245 -0.95252025 
0.15864323 -0.19513108 -0.9678617 
0.8136176 -0.5577394 -0.16417427 
0.15016769 -0.7537122 -0.6398185 
0.15167372 -0.78088385 -0.60598326 
0.28280187 -0.752928 -0.59424126 
0.5907887 -0.30748963 -0.74593484 
0.8527199 -0.36911628 -0.36962438 
0.92354506 -0.28423834 -0.2574359 
0.7280539 -0.65234905 0.21066141 
0.52355784 -0.6427477 -0.55925184 
0.3847911 -0.9077624 -0.167043 
-0.08927566 -0.5471509 -0.8322594 
0.056824062 -0.47617182 -0.87751436 
0.38259223 -0.8201336 -0.42544574 
0.14984703 -0.59046394 -0.793031 
-0.06386562 -0.50594467 -0.86019844 
0.077921554 -0.23998687 -0.9676438 
-0.061620947 -0.8441871 -0.53249514 
0.06617631 -0.3991411 -0.91449827 
0.07454497 -0.3051358 -0.94938684 
0.74793625 -0.17087778 -0.64139867 
-0.18453425 -0.13297541 -0.97378886 
0.22952963 -0.9469525 -0.2249382 
0.8068983 -0.5715094 0.14930524 
0.41619635 -0.89855057 0.13923885 
0.1644023 -0.25216338 0.95361716 
-0.87461585 -0.3690495 0.31440365 
-0.35269985 -0.7155896 -0.6029382 
-0.15197828 -0.7758542 -0.6123341 
-0.6545907 0.72514135 -0.2137313 
0.033550005 -0.35801122 -0.9331144 
0.19283791 -0.1089342 -0.97516507 
-0.477579 -0.11929494 -0.87045217 
-0.25390744 -0.34007555 -0.9054721 
-0.21717341 -0.8349534 -0.5056564 
-0.21819992 -0.72499365 -0.65327865 
-0.4745378 -0.18625435 -0.8603041 
-0.6479212 -0.4481051 -0.6159545 
-0.28277314 -0.43626514 -0.85423195 
0.60506046 -0.061297026 -0.7938165 
-0.016142316 -0.7007946 -0.7131806 
-0.020928152 -0.06028054 -0.9979621 
0.751855 0.1134697 -0.6494912 
0.6738016 0.5784967 -0.4597097 
-0.020352835 0.9786322 -0.20460871 
0.29895943 -0.20125058 -0.9328031 
0.5176698 -0.0053393003 -0.8555639 
-0.4178483 0.64106584 -0.64376813 
0.13314259 0.12412521 -0.9832934 
-0.114488736 -0.27977687 -0.9532142 
-0.115738064 -0.23382354 -0.96536595 
-0.17340882 -0.569181 -0.8037179 
-0.78097284 -0.6237964 0.030975506 
-0.9799413 0.18146846 -0.08236687 
-0.17825058 -0.52233315 -0.8339034 
0.34723228 -0.28881988 -0.8921955 
-0.15969452 -0.08147827 -0.9837982 
0.15250346 -0.5879076 -0.7944227 
-0.08228978 0.039060123 -0.99584275 
-0.41710728 -0.112736 -0.90183824 
-0.50425637 -0.45290366 -0.7352577 
0.17551757 0.41111735 -0.89452565 
0.6599124 0.36605495 -0.65613985 
0.57951194 -0.27846012 -0.76591504 
0.60955465 -0.5792262 -0.54123956 
-0.4331559 0.4995616 -0.75020945 
-0.48161617 0.23728912 -0.84364665 
0.07087248 0.02152502 -0.9972531 
0.16515377 0.20603849 -0.96450627 
0.8241711 0.4489444 -0.34524027 
-0.06286941 0.012256991 -0.9979465 
-0.016048485 0.42133316 -0.9067639 
0.7946916 -0.24178581 -0.5567809 
-0.74417937 -0.52467376 -0.4134181 
-0.3095039 -0.7776601 -0.5472223 
0.046874933 0.10648226 -0.99320906 
-0.013721896 -0.1784389 -0.98385537 
-0.093357 -0.8805837 -0.4646039 
0.068662696 -0.53749526 -0.8404668 
0.6061708 -0.43667912 -0.66473186 
-0.31192312 -0.8009279 -0.51109564 
-0.227681 -0.6471188 -0.7275979 
0.04404891 -0.9177169 -0.39478526 
0.11631333 -0.82090425 -0.5590952 
-0.43476322 -0.39255118 -0.81048405 
-0.5368458 0.5766507 -0.6158495 
-0.20300104 0.7971823 -0.56858695 
-0.30157298 0.4140091 -0.8588657 
-0.67147136 0.25413823 -0.69608915 
-0.13758682 0.40705055 -0.9029838 
-0.090021774 0.006824936 -0.9959165 
-0.04329613 0.4792598 -0.8766046 
-0.052778788 0.067827515 -0.99630016 
0.03867025 -0.17180689 -0.9843714 
-0.12236517 -0.33956316 -0.9325898 
-0.784241 -0.5689419 -0.24752997 
-0.73422205 -0.4729339 -0.48708484 
0.21054275 0.27649826 -0.9376676 
-0.9215291 -0.17787513 -0.3451733 
0.014287077 -0.3727067 -0.9278393 
-0.088929154 -0.7701919 -0.6315822 
0.578489 -0.31407654 -0.75279903 
0.24580957 -0.5863239 -0.7718821 
-0.3015485 -0.71233267 -0.6337592 
0.027585194 -0.8727946 -0.4873074 
0.1451144 -0.46726328 -0.87212783 
0.07347102 -0.887969 -0.45399675 
-0.05748612 -0.7155551 -0.6961871 
0.06001151 -0.9052148 -0.42069563 
-0.56320846 -0.545343 -0.62080383 
-0.17284106 -0.09225831 -0.9806194 
-0.48294967 0.5581698 -0.67468965 
-0.48049355 -0.2416035 -0.8430622 
0.034953807 -0.72191876 -0.6910945 
-0.013498136 -0.8734551 -0.48671752 
-0.6146683 -0.7555577 -0.22652917 
-0.48960102 -0.85708195 -0.16031694 
-0.79952514 -0.45923388 -0.3871224 
-0.55672246 -0.35541445 -0.7508267 
-0.59758705 0.1327951 -0.7907309 
-0.30341855 -0.7029283 -0.64329547 
0.4129433 -0.58735174 -0.6960574 
0.23188181 0.25154 -0.9396587 
0.5476437 -0.41930723 -0.72406346 
0.6158857 -0.17118537 -0.7690127 
-0.14592272 0.24555099 -0.9583378 
-0.057273027 -0.0018675813 -0.9983568 
0.32196546 -0.07836868 -0.94350237 
0.548203 -0.35401347 -0.7577256 
0.022942452 -0.32697403 -0.94475484 
0.612416 -0.17174594 -0.771654 
0.956418 -0.103909165 -0.2728877 
0.46339542 -0.86500674 -0.19242696 
0.199441 -0.44586292 0.8725993 
-0.39834687 -0.46435052 0.791011 
-0.25540808 -0.9330544 0.25333044 
-0.051833652 -0.9639321 -0.26105207 
-0.18629104 -0.29687735 -0.93656796 
0.38126838 -0.44944334 -0.80785835 
0.38824084 -0.51563376 -0.7638003 
0.22616434 0.18506786 -0.95634705 
0.42740008 -0.4449698 -0.7869759 
0.32421818 0.14588471 -0.93466586 
0.061518405 -0.3800131 -0.9229332 
-0.3513976 -0.4551672 -0.81813353 
-0.63793 -0.16736616 -0.75168747 
-0.09990725 -0.6979575 -0.709136 
0.061998866 0.19316301 -0.9792059 
0.24299796 0.56524545 -0.78832084 
-0.0014257135 -0.171355 -0.98520833 
0.50635743 -0.07771721 -0.85881436 
0.23983754 -0.22159475 -0.9451845 
0.2934544 -0.34496254 -0.8915635 
-0.35187462 -0.017630497 -0.9358811 
0.09456025 0.5702739 -0.81599396 
0.041161526 -0.00059042237 -0.9991524 
0.31146497 -0.05914198 -0.9484154 
0.6423472 -0.44020763 -0.62738144 
0.7264445 0.020335872 -0.6869242 
0.113216184 0.9922351 -0.051492672 
0.25710818 0.45864156 -0.8506136 
0.77628165 -0.095849045 -0.6230569 
0.29190853 -0.35243085 -0.88914675 
-0.12287096 -0.6539836 -0.74646384 
0.04222503 -0.41924292 -0.90689164 
0.6415358 -0.24928242 -0.72545856 
0.27348363 -0.2053383 -0.9397037 
-0.131836 -0.51332045 -0.84801036 
-0.42557225 -0.7932838 -0.43541822 
0.03342799 -0.03616861 -0.9987865 
0.89026314 -0.072793655 -0.44959152 
0.34832093 -0.81328213 -0.46609518 
0.3240453 -0.78662354 -0.5255646 
0.26738435 -0.8061645 -0.52782995 
0.6679245 -0.23280239 -0.7068804 
-0.1642504 -0.03779853 -0.9856943 
0.3520711 0.37090567 -0.8593457 
0.38911423 0.63169473 -0.6704864 
0.26593518 0.3870927 -0.8828577 
0.5244084 0.22826576 -0.82029915 
0.3842725 0.0027738514 -0.92321557 
0.068558075 -0.10922382 -0.99165016 
-0.029966716 -0.33229402 -0.9426997 
-0.18288963 0.034441974 -0.98253006 
0.36044922 0.03542408 -0.932106 
0.6144837 0.049364645 -0.7873836 
-0.16552868 0.5028039 -0.84840345 
-0.16314478 0.16660345 -0.9724336 
0.07129358 -0.22630124 -0.97144485 
0.25739446 -0.42825124 -0.8662269 
-0.53420144 -0.2775349 -0.79850054 
-0.58848685 -0.51954603 -0.61947984 
-0.7362705 -0.15857106 -0.6578458 
-0.0019039788 0.2825457 -0.959252 
-0.0019776647 -0.49600935 -0.868315 
-0.52290803 -0.60609716 -0.59934425 
0.11127283 -0.8241778 -0.5552922 
-0.09789645 -0.08424316 -0.9916247 
-0.54691327 0.0883385 -0.83251554 
-0.09008332 -0.036283765 -0.9952731 
0.15872855 -0.16711177 -0.97307706 
-0.15198156 -0.14794701 -0.97724783 
0.08897362 -0.53227043 -0.84188586 
0.57600117 -0.5806651 -0.57537013 
0.45258513 -0.31214315 -0.8353044 
0.14396247 -0.2102002 -0.96700096 
0.26230425 0.15306497 -0.9527684 
0.58983165 -0.18852308 -0.7852119 
0.11727333 -0.26138252 -0.95808464 
0.15814643 0.054445922 -0.9859135 
0.4752828 -0.08739425 -0.8754819 
-0.07142284 -0.56928205 -0.819034 
0.7039234 -0.2709748 -0.65655506 
0.70160043 -0.28680116 -0.6523051 
0.33236 0.44720024 -0.83039075 
-0.3184664 0.7157665 -0.6214962 
0.020751877 0.6085308 -0.7932589 
-0.50409055 0.6812312 -0.5308643 
-0.7075435 -0.23638445 -0.66596144 
-0.2987654 -0.08016134 -0.95095396 
-0.42033786 0.27995396 -0.86310023 
-0.7837725 0.4638188 -0.41300473 
-0.05055218 -0.0401744 -0.9979131 
-0.008014419 -0.9019506 -0.4317648 
-0.26537913 -0.6228717 -0.73593813 
0.5881518 -0.70618594 -0.39418125 
-0.6590543 -0.41406196 -0.62785363 
0.35276422 -0.52473634 -0.7747317 
0.16431163 0.12049656 -0.97902113 
0.2642538 -0.17218776 -0.94895804 
0.48539728 -0.5431278 -0.68512905 
-0.024774484 0.03191918 -0.99918336 
-0.49536344 -0.093384646 -0.86365175 
-0.19935851 -0.44519255 -0.87296045 
-0.40301293 -0.83806634 -0.3677303 
-0.5492562 -0.5085566 -0.6630897 
-0.1556936 -0.7700864 -0.618649 
-0.37912008 -0.6012435 -0.7034019 
0.1042176 0.08084129 -0.9912636 
-0.9949046 -0.07468734 -0.067725375 
-0.9707162 0.006305402 -0.24014653 
-0.6870324 -0.5359632 -0.49064246 
-0.3184253 0.19259135 -0.9281777 
-0.56561464 -0.63606226 -0.52488565 
0.048758324 0.06800375 -0.996493 
0.40166545 -0.508612 -0.7615634 
0.31706092 -0.094937526 -0.9436415 
-0.41961467 0.013625303 -0.9076001 
-0.32562467 0.33599448 -0.8837852 
-0.32694176 -0.14952591 -0.93314046 
-0.20436953 -0.14995566 -0.9673399 
0.24081105 -0.27479574 -0.93085843 
-0.05028426 -0.23121198 -0.97160316 
0.23366344 0.12339838 -0.9644554 
0.10768041 0.3215368 -0.9407545 
0.0845225 0.44237483 -0.8928384 
-0.54967916 0.58292305 -0.5983758 
-0.44814104 0.41373786 -0.79245865 
0.05023742 -0.1486794 -0.9876086 
-0.10929745 -0.68077236 -0.72429496 
-0.24963763 -0.49854383 -0.8301417 
0.5236475 -0.669973 -0.526241 
0.4754793 0.021229515 -0.8794708 
0.34276205 -0.36430356 -0.86590827 
0.30262935 -0.88272357 -0.3594643 
0.8630836 -0.38717327 -0.32432047 
0.4897561 -0.48531547 -0.7242982 
-0.47963282 -0.73212034 -0.4836862 
-0.7673015 -0.62371254 0.14910154 
-0.7915213 -0.54735845 -0.27183226 
0.4967047 -0.7621033 -0.41531062 
0.6544308 -0.6475533 -0.39037824 
-0.25237074 0.35711542 -0.8993207 
-0.110405125 -0.44101444 -0.8906835 
-0.29729438 -0.53275245 -0.7923326 
0.4032274 -0.76731944 -0.4986267 
-0.15616225 -0.769646 -0.6190787 
-0.045261476 -0.5907389 -0.80559236 
0.7409756 -0.6392829 -0.20560277 
0.66190565 -0.73420465 0.15107815 
-0.20746617 -0.9711729 -0.11739192 
0.3576227 -0.93332314 0.03184444 
0.23398462 -0.9150818 -0.32844582 
-0.0246489 -0.30259502 -0.9528005 
-0.6707884 -0.5333091 -0.51538754 
0.0157862 0.72115195 -0.69259715 
0.44426793 0.08938345 -0.891424 
0.22346145 0.076692685 -0.9716909 
0.082917005 -0.0067618894 -0.9965335 
-0.047184188 -0.28751555 -0.956613 
-0.5181869 -0.833569 -0.19142886 
-0.63048303 -0.6882487 -0.35889417 
-0.18040147 0.12492549 -0.97562754 
0.6482672 -0.49635547 -0.57739156 
0.3142904 -0.28699547 -0.9049063 
0.7360075 -0.067238845 -0.673626 
0.3851355 0.20922047 -0.8988311 
0.27563182 0.071277834 -0.9586171 
0.5163257 0.28771356 -0.80661565 
0.8589997 0.39926866 -0.3204749 
0.6087458 0.7049872 -0.36389795 
0.23489358 0.23024131 -0.944359 
0.562518 -0.3754461 -0.7366233 
-0.14855923 -0.020887079 -0.988683 
0.5579878 -0.50422096 -0.65909857 
0.49137098 -0.64391106 -0.58645815 
-0.27807468 -0.93495315 -0.22031146 
0.13816436 -0.38979274 -0.91047925 
-0.42422992 0.011596405 -0.9054804 
-0.31350765 0.23680474 -0.919585 
0.1249829 -0.37159276 -0.91994464 
-0.23332216 0.14719833 -0.96119374 
0.0072828177 0.5729622 -0.8195495 
-0.40709412 -0.41448113 -0.81392866 
-0.37284783 0.644915 -0.6671351 
-0.17297246 0.6877299 -0.705059 
-0.24471739 0.5055329 -0.82737535 
-0.426545 0.73966277 -0.5205366 
0.23219934 0.5315076 -0.8146062 
0.4561218 -0.38829544 -0.8007369 
0.4374228 0.29940012 -0.847951 
-0.06873464 -0.17653222 -0.98189205 
-0.18062527 0.24783684 -0.9518148 
0.42470542 0.30078444 -0.8539052 
0.6577466 0.17041615 -0.7337082 
0.54858434 0.38449633 -0.7424405 
0.61844224 0.5992818 -0.5083213 
0.49416897 0.8630441 -0.10465181 
0.80066293 -0.15669015 -0.57826215 
-0.28370202 -0.28808498 -0.9146148 
-0.51564133 -0.7195689 -0.46511784 
-0.06672922 -0.7893504 -0.61030585 
0.6195135 -0.19907117 -0.7593245 
0.3610797 -0.5951816 -0.7179 
0.50667506 0.12080929 -0.85363084 
0.20996489 -0.80857575 -0.54965436 
0.40768066 -0.8098354 -0.421857 
0.1792244 -0.8503612 -0.4947368 
-0.083968595 -0.44781023 -0.8901772 
0.48493454 -0.5616234 -0.6703863 
0.18260176 -0.41015464 -0.89354897 
0.36156598 0.27182183 -0.89184254 
-0.023464723 0.79783034 -0.6024252 
0.14397128 -0.00038062548 -0.98958176 
-0.07484124 0.41845307 -0.9051497 
-0.199448 0.6293013 -0.75113267 
-0.1833862 0.3248038 -0.92783195 
-0.40865666 0.17754856 -0.89525217 
0.2472246 -0.17349648 -0.95329905 
0.58109343 -0.38743317 -0.7156996 
0.5912051 -0.33492914 -0.73368865 
0.42979303 -0.57848054 -0.6932809 
0.12643628 -0.19137342 -0.97333974 
0.38427055 -0.40839773 -0.82797796 
-0.3442895 -0.49721187 -0.796395 
-0.24939899 -0.9103031 -0.33037618 
-0.062177856 -0.34434202 -0.9367831 
0.12131214 -0.59671056 -0.79323393 
-0.22123665 -0.29091653 -0.9308179 
0.13248336 0.013530733 -0.99109286 
0.30550277 -0.49685574 -0.81228226 
-0.1205195 -0.40476558 -0.9064436 
0.5034703 -0.02270784 -0.8637141 
-0.18887953 -0.28949255 -0.93835956 
-0.4321815 -0.3980818 -0.8091663 
-0.6784145 -0.5672967 -0.4668279 
0.35030147 -0.41336635 -0.84048635 
-0.018176977 -0.1972703 -0.9801806 
0.028413625 -0.6774604 -0.7350103 
0.3334834 -0.93541336 -0.117433734 
-0.23137403 -0.8326593 -0.50313485 
-0.69948155 -0.6569804 -0.28125137 
-0.30895567 -0.8615249 -0.4028911 
0.097874835 -0.4891933 -0.8666664 
-0.34970444 -0.19493182 -0.916356 
-0.14289658 0.12489187 -0.9818261 
-0.53873074 -0.3642536 -0.75966346 
0.1733429 -0.77852136 -0.60320544 
-0.2502876 0.59049845 -0.76724684 
0.23469442 0.6657068 -0.70834523 
-0.6061601 -0.33152848 -0.72295153 
-0.104276694 0.375708 -0.9208528 
-0.13580713 -0.04996295 -0.9894748 
0.6514529 -0.009496561 -0.7586298 
0.98690045 -0.15449293 -0.04647023 
0.900925 -0.34731892 -0.26019943 
0.81343323 -0.19367483 0.5484673 
0.50132215 -0.8486323 -0.16881801 
0.42701164 -0.8912188 0.1529388 
0.093113646 -0.9849366 0.14570497 
-0.15125944 -0.98399824 -0.094170846 
0.49971497 -0.69230086 -0.520581 
-0.05640328 -0.7435624 -0.6662835 
-0.42384762 -0.5178661 -0.74308014 
-0.14777398 -0.6309242 -0.7616413 
-0.21872592 0.0793821 -0.97255206 
-0.74123615 0.14250593 -0.6559429 
0.3043374 -0.38881874 -0.86959684 
-0.17319562 -0.3915003 -0.90373164 
-0.1694862 0.38801873 -0.9059338 