# OOMMF: rectangular mesh v1.0
# Segment count: 1
# Begin: Segment
# Begin: Header
# Desc: Time (s) :  7.600000000000018e-07
# Title: m
# meshtype: rectangular
# meshunit: m
# xbase: 2e-09
# ybase: 2e-09
# zbase: 5e-10
# xstepsize: 4e-09
# ystepsize: 4e-09
# zstepsize: 1e-09
# xmin: 0
# ymin: 0
# zmin: 0
# xmax: 1.024e-06
# ymax: 1.024e-06
# zmax: 1e-09
# xnodes: 256
# ynodes: 256
# znodes: 1
# ValueRangeMinMag: 1e-08
# ValueRangeMaxMag: 1
# valueunit: 
# valuemultiplier: 1
# End: Header
# Begin: Data Text
-0.626998 -0.040082052 -0.777989 
0.25881276 -0.6989025 -0.6667468 
0.4525179 -0.82497644 -0.3385877 
0.10048608 -0.7256756 -0.68065965 
-0.3276679 -0.93215925 0.1539904 
-0.66600186 -0.5913808 -0.45465422 
-0.6637843 -0.695055 -0.27620453 
0.30545008 -0.41738585 -0.8558559 
-0.21559025 -0.051907092 -0.9751034 
-0.022729298 -0.35446218 -0.9347941 
0.0116126705 -0.7554359 -0.6551198 
-0.77192646 -0.6076651 -0.18674254 
-0.54318666 -0.81560284 -0.19935015 
-0.13103972 -0.4802397 -0.8672937 
0.44620487 -0.2359983 -0.8632531 
0.16040675 -0.34777886 -0.923753 
0.60735655 -0.69907355 -0.37737814 
0.46145535 -0.8853011 0.057454754 
-0.63248354 -0.40464574 -0.6604744 
-0.7209742 -0.39778686 -0.56741685 
-0.30089518 -0.7202902 -0.6250154 
0.019269608 0.28853497 -0.95727545 
0.08113456 0.087281674 -0.9928742 
0.6162336 -0.25139034 -0.74636394 
-0.6128972 0.32557508 -0.71997076 
-0.85327077 -0.45065552 -0.26237127 
0.5325454 -0.8458174 0.03143945 
-0.37565878 -0.8706564 -0.31755018 
-0.052155823 -0.6524631 -0.75602365 
0.14701302 -0.7514409 -0.64321375 
0.4197896 -0.67277455 -0.6092218 
0.4602341 -0.65889955 -0.59500927 
-0.02136066 -0.87848127 0.47729918 
0.07599308 -0.8307131 -0.55148965 
-0.22775404 -0.9495163 -0.21574771 
0.5622171 -0.48352763 -0.6709046 
-0.016332753 -0.82585186 -0.5636508 
0.38917866 -0.89351 -0.22400871 
-0.50408226 -0.8434921 0.18553215 
-0.6715814 -0.66538084 0.3259554 
-0.17904407 -0.8815598 0.4368017 
0.21383363 -0.9560681 -0.20052186 
0.2467672 -0.79850304 0.5490893 
-0.28454638 -0.8925075 -0.34994832 
0.083681345 -0.5985888 -0.79667366 
-0.26813376 -0.081078745 -0.95996386 
0.5154563 -0.7508843 -0.41288927 
-0.47607574 -0.79412824 -0.3777729 
-0.035025936 -0.37879676 -0.9248169 
0.8342674 -0.38379213 -0.3958555 
0.4672489 0.012731123 -0.88403416 
0.5917425 -0.63257205 -0.4996933 
0.2591434 -0.424423 -0.8675886 
0.29922912 0.13312665 -0.9448488 
0.08497915 -0.57749 -0.8119631 
-0.47907776 -0.718581 0.5041091 
-0.65561587 -0.6070398 -0.44907752 
-0.19776535 -0.7691873 -0.6076511 
0.122832604 -0.4729709 -0.87247384 
-0.39934456 -0.38073695 -0.8340044 
-0.13651115 -0.70188063 -0.6990911 
0.4005262 -0.5021967 -0.76640546 
0.7729907 -0.31925702 -0.548234 
0.7279993 -0.6505204 -0.2164262 
0.70050037 -0.47176048 -0.5354824 
0.64324933 -0.6832727 -0.3454978 
-0.27120802 -0.6724689 -0.6886449 
-0.4114115 -0.1405281 -0.9005513 
0.36651072 -0.29315114 -0.8830246 
0.1720381 -0.87967986 -0.443358 
-0.50174874 -0.31112617 -0.8071237 
0.6466089 -0.38933164 -0.6559862 
-0.4529494 -0.092820905 -0.88669115 
-0.36923808 -0.3424939 -0.863922 
-0.31297964 -0.72536755 -0.6130952 
-0.54933167 -0.19442096 -0.81267166 
-0.35685277 -0.5035898 -0.7867996 
0.5114662 -0.31519994 -0.79940695 
0.6422258 -0.4774741 -0.599637 
0.19936556 -0.7073524 -0.6781637 
-0.3720463 -0.5656115 -0.73597914 
-0.9500063 -0.2499568 -0.18710884 
-0.96585137 -0.20362161 -0.16021688 
-0.23183909 -0.906158 -0.353735 
-0.6418359 0.11049111 -0.7588402 
-0.4305969 -0.06554289 -0.90016145 
-0.61978716 -0.7840032 -0.034681678 
-0.23075333 -0.9544137 -0.18933442 
-0.66031575 -0.71635425 -0.22543228 
-0.6539429 -0.698078 -0.29162633 
-0.51347864 -0.3446674 -0.78583974 
-0.6577991 -0.650206 -0.38017425 
-0.8051955 -0.24530372 -0.53989464 
-0.41398576 -0.13187698 -0.90067995 
-0.5737151 0.44163117 -0.68979204 
-0.22326568 0.030804818 -0.97427076 
0.53945464 0.068165846 -0.839251 
-0.16626698 -0.40852955 -0.8974737 
-0.29587153 -0.015902739 -0.9550954 
-0.080530755 0.42355114 -0.9022856 
-0.21283278 -0.2752198 -0.9375267 
-0.09559851 -0.23893806 -0.9663176 
0.41760445 -0.6387544 -0.64621925 
0.9090758 0.06375287 0.4117244 
0.3877089 -0.2660963 -0.88253874 
0.72085536 0.5807751 -0.37824327 
0.94017845 -0.027214462 0.33959365 
0.32642096 -0.4722807 0.8187799 
0.5134684 -0.80755395 0.2901845 
0.046279937 -0.6806735 -0.73112375 
0.52384555 -0.36854157 -0.76796025 
0.58808994 0.06915541 -0.8058337 
-0.11114804 -0.9680103 -0.22494934 
-0.4286485 -0.517499 -0.74057764 
-0.47313356 -0.6012526 -0.6439254 
-0.111830615 -0.55437005 -0.82472295 
-0.6881933 0.29695064 -0.6619746 
-0.5201397 -0.2743142 -0.8088303 
0.21198289 -0.6600301 -0.72071046 
-0.2299435 -0.41179284 -0.8817895 
-0.071671695 -0.23277068 -0.9698871 
-0.2180407 -0.19034526 -0.9571974 
0.06415421 -0.024254255 -0.9976452 
-0.19728272 -0.8707953 -0.4503279 
0.3682771 -0.884462 -0.28652948 
-0.118179716 -0.97226703 -0.20181786 
0.6287902 -0.76700455 0.12777656 
0.23350567 -0.9576484 0.16847782 
-0.27379003 -0.79805624 0.5367916 
-0.46487164 -0.7428488 0.48173654 
0.035948046 -0.95757586 0.2859305 
-0.7021846 -0.6686222 -0.24470659 
0.34007716 -0.32727256 -0.88161236 
0.4058527 -0.41743362 -0.81303924 
0.48916408 -0.8105163 -0.32215205 
-0.21771519 -0.6620059 -0.71718085 
0.45516255 -0.4034854 -0.79374224 
0.07287473 -0.38243836 -0.9211027 
-0.35471898 -0.8586764 -0.36993182 
0.025736379 -0.899024 -0.43714234 
0.11348032 -0.9627228 -0.24553433 
0.115135364 -0.7713857 -0.6258659 
0.0034427645 -0.66179585 -0.7496762 
0.34595966 -0.8749474 -0.33879036 
0.5342993 -0.119040996 -0.83687127 
-0.035695538 -0.2311076 -0.9722732 
0.39568922 -0.6215591 -0.6760876 
0.49088955 -0.73816895 0.46274623 
-0.18110174 -0.9832433 -0.020854048 
0.02083494 -0.602 -0.79822433 
-0.076353185 -0.36311013 -0.92861253 
-0.023864912 0.21626353 -0.97604334 
0.36612248 -0.028656255 -0.9301254 
-0.019481966 -0.70415896 -0.70977515 
0.20215358 -0.28173426 -0.93795514 
0.40937194 -0.9122516 0.014552803 
-0.12555741 -0.93104607 -0.34262037 
-0.19766732 -0.59260863 -0.7808602 
-0.29158598 -0.63209873 -0.7179338 
0.31890544 -0.4531116 -0.83245975 
0.68422216 -0.6486653 -0.33327687 
0.6085415 -0.6872811 -0.39663854 
0.047484968 -0.9881823 -0.145743 
0.09535232 -0.9066759 -0.4109096 
-0.3671895 -0.6360026 -0.67872876 
-0.9138671 -0.33520123 -0.22910076 
-0.2996629 0.36344352 -0.88210607 
-0.36698642 -0.18173261 -0.9123016 
-0.5253582 -0.6826092 -0.50797987 
-0.47336534 -0.7269909 -0.49740288 
-0.3794352 0.090757616 -0.92075616 
-0.22997004 -0.64105135 -0.7322343 
0.21423018 -0.66618305 -0.71435684 
-0.285236 0.15221724 -0.94629294 
-0.37285182 0.10755487 -0.9216364 
-0.026966661 -0.7865613 -0.6169232 
-0.24175882 -0.42536023 -0.8721362 
-0.875935 -0.008027645 -0.48236242 
-0.93297136 -0.3576657 -0.04049257 
-0.64857554 -0.3859549 -0.6560402 
-0.29866165 -0.61433095 -0.7303415 
0.22139698 0.06910355 -0.97273225 
0.708238 -0.7009726 0.08388355 
0.54913473 -0.6852045 -0.47848287 
-0.023829013 -0.35298416 -0.9353258 
-0.19399278 -0.2329174 -0.9529514 
-0.31148854 -0.2736189 -0.91000414 
0.05417058 -0.572877 -0.81784934 
-0.0160383 -0.62844706 -0.777687 
0.6611991 -0.69315016 -0.2869819 
0.19497243 -0.96801835 0.15788066 
0.4070645 -0.6052019 -0.6841267 
0.07834933 -0.37610227 -0.9232598 
-0.2516321 -0.93994457 -0.23061997 
0.24868481 -0.8760922 -0.4130599 
-0.18292643 -0.8709581 -0.45603722 
0.6099179 -0.7445874 -0.27127454 
-0.15995266 -0.4666485 -0.86985886 
-0.3735936 -0.15444365 -0.91464484 
-0.40277356 -0.18606459 -0.89618826 
-0.044520732 0.19019902 -0.98073566 
-0.22179614 -0.38490042 -0.895912 
0.015513207 -0.41509527 -0.90964574 
-0.057913102 -0.43804616 -0.8970851 
0.17456226 -0.14860256 -0.97336805 
-0.27327707 0.27887475 -0.9206241 
-0.30363685 0.025141198 -0.9524562 
0.27398562 0.098377064 -0.95668906 
0.7521707 0.096284725 -0.65189606 
0.6663729 -0.20759426 -0.7161367 
-0.023509784 -0.4529869 -0.8912071 
0.7544121 -0.44237068 -0.48494378 
0.39643523 -0.729869 -0.55689365 
0.5104734 -0.8096045 -0.28975427 
0.003758199 -0.98220974 -0.18774962 
0.43276995 -0.8949388 -0.10860373 
-0.0065230075 -0.9407478 -0.33904433 
-0.33074972 -0.7625025 -0.5560527 
-0.14736381 -0.87836754 -0.45470247 
-0.09266026 -0.017952742 -0.99553597 
-0.060854968 0.27018172 -0.9608842 
-0.21800841 0.2900429 -0.9318517 
-0.6728568 -0.6821505 -0.28624222 
-0.67775893 -0.70049936 -0.22348052 
0.22705689 -0.90830773 -0.3513151 
-0.28686556 -0.9448233 -0.15816791 
-0.79345155 -0.58856136 -0.1550171 
-0.44162923 -0.8496123 -0.28830987 
-0.45246324 0.5883909 -0.6701293 
-0.31094894 0.086212166 -0.9465084 
-0.5734927 -0.5028675 -0.64670736 
-0.6662269 -0.72140193 0.18900011 
-0.5401089 -0.19173414 -0.8194635 
-0.25250018 -0.19170442 -0.9484161 
-0.74539995 -0.081569515 -0.66160816 
-0.4115088 -0.911115 -0.023026321 
-0.44539154 -0.65013963 -0.61558497 
-0.5053334 -0.17700107 -0.8445762 
-0.06086974 -0.57840693 -0.81347424 
-0.12624253 -0.3990961 -0.90817684 
0.55620855 -0.115255095 -0.8230118 
-0.218247 -0.4307359 -0.8756911 
0.20281538 -0.17668982 -0.9631441 
-0.5020036 -0.36095425 -0.78594184 
-0.122654594 -0.9910833 -0.052055478 
-0.34484744 -0.87488204 -0.3400909 
-0.043338813 -0.76295674 -0.64499515 
0.27053943 -0.68921804 -0.67215097 
-0.07142224 -0.92415905 -0.37527165 
0.74779797 0.21864688 -0.6268906 
0.3252917 0.3435423 -0.8810018 
0.17259642 0.17614044 -0.9691156 
0.58928514 0.6302985 -0.50543725 
0.71461 0.6713855 -0.19640282 
0.60395604 0.7957986 -0.044066735 
0.6206804 0.6492096 -0.43963927 
-0.44614786 -0.41347703 -0.7937185 
0.01117227 -0.7000873 -0.71396995 
-0.30742884 -0.8718647 -0.3812345 
-0.88723207 -0.3866432 -0.25164726 
-0.8663454 -0.4805202 -0.1361835 
-0.9863844 0.008790447 -0.16422135 
-0.31383285 -0.7166092 -0.6228806 
-0.38408342 -0.078891225 -0.9199219 
0.070773125 -0.17757815 -0.98155856 
-0.13754229 -0.14508191 -0.9798129 
0.035677426 0.013914328 -0.9992665 
-0.6162913 -0.40443763 -0.6757332 
-0.53154576 0.037904024 -0.84618104 
0.029559446 -0.29798174 -0.9541138 
0.66273373 -0.056129146 -0.7467487 
0.2024471 -0.38811466 -0.8991007 
0.23428917 -0.8982185 -0.37190345 
0.33514392 -0.92964697 -0.15308534 
0.15888031 -0.7011463 -0.6950906 
0.4666508 -0.87365234 -0.13772663 
0.068023 -0.2809026 -0.95732266 
0.104616135 0.41240305 -0.9049748 
-0.16882235 -0.24193862 -0.95549196 
-0.29598403 -0.14446025 -0.94420594 
-0.582646 0.13119039 -0.8020679 
-0.27111205 0.008432097 -0.9625109 
-0.21151862 0.041899335 -0.9764755 
-0.4548359 -0.45071104 -0.7681041 
-0.2518184 -0.6298798 -0.73473734 
-0.08526136 -0.5928252 -0.80080515 
-0.24094652 -0.6299894 -0.7382806 
0.39882708 -0.5413776 -0.7401671 
0.35649118 -0.9292565 0.0969354 
-0.11971085 -0.5938915 -0.7955892 
-0.21572699 -0.6718306 -0.708594 
-0.08776303 -0.24405843 -0.9657811 
-0.3545711 -0.10104534 -0.9295532 
0.32341895 -0.5856733 -0.74322754 
-0.26372445 -0.4876591 -0.83224887 
0.32977167 -0.9363641 0.12030368 
-0.16384523 -0.96823555 -0.18887731 
0.016140783 -0.84237903 0.53864384 
-0.08251899 -0.98759675 0.13357843 
0.2014927 -0.9520574 -0.23018993 
-0.4725312 -0.60753584 -0.638447 
-0.871932 -0.41239104 -0.2639477 
-0.050154615 -0.6539683 -0.75485766 
-0.29521155 -0.94056034 -0.16791783 
-0.1652797 -0.3794299 -0.91033816 
-0.32556587 -0.06116367 -0.943539 
-0.4912181 -0.2886417 -0.82182163 
-0.12729962 -0.17306319 -0.9766494 
0.54752547 -0.5996857 -0.58360344 
-0.014145548 -0.9350358 0.35427123 
-0.02365539 -0.98966277 0.14144969 
-0.18989962 -0.83602536 -0.51478136 
-0.98088855 0.18503128 0.060177118 
-0.8970716 -0.378826 -0.22749375 
-0.48130396 0.17233197 -0.85944647 
-0.41164887 -0.3116166 -0.8564113 
-0.4738952 -0.012850179 -0.8804875 
-0.34202144 0.08733663 -0.93562484 
0.65510714 0.0327893 -0.7548243 
0.6656382 -0.4078233 -0.62498474 
0.18213603 -0.21327013 -0.9598658 
0.2845603 -0.8391057 -0.46360227 
0.14702633 -0.77535915 -0.61416733 
-0.02820524 -0.47184518 -0.88123024 
0.37538287 -0.34593174 -0.8598947 
-0.2095697 -0.875891 -0.43462119 
-0.055375848 -0.41238222 -0.90932643 
0.3759744 0.46038562 -0.8041694 
-0.4764431 0.4625433 -0.74770033 
0.19136742 -0.18849419 -0.9632489 
-0.83055836 0.032768447 -0.55596673 
-0.092200525 -0.11567111 -0.9889991 
0.19762771 0.5832724 -0.78786844 
0.3386159 -0.42532116 -0.83931005 
0.45551506 -0.5595195 -0.692419 
-0.31628925 -0.61188567 -0.7249532 
-0.33742014 -0.34465623 -0.8759908 
-0.6958512 -0.61229056 -0.37535515 
-0.18734488 -0.8839269 -0.42845687 
-0.6323503 -0.548619 -0.54694647 
-0.44283122 -0.1139912 -0.8893293 
-0.80633116 -0.016569523 -0.5912322 
-0.5220453 -0.5908461 -0.6151176 
-0.5467122 -0.7439125 -0.3843176 
0.11066882 -0.7359724 -0.66790503 
-0.5757851 -0.42983404 -0.6954958 
0.0037009069 -0.44771394 -0.8941693 
-0.49691868 -0.2747081 -0.8231691 
-0.90007657 -0.17808269 -0.39767933 
-0.51637626 0.008031522 -0.85632426 
-0.63363546 -0.520382 -0.5724586 
-0.031882286 -0.8769592 -0.47950613 
0.7173901 -0.23290321 -0.6565878 
0.47300693 0.333328 -0.8155715 
0.107963026 0.114326395 -0.9875594 
0.2777499 0.25108212 -0.92726094 
0.099585705 0.39110166 -0.9149438 
-0.11393102 0.0059464555 -0.99347097 
0.4023227 -0.15631452 -0.9020544 
0.8539323 0.36581096 -0.37011084 
0.945655 0.31844774 -0.06578663 
0.5723301 -0.026569193 -0.81959283 
0.44387892 -0.84261066 0.30492422 
0.37062868 -0.7188884 0.58807653 
0.8541461 -0.48658842 -0.18348347 
0.35248643 -0.57787704 -0.7360785 
0.7983128 0.24496329 -0.55017245 
-0.08434142 -0.7736478 -0.62797755 
0.19334695 -0.5382382 -0.82031494 
-0.016989429 -0.98049426 -0.19581246 
0.1995544 -0.56350696 -0.8016471 
0.3641166 -0.69546455 -0.6194742 
0.16469003 -0.33129007 -0.9290447 
-0.17433788 -0.08730548 -0.98080796 
0.15216042 0.22872853 -0.9615251 
-0.15628238 -0.43383828 -0.8873333 
0.19102627 0.25743303 -0.94722605 
-0.5630456 -0.009258604 -0.82637393 
-0.36818734 -0.39845756 -0.8400415 
-0.028019914 -0.4399615 -0.89757943 
-0.05407552 -0.89588606 -0.4409809 
0.33908078 -0.8977686 -0.281133 
0.1241321 -0.99223673 0.0075896364 
0.35790876 -0.7792732 0.5144265 
-0.22115591 -0.9607987 0.16720025 
-0.85805583 -0.5116213 0.044541724 
-0.5282438 -0.33356807 -0.78082705 
-0.3817341 -0.5774053 -0.72172177 
0.20464785 0.030591423 -0.9783575 
0.70699465 -0.07683342 -0.703033 
0.61279273 -0.31731287 -0.72373873 
0.07228389 -0.4656008 -0.88203794 
0.025170995 -0.23297058 -0.97215796 
0.35095996 -0.072002724 -0.9336181 
0.55685276 0.17156638 -0.81269914 
0.4320251 -0.698733 -0.57019866 
-0.111673295 -0.147436 -0.9827471 
-0.15738793 0.42083064 -0.89338166 
-0.4575453 -0.3116396 -0.8327864 
-0.35794866 -0.35082495 -0.86532915 
0.2547645 -0.41701636 -0.87246346 
-0.0019723615 -0.0123640625 -0.9999217 
-0.31031498 -0.55914897 -0.7688023 
-0.3411412 -0.5948058 -0.7278935 
0.25598288 -0.5532902 -0.79268086 
0.43486908 -0.478944 -0.76256263 
-0.44952837 -0.32306984 -0.8327967 
0.45865873 0.2266901 -0.85921127 
0.10535266 -0.30372965 -0.94691557 
-0.22815517 -0.6565717 -0.718929 
0.6703143 -0.60173476 -0.4342743 
-0.0060121953 -0.7034364 -0.7107328 
0.29861295 -0.9081339 -0.29346764 
-0.038429696 -0.3773001 -0.92529345 
0.0021086843 -0.5352609 -0.8446841 
-0.23693755 -0.1727108 -0.95605004 
-0.10229979 -0.62575644 -0.77328116 
-0.13261706 -0.7940897 -0.5931562 
-0.30403134 -0.61776376 -0.72521234 
0.15110938 -0.7800765 -0.6071629 
0.38202503 -0.659094 -0.64780563 
-0.06113382 -0.27277985 -0.96013224 
-0.51147425 -0.53093034 -0.6756531 
-0.5449164 -0.42334843 -0.72376955 
-0.9595087 0.23715152 0.15199448 
-0.8380665 0.27233285 -0.47273603 
-0.42590868 -0.011745624 -0.90469 
0.13313161 -0.26042587 -0.9562711 
0.2995788 -0.5625508 -0.77057713 
0.13734426 0.2560645 -0.956853 
0.466075 -0.04811054 -0.88343614 
0.58124065 -0.27679902 -0.76520693 
-0.5210425 -0.24218458 -0.8184506 
-0.6066573 -0.3169965 -0.72902685 
-0.8544054 -0.50643355 -0.11626044 
-0.5211667 -0.7947575 -0.31103978 
-0.1470088 -0.7016949 -0.6971462 
0.35508886 0.33264738 -0.87364626 
0.506077 -0.11331107 -0.8550128 
-0.33407307 -0.6146252 -0.7145845 
-0.108219415 -0.8163035 -0.5673952 
-0.10282615 -0.32511204 -0.9400686 
-0.33696958 -0.033651114 -0.94091403 
0.4270267 -0.15168741 -0.89142543 
0.75517493 -0.018507311 -0.6552621 
0.52405703 -0.80681187 -0.27279812 
-0.15132098 -0.9371862 -0.3142996 
0.16207857 -0.31112674 -0.9364458 
0.5320222 -0.44185045 -0.7223023 
-0.27595007 -0.83567923 -0.47485983 
-0.014772224 -0.3983044 -0.91713434 
0.74697596 -0.5867226 -0.3127036 
-0.045919422 0.19772793 -0.9791808 
-0.40181854 0.40064758 -0.8234218 
-0.16254616 -0.41087258 -0.8970856 
0.19744599 -0.14487284 -0.9695499 
0.17220126 0.5346804 -0.82732326 
0.2160648 -0.08271071 -0.97286946 
-0.18600757 -0.0030290284 -0.9825437 
-0.11674395 0.18972997 -0.974871 
-0.014141364 0.18252005 -0.98310053 
0.048420027 -0.0742916 -0.9960604 
-0.30791205 0.07286992 -0.9486202 
0.3021396 0.108535334 -0.9470648 
0.15675981 -0.5115546 -0.8448303 
0.7246066 -0.52588975 0.44540462 
0.68562824 -0.2861354 -0.66935825 
0.4283933 0.24901205 -0.8686035 
0.5286974 -0.657595 -0.53670096 
0.8775867 -0.41555685 -0.23906945 
0.46351397 -0.87552315 0.13643347 
0.6069752 -0.68281716 -0.40662247 
0.5768077 -0.42389682 -0.69828683 
-0.41419333 -0.91016084 -0.007157116 
-0.6602241 -0.36750385 -0.6550154 
-0.4540828 -5.777258e-05 -0.8909596 
-0.093113154 0.47180885 -0.8767705 
-0.6373422 0.3643755 -0.6789886 
-0.4198157 0.2816121 -0.8628149 
-0.45220917 -0.5555703 -0.6977453 
-0.20310327 -0.47398916 -0.85678667 
0.09966122 -0.7982896 -0.5939709 
-0.26832992 -0.7479816 -0.6070606 
-0.1600208 -0.24673647 -0.9557795 
-0.13054834 0.33782437 -0.9321115 
0.092020825 -0.2019282 -0.9750678 
-0.015210383 -0.66952425 -0.7426345 
-0.011612391 -0.8770477 -0.4802631 
-0.52752995 -0.8030635 -0.27713028 
-0.9012214 -0.38009092 -0.20816065 
-0.74895895 -0.48490852 -0.45157975 
-0.21352227 -0.26723242 -0.9396782 
0.17356914 -0.87309873 -0.45560122 
-0.85194856 -0.17116864 -0.49485844 
0.30491865 -0.19206002 -0.9328117 
-0.31702694 0.61298275 -0.7237031 
0.10633837 0.8547704 -0.5079957 
-0.11598096 0.31889102 -0.9406684 
0.114443734 -0.22228453 -0.9682419 
0.048435044 -0.4019859 -0.9143639 
0.32408938 -0.8853775 -0.33327574 
-0.12986353 -0.9563404 0.26181796 
0.36228886 -0.22530182 -0.90442574 
0.5399433 -0.5297419 -0.6540909 
0.17216268 -0.4557926 -0.87327725 
-0.2891295 -0.8820378 -0.37203953 
-0.21363534 0.007156393 -0.97688735 
0.47865698 0.43234935 -0.7641738 
0.8389918 0.1047984 -0.533957 
0.6317942 0.26296222 -0.7291687 
0.00510126 -0.09364969 -0.9955922 
0.49891728 0.06022142 -0.8645548 
-0.95667064 -0.010680585 -0.29097638 
-0.47343946 0.010415204 -0.8807649 
0.31490296 -0.91668624 -0.24601363 
-0.31567764 -0.7035875 -0.6366415 
-0.97545296 -0.20022878 0.0916518 
-0.9203352 -0.09580916 -0.3792147 
-0.5625252 -0.4101724 -0.71786076 
0.14049026 0.05929253 -0.9883051 
0.06206609 -0.1733825 -0.9828969 
0.2721718 -0.22990425 -0.9343803 
0.23474523 0.698656 -0.67585087 
-0.9176975 -0.069565274 -0.3911421 
-0.6702402 -0.13752525 -0.7292907 
0.5529572 -0.35782865 -0.7524608 
0.47768748 0.31565028 -0.8198655 
0.48719788 0.44414228 -0.75191474 
-0.19454117 -0.67954385 -0.7073712 
-0.0080752745 -0.33847672 -0.9409402 
-0.5046098 -0.27487716 -0.8184201 
-0.17165923 -0.8522736 -0.49412856 
-0.19701673 -0.2165907 -0.9561762 
-0.6273011 0.35856563 -0.69132054 
-0.22797407 0.12704314 -0.9653435 
0.06443209 -0.20392117 -0.97686476 
-0.15694794 -0.45532367 -0.87638336 
-0.024763407 -0.43784612 -0.8987089 
-0.096671715 -0.21215959 -0.9724418 
0.49454743 -0.16082768 -0.8541413 
-0.3739506 -0.38816932 -0.8423098 
-0.11413558 -0.30582938 -0.94522035 
-0.39306912 -0.2724254 -0.87822604 
0.47994274 -0.37640393 -0.7924488 
-0.5115402 -0.3386814 -0.7896971 
0.74407053 -0.5547578 -0.37229422 
0.44300178 -0.5413186 -0.7146493 
0.17563237 -0.2824197 -0.943076 
0.18904608 -0.2655272 -0.9453872 
0.07606053 -0.33796698 -0.9380795 
0.72528356 -0.014821384 -0.6882907 
0.6502533 -0.7388445 0.1768603 
0.20294903 -0.9791865 -0.0023635898 
0.055011638 -0.99635905 0.065134734 
0.08014227 -0.79462117 -0.60179275 
0.28027347 -0.75129634 -0.5974954 
-0.35553625 -0.93070585 -0.0859105 
-0.33263862 -0.8897443 -0.31258067 
-0.8830642 -0.33881167 0.32466042 
-0.7130315 -0.58811855 -0.38171044 
-0.5259424 -0.3312816 -0.78334993 
0.042152736 0.39583203 -0.91735506 
-0.48507142 -0.694288 -0.5316672 
-0.050908014 -0.46256152 -0.8851245 
-0.18968807 -0.1638602 -0.9680746 
0.72850794 0.07303557 -0.681133 
0.49634975 -0.6082903 -0.61937046 
-0.32722616 -0.3848647 -0.8630192 
-0.23607162 0.09383274 -0.9671948 
-0.11350244 -0.7024131 -0.70266145 
-0.372354 -0.53373975 -0.7592592 
-0.33986962 -0.3470488 -0.8740972 
0.22170152 0.15729918 -0.96234375 
0.31422436 0.35230502 -0.8815579 
0.3646722 0.23745382 -0.90034986 
0.5952428 -0.13186647 -0.7926521 
0.7974821 -0.32285455 -0.5096933 
0.45803562 -0.74275154 -0.48838872 
0.7418973 -0.38222218 -0.5509035 
0.77656496 -0.6200782 0.11157905 
0.868206 -0.12249103 -0.48084754 
-0.0536544 -0.7413609 -0.66895837 
-0.6343645 -0.3031213 -0.7111253 
-0.25637478 -0.56490296 -0.78431916 
0.18845856 -0.619696 -0.7618794 
0.017790912 0.23231179 -0.97247875 
-0.16578236 0.36720505 -0.9152468 
-0.27627188 0.08271347 -0.95751363 
-0.16685918 -0.3286732 -0.92958707 
0.05362895 -0.11578279 -0.9918258 
0.16082117 -0.0912585 -0.9827556 
-0.484861 -0.0761101 -0.8712732 
0.05246769 -0.5808518 -0.8123167 
-0.08604567 -0.9531224 -0.29009315 
-0.18214385 -0.8360282 -0.5175719 
-0.6011655 -0.2795961 -0.7486161 
-0.18453936 -0.67927223 -0.7103059 
-0.54745847 -0.6506956 -0.5261981 
-0.34426516 -0.6342494 -0.6922495 
-0.34101835 0.16134149 -0.9261077 
0.026947195 -0.28276947 -0.9588094 
0.18127652 -0.4195241 -0.88945967 
-0.33587682 -0.36234963 -0.86941916 
-0.25210735 -0.67846096 -0.6900237 
-0.79354775 0.22156131 -0.56673855 
-0.8043217 0.17529647 -0.567748 
-0.13402449 -0.50982445 -0.8497744 
0.04327241 -0.45756197 -0.88812417 
0.7421726 -0.15306644 -0.6524956 
0.49963948 0.30964345 -0.80900025 
0.2225549 0.3752908 -0.8997924 
0.02514169 0.27639192 -0.96071607 
0.34478664 0.40282097 -0.84785473 
0.067617804 0.06885939 -0.99533224 
0.30288827 0.43870735 -0.84604657 
0.8057786 0.3765041 -0.45712742 
0.9733492 -0.1277044 -0.19048059 
0.9884716 0.11877659 -0.09389343 
0.34004432 -0.92171913 0.18655774 
0.20574038 -0.70861393 -0.674935 
0.61154956 -0.7909574 0.01983777 
0.10803062 -0.2549223 -0.96090794 
0.3824849 -0.46525598 -0.7982746 
0.052849904 -0.44365194 -0.89463955 
-0.23916574 -0.65765023 -0.7143501 
-0.39146513 -0.87024003 -0.29906115 
-0.013985738 -0.35981244 -0.9329199 
0.74031556 -0.4102253 -0.53258634 
0.19260673 -0.41501474 -0.8891937 
-0.11263377 -0.3065757 -0.9451588 
0.54422325 -0.014065784 -0.83882254 
0.100016214 0.4792438 -0.8719646 
0.033071104 0.33259726 -0.94248897 
0.2935532 0.2030871 -0.93412113 
0.5292697 -0.55745965 -0.639619 
0.16391242 -0.6422264 -0.7487844 
-0.43860945 -0.5426479 -0.7163484 
0.2972622 -0.83427376 -0.4643518 
0.14733534 -0.9889234 0.017968237 
0.15125686 -0.93029803 -0.33416614 
-0.16765323 -0.9783537 -0.12131204 
-0.6370701 -0.3213233 0.7006377 
-0.49805492 -0.48394683 -0.7195393 
-0.093260705 -0.64022964 -0.76250154 
-0.3923311 -0.62254477 -0.6771369 
-0.12886804 -0.11782145 -0.98463756 
0.37730905 -0.63502157 -0.6740812 
0.09795082 -0.2240466 -0.9696437 
0.7679502 -0.099211276 -0.6327794 
0.43745798 -0.28307626 -0.8535212 
0.490009 -0.6468446 -0.5843657 
0.36746684 -0.32246006 -0.87234604 
0.40055636 -0.46873024 -0.7873034 
0.2615799 -0.3780492 -0.8880624 
0.48950136 0.102446 -0.8659638 
0.39794087 -0.34018028 -0.8520097 
-0.32779455 -0.48496732 -0.8107758 
0.38801926 -0.48761177 -0.78209716 
0.43937564 -0.40591705 -0.80136156 
0.15601234 -0.75299126 -0.63926864 
0.13124754 -0.68714345 -0.71456844 
0.5191007 0.034829717 -0.8540032 
0.7271582 -0.30292684 -0.6160166 
0.7543771 -0.05262836 -0.6543282 
0.8108313 -0.18255478 -0.55608124 
0.4489317 -0.15113772 -0.88069165 
0.4213443 -0.1428459 -0.8955803 
-0.59618926 -0.600449 -0.5329346 
-0.39976436 -0.66730714 -0.6284024 
0.17630012 -0.5481568 -0.8175833 
-0.8427697 -0.46579447 -0.2697682 
-0.6627105 0.019392436 -0.7486246 
-0.31508037 0.032547466 -0.94850683 
0.009160277 -0.7384444 -0.67425215 
-0.15227146 -0.5541005 -0.8184046 
-0.89799774 -0.37236726 0.23439889 
-0.37769935 -0.0157321 -0.9257947 
-0.3267203 -0.17067686 -0.92958236 
-0.4003457 0.07074928 -0.91362894 
-0.29894418 0.16795292 -0.9393744 
-0.64604545 -0.34654137 -0.68009883 
-0.38737273 -0.009571897 -0.92187357 
0.070657276 0.4514695 -0.88948464 
-0.42206943 0.55825025 -0.71429276 
-0.59296376 -0.26245642 -0.7612559 
0.1176016 0.07220117 -0.9904327 
0.50290287 -0.451506 -0.7370421 
0.37102425 -0.85159296 -0.3703113 
-0.9829314 0.14849736 0.10860269 
-0.8902799 -0.22811355 -0.39416507 
-0.48412797 -0.33409178 -0.8087044 
-0.40175113 -0.48133686 -0.779045 
0.5146899 -0.36126077 -0.7775507 
0.49566254 -0.25349092 -0.8306992 
-0.33390865 -0.44491827 -0.8309951 
-0.12596664 -0.6427224 -0.75567216 
0.061871063 -0.40785176 -0.9109494 
0.3733825 0.008296522 -0.9276404 
-0.33342025 -0.5322085 -0.7781935 
-0.39410976 -0.23087534 -0.8895921 
-0.47100788 0.6584083 -0.58706915 
0.306582 -0.48486137 -0.8190952 
-0.088804744 -0.4615659 -0.8826498 
0.50802994 -0.6070598 -0.6110517 
0.4457769 -0.75503874 -0.48083204 
-0.30434275 -0.9403687 -0.15192878 
-0.46222907 -0.4897534 -0.73924685 
-0.05663147 -0.5788955 -0.8134328 
0.10536692 0.35262987 -0.9298118 
-0.36125416 0.42438635 -0.83029616 
-0.012677639 -0.32630482 -0.94517964 
0.29281905 0.38623244 -0.8746894 
-0.5565673 0.52358335 -0.64505297 
-0.83844274 0.5449647 -0.00524413 
-0.870103 0.017114442 -0.49257287 
-0.20777097 0.44387424 -0.8716691 
-0.14011295 0.33054775 -0.93333095 
0.43598706 0.15240091 -0.88695514 
0.033062574 -0.25001505 -0.9676773 
0.48073113 0.046760853 -0.8756205 
0.3497932 -0.03706665 -0.93609345 
0.11912632 -0.30543232 -0.94473284 
0.4066923 0.37180236 -0.8344845 
0.6819975 -0.20146602 -0.70305824 
0.6539322 -0.3455772 -0.67301494 
0.111458905 -0.1286452 -0.98540723 
0.5123876 -0.45695132 -0.7270863 
0.34977168 -0.8025896 -0.48322845 
-0.3524833 -0.9286214 -0.115836 
-0.6390573 -0.6593806 -0.39600888 
-0.6796368 -0.17490567 -0.71239173 
-0.4419333 -0.047406394 -0.89579445 
-0.5597729 -0.24805167 -0.7906483 
-0.46116948 0.38214672 -0.80080384 
0.22436671 -0.29686594 -0.9281866 
-0.38114995 -0.27665433 -0.88214916 
0.02855 -0.50492615 -0.8626904 
0.6156982 -0.425522 -0.66320944 
0.5144397 -0.5437088 -0.66312337 
0.011438146 -0.56905645 -0.8222189 
0.17736983 0.093361385 -0.9797059 
-0.58908063 -0.26365507 -0.7638521 
-0.14010224 -0.84923184 -0.50909394 
-0.016037097 -0.44617158 -0.89480376 
0.6080972 -0.43861237 -0.66169256 
0.28743675 -0.83890873 -0.46218222 
-0.8243724 -0.53260034 -0.19169539 
-0.39188668 -0.49376562 -0.77628624 
-0.16584545 -0.5535408 -0.81614214 
-0.7292766 -0.59882706 -0.33100134 
-0.014955968 -0.5427965 -0.8397311 
-0.2967796 0.15810257 -0.9417672 
0.5582885 0.63226885 -0.53716874 
-0.32218984 0.5682036 -0.7571911 
-0.26914927 0.015535392 -0.9629732 
-0.17020798 -0.85692924 -0.48651987 
-0.39742333 -0.8698731 -0.292191 
-0.030202296 -0.889645 -0.45565307 
-0.12154629 -0.580086 -0.8054359 
0.21397445 -0.66123164 -0.7190186 
0.1783832 -0.70231694 -0.689152 
0.4503633 -0.16989315 -0.8765325 
0.32015783 0.1821811 -0.92968225 
0.28961954 0.42551115 -0.85735697 
0.82526636 -0.4082462 -0.3902187 
0.5848028 -0.7170835 -0.3792057 
0.7157455 -0.6157643 -0.32945833 
0.8921033 0.051085677 -0.44893423 
-0.04151043 0.04901561 -0.9979351 
-0.24373081 0.31935787 -0.9157543 
-0.058900993 -0.60997367 -0.7902297 
-0.042760007 -0.3148022 -0.94819367 
-0.06919388 -0.17877546 -0.98145384 
-0.32762772 -0.20559733 -0.9221659 
-0.27493724 -0.13338777 -0.95216453 
0.85428756 0.033012465 -0.51875144 
0.0953428 -0.78460795 -0.61261743 
-0.5642655 -0.62592393 -0.5383528 
0.10015987 0.32726246 -0.9396102 
-0.59220845 0.11575946 -0.79742646 
-0.23651299 0.4982683 -0.8341405 
0.24404207 0.6399074 -0.72867143 
0.26763833 0.4507405 -0.8515884 
0.034354024 0.1121687 -0.99309516 
0.3155071 -0.22777931 -0.9211797 
0.02590713 -0.48193786 -0.8758224 
0.41492403 0.09357649 -0.9050312 
-0.20024955 -0.73867923 -0.643625 
-0.23112485 -0.053920683 -0.9714288 
0.381166 -0.021505054 -0.9242565 
0.27473673 0.25363111 -0.92746484 
0.29003614 -0.12308003 -0.9490682 
0.16557142 -0.14322639 -0.9757419 
-0.3496429 0.12425084 -0.9286074 
-0.26274133 0.45982188 -0.8482516 
-0.101959325 0.58523405 -0.80442876 
0.342037 -0.20565219 -0.9169068 
0.33052096 -0.34381288 -0.87894744 
-0.07788031 -0.42610207 -0.9013167 
0.14258939 0.012952567 -0.9896973 
-0.1377432 0.18384479 -0.97325635 
-0.14899169 -0.24401386 -0.9582582 
-0.3563297 0.22291458 -0.90738 
-0.074013494 -0.416632 -0.90605724 
0.5401548 0.1748409 -0.82320327 
0.37972945 -0.34569016 -0.85808164 
0.90660954 0.35755116 -0.22409007 
0.45950067 -0.37568316 -0.8048114 
0.4398229 -0.64091593 -0.6291126 
0.28920484 -0.57883066 -0.7624407 
0.20748849 -0.92455465 -0.31960475 
-0.0067860913 -0.86925435 -0.49431854 
0.08752605 -0.9961317 0.0077959974 
0.0371057 -0.9991806 0.016165076 
-0.62097216 -0.6926565 -0.3669069 
-0.67404056 -0.6384081 -0.37162405 
-0.023007717 -0.23907995 -0.97072726 
0.1120446 0.22768982 -0.96726596 
0.20589241 0.51799107 -0.83023715 
0.57398653 0.06434866 -0.8163326 
-0.18671906 0.07452043 -0.97958297 
0.6248829 -0.40098777 -0.6698733 
0.09856934 -0.74315596 -0.66181827 
-0.50893277 -0.73695046 -0.44485003 
-0.26799637 -0.21969955 -0.9380353 
-0.078111954 -0.5210385 -0.84995145 
0.58724326 -0.5647755 -0.57980514 
-0.24225862 -0.63730997 -0.7315373 
-0.18668748 -0.19083567 -0.96370614 
0.24132417 -0.75793016 -0.6060566 
0.043333866 -0.4068382 -0.9124719 
0.5571139 -0.21939997 -0.8009293 
-0.00844949 -0.4474773 -0.89425546 
0.57142967 -0.47704253 -0.66775644 
0.3832627 0.50318074 -0.7745443 
0.7341226 -0.39610717 -0.55151 
-0.026296716 -0.016065853 -0.9995251 
-0.28580803 -0.35776994 -0.8889964 