# OOMMF: rectangular mesh v1.0
# Segment count: 1
# Begin: Segment
# Begin: Header
# Desc: Time (s) :  7.720000000000019e-07
# Title: m
# meshtype: rectangular
# meshunit: m
# xbase: 2e-09
# ybase: 2e-09
# zbase: 5e-10
# xstepsize: 4e-09
# ystepsize: 4e-09
# zstepsize: 1e-09
# xmin: 0
# ymin: 0
# zmin: 0
# xmax: 1.024e-06
# ymax: 1.024e-06
# zmax: 1e-09
# xnodes: 256
# ynodes: 256
# znodes: 1
# ValueRangeMinMag: 1e-08
# ValueRangeMaxMag: 1
# valueunit: 
# valuemultiplier: 1
# End: Header
# Begin: Data Text
-0.39469755 -0.17389978 -0.90220445 
-0.15730973 -0.39365876 -0.90569675 
0.19280867 -0.7610854 -0.6193334 
-0.032213572 -0.68324286 -0.72948027 
0.28517404 -0.91630167 -0.28118888 
0.48765206 -0.7353542 -0.47058445 
0.07531625 -0.8134773 -0.5766995 
-0.77654505 -0.48992804 -0.39616713 
-0.37968662 -0.065991476 -0.92275846 
0.32041508 -0.52678514 -0.78729385 
-0.17171411 -0.9601175 -0.22065476 
0.5914069 -0.7582743 -0.2743318 
0.40585566 -0.33643496 -0.8497604 
-0.43752083 -0.7013552 -0.56274015 
-0.74854374 0.16691183 -0.64173424 
-0.14876701 -0.72415066 -0.67340505 
-0.36007518 -0.7843944 -0.50504595 
-0.28864154 -0.49900228 -0.8171186 
0.41023704 -0.5678885 -0.71358836 
0.8714688 0.037915226 -0.4889833 
0.7518601 -0.5778051 -0.31756514 
0.7370103 0.09043724 -0.66980374 
0.29026043 -0.28925306 -0.91218513 
0.63172424 -0.68867314 -0.3558846 
0.8397833 -0.13159898 -0.5267312 
0.4180573 -0.74039793 -0.52634513 
-0.6818184 -0.7266476 -0.084303424 
-0.83266133 -0.46796817 0.2961098 
-0.92824346 -0.24251391 0.28204808 
-0.98530155 0.06986111 -0.15588605 
-0.7699565 -0.3483291 -0.53463423 
-0.5988535 -0.115821116 -0.7924392 
0.34392226 -0.62008995 -0.7051284 
-0.18945247 -0.4738024 -0.86001116 
-0.04987588 0.583599 -0.810509 
-0.19103043 0.10628543 -0.97581285 
0.050069086 0.37680498 -0.9249385 
0.14316183 -0.44494113 -0.8840431 
-0.24526449 -0.40954652 -0.8787019 
0.12547576 -0.23683186 -0.963414 
0.24676627 -0.07561458 -0.96612054 
0.7107546 -0.41090715 -0.57094944 
0.89201814 -0.35780716 -0.27618426 
0.22087988 -0.56688 -0.7936366 
0.31848356 0.0010300885 -0.9479279 
0.3548691 -0.48435503 -0.79966754 
-0.4843477 -0.7385405 -0.4690047 
0.24758331 -0.40105507 -0.8819622 
-0.2715296 -0.55727136 -0.7846786 
-0.2621413 -0.41828775 -0.869665 
-0.25769138 -0.61598027 -0.7444216 
0.105159335 -0.6604442 -0.74347496 
-0.3873429 -0.5240637 -0.75850046 
0.043147005 -0.26380602 -0.9636103 
0.51812726 -0.4439904 -0.73103815 
-0.2068727 -0.771563 -0.6015766 
0.52872086 -0.63558966 -0.5625657 
0.21999423 -0.60050154 -0.7687655 
0.980927 -0.19392993 -0.0131689925 
0.70044917 -0.6932798 0.16951169 
-0.44675425 -0.7690137 -0.45719647 
0.06388213 -0.9056162 -0.41925925 
-0.17130664 -0.32723436 -0.9292856 
-0.42950132 -0.48616025 -0.7610367 
-0.1827957 -0.954105 -0.23721164 
0.1960167 -0.9621483 0.18933637 
-0.7662824 -0.4963924 -0.407929 
-0.3804389 -0.9090322 -0.17007877 
0.1274568 -0.6010624 -0.7889732 
-0.32949013 -0.54513276 -0.77088696 
0.57992834 -0.084992684 -0.8102218 
-0.23061334 -0.14265287 -0.9625319 
0.4031317 0.06308149 -0.9129653 
0.71794087 0.2498666 -0.6497135 
0.7123144 0.37337503 -0.5943058 
0.046924897 0.49904668 -0.86530364 
0.2907211 -0.3336333 -0.89675534 
0.11429681 -0.75503284 -0.6456483 
0.1900763 0.5443729 -0.81702465 
-0.20987752 0.43617544 -0.8750442 
-0.04778014 0.14677885 -0.9880147 
-0.1905543 -0.62885517 -0.7538105 
0.30012622 -0.8558994 -0.42114192 
-0.2874537 -0.7821416 -0.5528336 
0.38132325 -0.677212 -0.6292666 
0.17505944 -0.6357912 -0.7517472 
0.10342095 -0.99237573 -0.06704234 
0.3841262 -0.8505926 0.35908124 
-0.34424162 -0.9369546 -0.060115602 
0.1485941 -0.37304783 -0.91583574 
-0.24912253 -0.29134417 -0.9236106 
-0.9001689 -0.08450444 -0.4272645 
-0.7399967 -0.062282767 -0.66972077 
-0.7941129 0.0650367 -0.6042806 
-0.5631418 0.19353175 -0.80337834 
-0.21340573 -0.14275123 -0.9664782 
0.16682616 -0.97307307 0.15905313 
-0.7634436 -0.64388716 0.050628435 
0.08447424 -0.72567064 -0.6828369 
0.24418265 -0.8957385 -0.37152043 
0.29177886 -0.55094105 -0.78187543 
0.3858612 -0.48604742 -0.7841358 
0.5813321 -0.6119254 -0.5362838 
0.32150152 -0.79286903 -0.5176828 
0.58926404 0.04981773 -0.80640316 
0.5046746 -0.70773685 -0.49438053 
-0.021124922 -0.99505734 -0.09702902 
-0.47445548 -0.805301 0.3555029 
-0.19556688 -0.57108796 -0.797253 
0.18060888 0.07422499 -0.9807503 
-0.4767572 -0.54859346 -0.686839 
-0.41403443 -0.35626957 -0.837644 
0.29216152 -0.52234876 -0.8011202 
-0.074859485 -0.24290991 -0.9671561 
-0.48264435 0.45741558 -0.74687713 
0.569009 -0.27243876 -0.7758904 
0.36103544 0.5728896 -0.7358335 
0.5898212 0.7052655 -0.39333385 
0.1427775 -0.7655322 -0.62735564 
-0.123526916 -0.7823531 0.6104628 
-0.40125257 -0.8702108 0.2858837 
-0.47396097 -0.8434293 0.2529584 
-0.9694636 -0.22062396 0.107077 
-0.65788114 -0.51947045 -0.54529154 
-0.30701482 -0.6615143 -0.68420815 
-0.6410662 -0.76650333 0.038818855 
-0.35813048 -0.78654194 -0.5030848 
-0.8617314 -0.15715091 -0.4824133 
-0.76086855 0.42521328 -0.49017626 
-0.5663094 -0.4260523 -0.70553046 
-0.82739615 -0.55372405 0.09383708 
-0.7550511 -0.59803486 -0.26879773 
-0.8968088 -0.44239184 0.0048536975 
-0.50108826 -0.44766507 -0.74061227 
0.101956226 -0.2884773 -0.95204294 
0.35735425 -0.78844386 -0.5006538 
0.53795874 -0.32201082 -0.779044 
0.25795764 -0.21336204 -0.9423029 
-0.20143229 -0.19477421 -0.9599417 
-0.089129545 -0.2802725 -0.95577365 
-0.60811645 -0.6198752 -0.49593255 
-0.2131375 -0.9723078 -0.09586508 
-0.23596852 0.3600336 -0.90260434 
-0.2252221 -0.27847394 -0.93366337 
0.17184432 -0.38989985 -0.9046811 
0.7174651 -0.39967394 -0.57053006 
0.71493226 -0.68191844 -0.15446392 
-0.44537354 -0.87766767 0.17703614 
-0.13585113 -0.9824723 -0.1276428 
-0.7080916 0.08373291 -0.7011385 
-0.38326725 -0.8153619 -0.43392515 
-0.69660854 -0.60149246 -0.3910799 
-0.47172022 0.21270803 -0.85570765 
-0.525139 -0.1780193 -0.8321889 
-0.54735726 0.18688446 -0.81576604 
-0.20264377 -0.12488186 -0.971257 
-0.10570383 0.06566102 -0.99222755 
-0.7113176 -0.6078343 -0.3529374 
-0.4790058 -0.35190102 -0.8041885 
-0.4526716 -0.5732245 -0.6830096 
-0.16097383 -0.08106961 -0.9836235 
0.6329813 0.1013641 -0.7675024 
-0.0529606 -0.30664828 -0.95034844 
-0.078828804 -0.39036748 -0.91727823 
-0.2778418 -0.9246008 -0.26060972 
-0.03831625 -0.9458979 -0.3221942 
-0.24205966 -0.5853704 -0.77378845 
-0.43363872 -0.6010279 -0.67135906 
-0.03520084 -0.951034 -0.30707514 
0.60195637 -0.6102576 -0.515009 
0.78429556 -0.5660492 -0.25390717 
0.37541884 -0.7426182 -0.5545981 
0.18762974 -0.8724479 -0.4512536 
0.063631944 -0.65419334 -0.7536458 
0.2909187 -0.7018702 -0.6501881 
-0.074487336 -0.89002985 -0.449776 
-0.4421928 -0.87516415 0.19635 
-0.5825959 -0.7343223 -0.34835753 
-0.04117598 -0.3261894 -0.9444073 
-0.35189494 -0.7342292 -0.5805838 
-0.57460266 -0.37010494 -0.72996867 
-0.642128 0.2888644 -0.7100909 
-0.3260909 0.6201216 -0.71352226 
0.2773424 0.305834 -0.9107946 
0.93312013 -0.228953 -0.27724952 
0.415785 -0.5415359 -0.7306584 
0.49286476 -0.52754533 -0.69193953 
0.17655921 0.09950394 -0.97924757 
0.73827434 0.11770527 -0.664151 
0.3580858 -0.36280364 -0.86031866 
0.5386433 0.07368342 -0.83930576 
-0.22306468 0.028437963 -0.9743887 
0.40070367 -0.12399193 -0.90777904 
0.6315277 0.041540004 -0.77423984 
0.6219552 -0.6068348 -0.49489722 
0.13594066 -0.8265265 -0.5462363 
0.28493452 -0.30502272 -0.9087208 
0.119636275 -0.28943545 -0.9496918 
0.29005778 -0.03967542 -0.9561864 
0.42104366 -0.38620606 -0.82071143 
0.9163134 -0.36922693 -0.15505277 
0.17112789 -0.4202434 -0.89112896 
0.9160503 -0.3529777 -0.19041707 
0.55762464 -0.5262247 -0.6419833 
-0.19491789 -0.9163513 -0.34972465 
0.49315712 -0.8574326 -0.14698789 
0.062190857 -0.9732968 0.22096567 
0.060175426 -0.8862083 0.4593625 
-0.6865498 -0.551723 -0.4735517 
-0.5034084 -0.848446 -0.1634605 
0.3673505 0.30387864 -0.8790401 
0.37827858 0.67711735 -0.6312032 
-0.02623808 -0.26024106 -0.96518713 
0.6298208 -0.58570266 -0.5101747 
0.90257585 -0.42922145 -0.033555303 
0.31367886 -0.17440557 -0.93337476 
-0.4569575 -0.117736764 -0.88166213 
-0.11271389 0.18141164 -0.97692657 
-0.80441403 0.17885955 -0.5665045 
-0.85738224 -0.04957041 -0.5122875 
-0.7197235 0.41522166 -0.55640733 
-0.6001427 0.42185354 -0.67960894 
-0.6767225 0.29486546 -0.6746118 
0.5392549 0.47892243 -0.692703 
0.4383426 -0.21931957 -0.8716391 
0.2380175 -0.6626732 -0.7100789 
0.21722011 -0.11052389 -0.96984535 
0.5711719 0.41097382 -0.7105373 
-0.17131145 -0.7125619 -0.6803735 
-0.33793595 -0.22709559 -0.9133603 
0.1735398 -0.4136763 -0.8937314 
-0.12177339 -0.081532545 -0.9892036 
0.26607367 -0.71016043 -0.65182596 
-0.4773338 -0.8503017 0.22167432 
-0.47918352 -0.37441492 -0.79384923 
-0.23974259 -0.27910975 -0.9298502 
-0.07390916 -0.5981278 -0.79798543 
0.57247293 -0.32124925 -0.75436974 
0.3345791 -0.60474646 -0.72273 
-0.023355968 -0.38102853 -0.92426825 
-0.26850557 -0.032243043 -0.9627384 
0.049076345 -0.24642032 -0.9679197 
-0.60164756 0.21830481 -0.768351 
-0.45538935 -0.41157752 -0.7894457 
0.060413014 -0.4533168 -0.88929987 
0.25957945 -0.7639127 -0.5908096 
0.042871717 -0.5969256 -0.80115026 
0.3924202 -0.7563876 -0.52333945 
0.3823743 -0.68489426 -0.62024975 
0.18675697 -0.49960932 -0.8458797 
0.9962927 0.0111640785 -0.08530138 
0.5881019 -0.5991706 -0.5432594 
0.03254025 0.17426285 -0.98416144 
-0.3576181 -0.7477236 -0.5594808 
-0.17546178 -0.56626827 -0.80532825 
-0.18113734 -0.9448077 0.27299786 
-0.4645296 -0.084595 -0.8815078 
-0.40462628 -0.29790193 -0.8645993 
-0.08846062 -0.4662962 -0.8801947 
0.6922278 0.03143814 -0.720994 
0.23000538 -0.64344496 -0.7301206 
0.8234857 0.103420496 -0.55783117 
0.16296774 -0.3661724 -0.9161656 
-0.61923647 0.04993868 -0.783615 
-0.2155603 -0.6350117 -0.7418181 
-0.04195608 -0.33971095 -0.9395937 
0.7178078 -0.45043492 -0.5309052 
0.6350933 -0.30962685 -0.7076637 
-0.1484346 -0.84807545 -0.50866044 
-0.1671375 -0.45776165 -0.8732236 
0.6023971 -0.07580328 -0.79458904 
-0.27137506 -0.77595186 -0.5694334 
0.15257844 -0.56533355 -0.81062806 
-0.24923643 0.06913432 -0.96597195 
0.043442227 -0.6511966 -0.75766474 
0.7152979 -0.57705295 -0.39415595 
0.8639556 -0.23181365 -0.4470384 
0.37302 -0.8322037 -0.4102357 
0.1587549 -0.7096208 -0.68646586 
0.37400475 -0.7811388 -0.4999429 
0.38863832 -0.91797507 -0.079259425 
0.632836 -0.72401196 0.27445495 
-0.14129697 -0.9869155 -0.07767229 
-0.50535005 -0.7655036 0.39827842 
-0.39876825 -0.44695953 0.8007566 
-0.8471236 -0.03165389 -0.53045243 
-0.16161078 -0.05838234 -0.98512614 
-0.11106069 -0.50604874 -0.8553246 
0.29686233 0.053666737 -0.9534111 
-0.18540826 0.19518654 -0.9630816 
-0.119654514 0.6685762 -0.73395425 
0.08953262 -0.018405741 -0.9958138 
-0.37269786 0.2634681 -0.88976455 
0.22143905 0.3230037 -0.92012686 
0.046001196 0.60114074 -0.7978182 
0.08947207 -0.44868532 -0.8891998 
0.65045506 -0.5513624 -0.52240574 
0.6463039 0.21681713 -0.73162943 
0.93858755 0.19214442 -0.28659055 
-0.065938696 0.5006226 -0.8631508 
-0.102807656 -0.07178638 -0.99210757 
-0.46725038 -0.31938192 -0.8244225 
0.5615316 -0.038575824 -0.8265557 
-0.64368373 0.1144809 -0.7566805 
-0.19717486 -0.28241584 -0.9388096 
-0.071641706 -0.6379367 -0.76674914 
-0.052164868 -0.35844916 -0.93209076 
-0.024185438 -0.71180123 -0.70196444 
0.5823381 -0.48480985 -0.6525656 
0.45090407 -0.49050596 -0.74571407 
-0.050417237 -0.8223791 -0.56670165 
0.01857509 -0.6932508 -0.7204571 
-0.11089186 -0.9344271 -0.3384511 
0.07368179 -0.8294569 -0.55368954 
0.4077185 -0.40195942 -0.8198746 
0.45530567 -0.387958 -0.8013648 
0.5571767 -0.66251284 -0.5006306 
0.07373167 -0.9530455 -0.29371426 
-0.5077394 -0.6492688 -0.56626034 
-0.2599726 -0.41850615 -0.8702109 
0.546895 -0.4177364 -0.7255358 
0.065595604 -0.9917018 -0.11056656 
-0.42810896 -0.63662905 -0.64142513 
-0.46678725 -0.78554 -0.406247 
-0.47328788 -0.24067539 -0.84739256 
-0.14689614 -0.39771816 -0.9056721 
0.056261275 -0.20806246 -0.97649616 
0.26161668 -0.008846992 -0.9651314 
-0.3433341 -0.007933028 -0.93917984 
-0.12003478 0.24560176 -0.96191037 
0.09484698 0.21914025 -0.97107244 
-0.3642834 0.1043901 -0.925419 
0.5927867 -0.37010142 -0.71528244 
0.019565145 -0.30883005 -0.950916 
0.39636886 -0.037326362 -0.9173323 
0.12732843 0.34822813 -0.92872214 
0.016452612 -0.10581995 -0.9942492 
0.62720925 -0.23753405 -0.7417454 
0.11985393 0.17891945 -0.9765362 
-0.8920772 0.068591565 -0.44664705 
-0.27258185 0.3206349 -0.9071342 
-0.09710173 -0.2114869 -0.9725455 
-0.07952455 -0.8684876 -0.48929057 
-0.47726962 -0.61351854 -0.62913334 
-0.24501012 -0.40857142 -0.8792267 
0.2796949 -0.38353944 -0.8801525 
0.1801857 0.14285827 -0.97320336 
0.40215313 -0.6289564 -0.66534716 
-0.76725554 -0.013237852 -0.64120495 
-0.33609828 0.36932218 -0.8663943 
-0.29125196 0.16727838 -0.94190776 
0.26345518 -0.4637568 -0.84588474 
0.5797077 -0.7567676 -0.30206284 
-0.14881665 -0.98872936 0.016369464 
0.06841701 -0.2500019 -0.9658252 
0.08742914 -0.7329756 -0.67461324 
0.12209597 0.19639722 -0.972893 
0.37220177 -0.15415023 -0.91526145 
-0.1847528 -0.42583716 -0.88573647 
-0.1244512 -0.6261397 -0.76971483 
-0.111687094 -0.22978698 -0.9668113 
-0.55886966 -0.31037074 -0.76898295 
-0.40892288 -0.7300186 -0.54759026 
-0.1737444 -0.7378156 -0.65225846 
-0.23965444 0.08301608 -0.9673025 
-0.057906296 0.499543 -0.8643516 
-0.0925943 -0.3993219 -0.9121231 
-0.4272457 -0.18979469 -0.8839905 
-0.35861844 0.13489127 -0.92368674 
-0.3314507 -0.44428983 -0.8323144 
-0.17966375 -0.37578216 -0.90912527 
-0.3159886 -0.45364845 -0.8332794 
-0.68066794 0.6490294 -0.33978233 
0.18610144 0.82008153 -0.5411402 
-0.017307589 -0.42255422 -0.9061724 
-0.8805417 -0.41107875 0.23592535 
-0.99651474 0.039057408 0.073708504 
-0.7914985 -0.19331339 -0.57979316 
-0.90025115 -0.14725636 -0.40971145 
-0.6936785 -0.197223 -0.6927578 
-0.4110449 -0.43002686 -0.8038153 
-0.5911379 -0.7780914 -0.21243834 
-0.8865952 -0.063112244 -0.45822033 
-0.8447006 -0.48619765 0.22381422 
-0.9551968 -0.17578031 -0.23811865 
-0.55773824 0.43328914 -0.70794684 
-0.80291826 -0.36256346 -0.4731492 
0.12418366 -0.9573224 -0.2609834 
-0.91039526 0.08515608 -0.40488136 
-0.6176906 0.20500551 -0.75923055 
0.09732713 -0.1587063 -0.98251706 
-0.4219336 -0.49578148 -0.75906056 
0.06355087 -0.50025755 -0.8635414 
-0.13329981 -0.3077167 -0.94209427 
-0.122561455 -0.34140733 -0.9318905 
0.031738028 0.050648212 -0.9982122 
0.50040185 -0.16514812 -0.8498966 
0.2887192 -0.18050826 -0.94024366 
0.4477769 0.13247748 -0.884277 
0.19944844 -0.21067306 -0.9569938 
-0.031967264 -0.07883254 -0.9963752 
0.4049165 -0.36393493 -0.8388052 
0.34290496 -0.5327939 -0.7736582 
-0.45018485 -0.73160815 -0.5119405 
-0.107798435 -0.45900008 -0.8818721 
0.29418135 -0.31213132 -0.9033445 
0.29747465 -0.52825946 -0.7952677 
-0.08374283 -0.20631012 -0.97489655 
-0.45310485 0.42742255 -0.78230804 
-0.8936518 0.4034189 -0.19657016 
-0.565309 -0.057385545 -0.8228807 
-0.31664228 -0.48128262 -0.8173767 
0.16440159 -0.74277574 -0.6490426 
-0.6165365 -0.4622309 -0.6373582 
0.09238881 -0.6271877 -0.77336925 
-0.012935202 -0.36050233 -0.9326686 
0.0070836004 -0.27576151 -0.9612 
0.09353596 0.06451134 -0.9935238 
-0.35945776 -0.5111648 -0.7807052 
-0.052812345 0.2711688 -0.96108186 
-0.10661355 -0.25366485 -0.9613989 
0.053876437 -0.55774266 -0.8282636 
0.4643692 -0.16099998 -0.87088484 
0.1894949 -0.13775265 -0.9721707 
0.10744734 -0.5986255 -0.7937901 
0.45068586 0.075984076 -0.8894429 
0.6205092 -0.112944566 -0.77602315 
0.43666053 -0.7477213 -0.5002404 
0.6172171 -0.71370393 -0.33116442 
-0.07686689 -0.66363907 -0.7440932 
-0.08408484 -0.80599874 -0.5859145 
-0.21078962 -0.57472616 -0.7907323 
-0.28412625 -0.8982604 -0.33526197 
0.18212773 -0.97649807 0.11524372 
-0.48689592 -0.8417462 -0.23322895 
-0.77876896 -0.2207388 -0.5871912 
-0.31990832 -0.28418264 -0.9038246 
-0.3637171 -0.120022126 -0.9237449 
-0.2124777 0.06374504 -0.9750846 
0.31880993 0.19439976 -0.9276686 
0.3928121 -0.7410655 -0.544537 
0.42011288 0.021453988 -0.90721834 
-0.053661313 -0.94761497 -0.31487516 
0.06961479 -0.61128175 -0.78834546 
0.031133376 -0.5977258 -0.80109596 
-0.5676895 -0.46315008 -0.68060315 
0.6889083 -0.2161354 -0.6918749 
-0.053253584 0.18870422 -0.9805891 
-0.23070574 0.7553148 -0.6134121 
-0.029490432 -0.37739986 -0.9255807 
0.5800548 -0.43282217 -0.6900735 
0.22084841 -0.79299176 -0.5677941 
-0.0805955 0.21898429 -0.97239405 
0.15161206 -0.067372486 -0.9861414 
0.1859244 0.70632035 -0.68304 
-0.23184037 -0.6983393 -0.6771797 
-0.5040602 -0.46082357 -0.73045534 
-0.46651107 -0.31134218 -0.8279092 
0.06545174 -0.02052685 -0.9976446 
0.7387109 -0.38145584 -0.5556958 
0.5192713 -0.67555386 -0.52343506 
0.15191449 -0.7366455 -0.65899575 
0.46745285 -0.85142666 -0.237825 
0.2643741 -0.6870783 -0.676779 
0.28218052 -0.47664744 -0.83257514 
0.20378315 -0.83040065 -0.51856273 
0.24990173 0.041160412 -0.96739596 
0.64452523 0.30385792 -0.7016108 
-0.4037032 -0.39252162 -0.82640827 
0.7324997 -0.52468866 -0.43375805 
0.41141316 -0.42274648 -0.8074805 
0.18144576 -0.21102287 -0.9604931 
-0.6455559 -0.73729354 -0.19913791 
-0.8127952 -0.031824548 -0.5816797 
-0.82098746 0.3451485 -0.4548099 
-0.51688135 -0.34987476 -0.78129464 
-0.3647147 -0.16660653 -0.9160925 
0.24706662 0.16959827 -0.95404124 
-0.049170323 0.3846986 -0.9217317 
0.31873685 0.027160749 -0.94745404 
0.46359894 -0.070323564 -0.88325006 
0.5034778 -0.05147933 -0.86247325 
0.5930271 -0.53593314 -0.60091144 
-0.31747314 0.13401775 -0.93874925 
0.30029124 0.30460823 -0.9039021 
-0.5399283 0.80059683 -0.25985065 
-0.4595907 -0.50435907 -0.7310256 
-0.47898558 -0.6426231 -0.5980037 
-0.33249676 -0.88009447 -0.33893907 
-0.40032524 -0.8637765 -0.30599004 
-0.021318963 -0.628665 -0.777384 
-0.47646338 0.34824118 -0.807286 
0.15948577 0.09646541 -0.9824759 
0.101256326 -0.4440268 -0.89027387 
0.30824497 -0.7429212 -0.5941828 
0.47340268 -0.8103761 -0.34522545 
0.71754175 -0.13919474 -0.68246514 
0.36181024 0.022653162 -0.93197656 
0.10631558 -0.21048692 -0.97179854 
0.33380887 -0.067470595 -0.9402231 
0.6308942 0.08116405 -0.7716119 
0.17495897 0.0016999253 -0.98457426 
-0.13808693 -0.4776579 -0.8676261 
0.2844766 -0.5238905 -0.8028773 
0.46975306 -0.67295986 -0.5713643 
0.19311121 -0.16002941 -0.9680386 
0.28073546 -0.30677557 -0.9094375 
0.58822525 -0.6719578 -0.4499598 
-0.289565 -0.46649984 -0.83578104 
-0.07488704 -0.6276482 -0.77488697 
-0.089980714 -0.7642048 -0.6386662 
-0.36804405 -0.90722996 -0.20366038 
-0.43756503 -0.82045305 -0.36795875 
-0.25314248 0.47189644 -0.844531 
0.18462577 0.16579528 -0.96872354 
0.15420322 -0.51189345 -0.84509563 
0.3891034 -0.69822675 -0.60089767 
0.4170516 0.11849896 -0.90112484 
0.6167981 -0.19383372 -0.76288176 
0.33331198 0.16027223 -0.92909425 
0.23083122 0.23496248 -0.9441979 
0.6164574 -0.3536935 -0.70347804 
0.16931601 -0.57429427 -0.8009484 
0.8175223 0.054110646 -0.57334936 
-0.13888381 -0.7113645 -0.68896437 
0.35143214 -0.6776416 -0.6459856 
0.33737496 -0.51610136 -0.78728503 
0.063927606 -0.67873687 -0.7315939 
0.63673604 -0.6671639 -0.38660014 
-0.21968447 -0.34433475 -0.9127827 
-0.34089375 0.10873468 -0.9337925 
0.21819435 -0.43866053 -0.8717616 
0.24361438 -0.056291446 -0.9682373 
0.46483532 -0.8696053 -0.16647723 
-0.2444036 -0.7577196 -0.6050852 
-0.012849652 -0.3705307 -0.92873144 
0.46985912 -0.39282477 -0.7905195 
0.19731072 -0.95197964 -0.23410112 
-0.41966346 -0.6840681 -0.59660155 
-0.34582904 -0.9373243 -0.042725608 
-0.76424885 -0.52361274 -0.37650144 
0.1088977 -0.46551925 -0.8783127 
-0.30830598 -0.1353463 -0.9416097 
-0.3322325 -0.28187242 -0.9000943 
0.38021404 -0.24644129 -0.8914617 
0.44072375 0.030613154 -0.89712065 
0.18502158 0.3789037 -0.906752 
0.09318051 0.6548326 -0.75000775 
0.25183544 0.7872161 -0.5629119 
0.392486 0.16880602 -0.9041345 
0.10499088 0.19530818 -0.975106 
-0.16485316 0.0025859468 -0.9863148 
0.320438 0.06604429 -0.9449644 
-0.36746168 -0.100063875 -0.9246401 
0.7749165 -0.13910453 -0.61656654 
0.80181646 0.07082443 -0.59335864 
0.4106115 0.037342887 -0.9110454 
0.02893754 -0.07909695 -0.99644685 
0.33127284 -0.22857182 -0.91543067 
-0.07815415 0.24381742 -0.96666694 
0.15961105 -0.041369956 -0.98631275 
-0.2631948 0.0779294 -0.9615902 
-0.09652016 -0.12468859 -0.98749006 
0.27477613 -0.5018493 -0.8201497 
0.5309438 -0.61708444 -0.5807801 
0.06591831 -0.6343987 -0.7701904 
0.46261916 -0.7369489 -0.49283868 
-0.3910772 -0.32289273 -0.86185795 
0.3589434 -0.19925429 -0.9118428 
0.6558015 -0.33501154 -0.67652917 
0.63126236 -0.70054185 -0.3327897 
0.60387003 -0.25956804 -0.75363487 
0.48840353 -0.5742025 -0.6570796 
-0.8802555 -0.29517192 -0.3715157 
-0.6513967 -0.5545687 -0.5178184 
-0.080912456 -0.54201394 -0.83646524 
0.014209069 -0.9098973 -0.41459024 
-0.2443035 -0.84724057 -0.4716983 
-0.51209515 -0.7513313 -0.416245 
-0.07189333 -0.123878725 -0.9896896 
-0.50547117 -0.63365567 -0.58564454 
-0.39768907 -0.23362626 -0.887278 
-0.7687082 -0.5330839 -0.35342506 
0.12635776 0.004193502 -0.99197596 
-0.5428282 0.39412266 -0.74162316 
0.43180984 -0.31389534 -0.84558266 
0.53076726 -0.08328492 -0.8434155 
0.5598538 -0.5813501 -0.5904201 
0.1721517 -0.5364745 -0.8261712 
-0.08522772 -0.29430726 -0.9519031 
-0.19884606 -0.533583 -0.8220399 
-0.07547922 -0.72398204 -0.68567693 
0.016639126 -0.75127393 -0.65978086 
0.53379303 -0.27702004 -0.7989524 
0.19154796 -0.64462507 -0.7401135 
-0.26949313 -0.24130751 -0.9322791 
-0.6208107 -0.5279018 -0.57958066 
-0.3627336 -0.4217113 -0.8310138 
0.00033142115 0.23147017 -0.972842 
-0.54584587 -0.13461462 -0.82700133 
-0.29810613 -0.37640283 -0.87718517 
0.35255486 -0.3066548 -0.8841199 
0.5731886 0.33225513 -0.74904037 
0.045810066 0.030552002 -0.99848294 
-0.64375263 -0.06764849 -0.7622378 
0.009557269 0.16639191 -0.9860135 
-0.10895936 0.20104672 -0.97350305 
-0.09926747 -0.62436646 -0.7747985 
-0.35696474 -0.73173314 -0.5806401 
-0.28838655 -0.7083668 -0.6442436 
-0.18184157 -0.08637588 -0.97952694 
0.055683903 -0.5030679 -0.86245126 
-0.483822 -0.52610457 -0.69937855 
-0.45140085 -0.5049814 -0.7356841 
0.17399462 0.2921549 -0.9404102 
0.07652104 -0.3875224 -0.9186789 
0.377684 0.18094191 -0.9080831 
-0.18769526 0.06463753 -0.98009825 
-0.35922033 -0.16917698 -0.91779083 
0.3035775 -0.8489582 -0.43256298 
-0.03229763 -0.122168854 -0.9919838 
-0.16075735 -0.13710175 -0.9774253 
-0.18953422 -0.48800412 -0.85201454 
-0.33529192 -0.7814063 -0.52629226 
-0.014521774 -0.92091966 -0.3894821 
-0.06700146 0.15152419 -0.9861802 
-0.14598003 0.22614588 -0.9630929 
0.33711776 -0.14851208 -0.92967516 
0.13389465 -0.3442512 -0.9292811 
0.052541435 -0.07787902 -0.9955774 
0.27386758 -0.68313384 -0.6769969 
-0.35023624 -0.9052494 -0.24053743 
-0.1637994 -0.6857167 -0.7091984 
0.32518145 0.11306055 -0.93886864 
-0.40980312 -0.39810875 -0.82071364 
-0.19338185 -0.19389144 -0.9617742 
-0.037190706 -0.4852847 -0.87356496 
-0.049306747 -0.41125482 -0.9101859 
-0.24679181 -0.7486601 -0.6153064 
-0.6625775 -0.6623521 -0.3496867 
-0.7473112 -0.3313856 -0.57594234 
-0.3615873 -0.5050389 -0.783703 
-0.31787813 -0.4969782 -0.8074442 
-0.2920444 -0.69903594 -0.65273196 
-0.380035 -0.7717894 -0.5098182 
-0.5354187 -0.0029551089 -0.8445816 
0.09106598 0.14694862 -0.9849432 
-0.46503448 -0.30843118 -0.8298273 
-0.015345903 0.2137191 -0.97677463 
0.24472684 -0.03230908 -0.9690536 
0.31971657 -0.27249086 -0.90748566 
-0.04514448 -0.25498682 -0.9658901 
0.30091774 0.31708756 -0.899391 
-0.079484336 -0.48503768 -0.8708736 
0.77869856 0.19525695 -0.59624094 
0.08945461 0.1611281 -0.9828711 
-0.24564919 -0.017921057 -0.96919316 
0.19419353 0.23643856 -0.95204294 
0.7394463 0.07323679 -0.6692202 
-0.32097235 -0.66691023 -0.67246383 
-0.32319197 -0.5311376 -0.78322405 
0.05691714 -0.29011467 -0.9552979 
-0.32411012 0.024050586 -0.9457136 
-0.5375628 0.1416166 -0.8312467 
-0.45329842 0.06000386 -0.8893368 
-0.68302464 0.04701916 -0.72888035 
-0.6620663 0.091310814 -0.743862 
0.20080215 -0.770865 -0.60452116 
-0.14110339 -0.55728245 -0.81824577 
-0.20438397 -0.81218445 -0.5464282 
-0.17716978 -0.46593323 -0.86690086 
-0.32958794 -0.21647684 -0.918972 
-0.32532057 0.056881305 -0.9438915 
0.45567408 0.49015087 -0.7430433 
-0.033078607 -0.521247 -0.8527646 
-0.005460256 -0.533481 -0.84579444 
0.32967603 -0.6629762 -0.6721431 
0.33560255 -0.8044919 -0.49006513 
0.69190824 -0.5938407 -0.4106291 
0.7561076 0.54242355 -0.36616674 
0.60411835 0.14466721 -0.7836533 
-0.10145302 0.62281686 -0.77576184 
0.61196434 0.3382889 -0.7148848 
0.857948 -0.24270299 -0.45279193 
0.12766723 0.09807149 -0.9869565 
0.34419996 -0.78454643 -0.5157648 
0.42391947 -0.39580262 -0.81463647 
-0.19789593 -0.93691766 -0.28813642 
0.37919554 -0.5320881 -0.7570292 
0.21912648 -0.7793695 -0.58699816 
-0.3555507 -0.9139419 -0.19568849 
-0.21546268 -0.809127 -0.54670787 
0.15944624 -0.043883134 -0.9862308 
-0.06126986 -0.31193057 -0.9481273 
-0.43507844 -0.3202379 -0.8415192 
0.6840552 -0.056869373 -0.72721 
0.5921665 -0.5048889 -0.6280336 
0.05103327 -0.012944504 -0.99861306 
-0.35456115 -0.8097945 -0.4674604 
0.16468091 -0.72205245 -0.6719527 
0.10238457 -0.84687406 -0.5218446 
0.2500274 -0.028099716 -0.967831 
-0.12933564 0.3763609 -0.91740113 
0.20963508 -0.08994995 -0.97363347 
0.06148282 0.5928678 -0.8029493 
-0.12302066 0.30747074 -0.9435718 
0.12565742 0.01818015 -0.9919071 
-0.41254148 -0.39427516 -0.8211923 
-0.7311698 -0.13329265 -0.66904694 
-0.49444538 -0.08959532 -0.8645787 
-0.30978438 -0.60607433 -0.7326033 
0.04192974 -0.5483046 -0.835227 
-0.13062945 -0.28592056 -0.9493079 
-0.65457356 -0.38896844 -0.648257 
0.039025635 0.1750451 -0.9837867 
0.5520238 -0.82976705 0.08219838 
0.59320116 -0.7955158 0.12356012 
0.15838121 -0.85842913 -0.48786753 
0.21604525 -0.88792527 -0.40609497 
0.25756246 -0.4825468 -0.83714414 
0.025360452 -0.40620938 -0.91342807 
0.021909168 -0.11601754 -0.9930055 
-0.27575716 0.060228027 -0.9593387 
-0.06367397 0.010968201 -0.99791056 
-0.18452038 -0.036972906 -0.98213303 
0.33719268 -0.24682409 -0.9085038 
-0.014275652 -0.9275002 -0.37355027 
-0.15596443 0.14820927 -0.9765804 
-0.4691488 -0.1917469 -0.86205137 
-0.41763985 -0.2512304 -0.8731897 
-0.43331113 0.05543923 -0.8995377 
-0.5941903 0.19162843 -0.7811636 
-0.22420248 0.038673032 -0.97377497 
0.1632663 0.9487318 -0.2706516 
-0.35404822 0.1341044 -0.92556256 
-0.40752128 0.20524728 -0.8898315 
-0.21780728 -0.16597322 -0.9617759 
-0.3249262 -0.8260248 -0.46054962 
0.82411194 -0.37164438 -0.42745748 
0.507727 -0.20199466 -0.8375032 
0.6290474 0.7224851 -0.28690538 
-0.48125455 0.38044307 -0.78971976 
-0.23891236 -0.60028875 -0.7632656 
-0.77890444 -0.61693835 -0.11267176 
0.06275647 -0.77748346 -0.6257645 
-0.1437852 -0.9082458 -0.3929573 
0.42204738 -0.6762521 -0.6037873 
0.13287243 -0.9902908 -0.040853012 
-0.26379305 -0.4631964 -0.8460865 
-0.032734357 -0.140983 -0.9894708 
0.39503476 -0.41326663 -0.8204623 
0.3971542 -0.49095565 -0.775391 
0.54910946 0.26617253 -0.7922317 
-0.14606023 0.38668397 -0.91057235 
-0.38426402 -0.30593818 -0.8710586 
0.10875364 -0.5188207 -0.84793746 
-0.2857999 -0.53626734 -0.7941888 
0.11825126 -0.44054472 -0.88990843 
0.2813295 -0.28032944 -0.91775227 
0.004595081 -0.6533485 -0.7570435 
-0.15249506 -0.85860646 -0.4894286 
0.31734085 -0.8223735 -0.47222534 
0.3270366 -0.3063275 -0.89398575 
0.6454911 -0.49531674 -0.58138 
0.05269168 -0.42965347 -0.9014553 
-0.25116992 -0.9676005 -0.025748279 
0.052927233 -0.69077045 -0.7211345 
-0.23125763 -0.96724474 -0.10467845 
-0.74338436 -0.030511307 -0.6681682 
-0.62129915 -0.069926664 -0.78044707 
-0.16226833 -0.2128929 -0.96350694 
-0.064519405 -0.70046735 -0.7107622 
0.67118716 -0.6081147 -0.4239155 
0.50878096 0.104478285 -0.85453284 
0.80094093 -0.3734731 -0.46798673 
0.34277618 0.16753612 -0.9243572 
0.5562363 -0.3251416 -0.76477724 
0.7911163 0.057292 -0.6089768 
0.75423205 0.10417929 -0.6482907 
0.9427323 -0.22977787 -0.24178092 
0.25420117 -0.22723266 -0.9400783 
0.505002 -0.5275376 -0.6831378 
0.8920379 -0.28170472 -0.3534274 
0.39446485 -0.73741674 -0.5482829 
0.6670039 -0.3836537 -0.6386827 
0.648754 0.09932879 -0.75448793 
-0.18589063 0.3619654 -0.9134691 
0.38942915 -0.09252203 -0.91639763 
0.17449829 -0.05118069 -0.9833265 
-0.006655752 -0.59421635 -0.8042778 
0.3961173 -0.57551605 -0.7154527 
0.7419707 -0.66960764 -0.033242825 
-0.15668452 -0.7580656 -0.6330772 
-0.27456242 -0.8063819 -0.52379745 
-0.31246394 -0.6781554 -0.66518533 
0.05695813 -0.6914283 -0.7201963 
-0.28796723 0.21042228 -0.9342363 
-0.047426306 0.58949834 -0.8063762 
-0.27173355 0.3320948 -0.9032574 
-0.40936044 0.14830667 -0.9002384 
-0.51806676 0.37359482 -0.76943743 
-0.37363574 0.30628404 -0.8755492 
-0.07508496 0.2781722 -0.957592 
0.6879186 0.13385738 -0.71333736 
0.48756436 0.6379968 -0.59602106 
0.2031438 0.45409036 -0.86748743 
-0.4254838 0.51345104 -0.74520576 
-0.017410826 0.30645308 -0.95172656 
0.28173092 -0.3127766 -0.9070824 
-0.16703996 -0.31287354 -0.9349909 
0.6898099 0.29493505 -0.6611926 
0.7578736 -0.13344355 -0.6386082 
0.8593404 -0.1253507 -0.4958037 
0.8910049 -0.33310527 -0.30846575 
0.49627876 0.05163839 -0.8666262 
0.08028772 0.13869703 -0.987075 
0.07206908 -0.15298447 -0.98559725 
-0.15669799 0.5673561 -0.8084262 
-0.00016168952 -0.028182898 -0.9996028 
0.6981862 0.088465974 -0.7104294 
-0.15438424 -0.21620232 -0.9640654 
-0.22904535 -0.37262538 -0.89927113 
-0.00705035 -0.9231466 -0.38438365 
0.083272144 -0.5275652 -0.8454234 
-0.0337563 -0.54745823 -0.83615196 
0.12237983 0.12133706 -0.98503834 
0.44493496 -0.048522282 -0.8942475 
0.12057676 -0.23198895 -0.9652162 
0.44041672 -0.6203982 -0.6489524 
-0.6131113 -0.41328913 -0.6732657 
-0.23939139 -0.49660635 -0.83431053 
0.2679116 -0.51240945 -0.8158798 
0.1808844 -0.4070346 -0.8953232 
0.21517588 -0.7930906 -0.56983036 
-0.039663922 -0.9798885 0.19556446 
-0.32810104 -0.7896846 -0.51840925 
-0.061233576 -0.9755578 -0.2110393 
-0.5921402 -0.77880067 -0.20697685 
-0.8803993 -0.2708385 -0.389286 