# OOMMF: rectangular mesh v1.0
# Segment count: 1
# Begin: Segment
# Begin: Header
# Desc: Time (s) :  7.840000000000019e-07
# Title: m
# meshtype: rectangular
# meshunit: m
# xbase: 2e-09
# ybase: 2e-09
# zbase: 5e-10
# xstepsize: 4e-09
# ystepsize: 4e-09
# zstepsize: 1e-09
# xmin: 0
# ymin: 0
# zmin: 0
# xmax: 1.024e-06
# ymax: 1.024e-06
# zmax: 1e-09
# xnodes: 256
# ynodes: 256
# znodes: 1
# ValueRangeMinMag: 1e-08
# ValueRangeMaxMag: 1
# valueunit: 
# valuemultiplier: 1
# End: Header
# Begin: Data Text
-0.6403421 0.48059806 -0.5991557 
-0.30078098 0.7550456 -0.5826122 
-0.96397215 -0.25386164 -0.07944821 
-0.7209075 -0.08566013 -0.68771714 
-0.40406826 -0.4213397 -0.8119124 
0.58698666 -0.80403954 0.09469588 
0.49513996 -0.86796784 0.038319543 
-0.4748852 -0.38006705 -0.79374623 
-0.08380574 -0.8140191 -0.57476044 
-0.5655459 -0.5903275 -0.5759091 
-0.009314525 -0.96558976 -0.2599033 
0.2196875 -0.97430974 -0.049579445 
0.47207943 -0.7647944 -0.4384411 
0.10024663 -0.84714633 -0.52181786 
-0.30566415 0.4331545 -0.8479072 
0.10946776 -0.26114556 -0.95907235 
-0.42533138 -0.7195066 -0.54900235 
0.07332827 -0.6765056 -0.7327777 
-0.03311976 -0.7422528 -0.66930103 
0.6317853 -0.7750694 0.0107168425 
-0.0427839 -0.7310305 -0.68100214 
0.23482211 -0.9711278 0.04206438 
-0.20545264 -0.96794003 -0.14450435 
-0.12957625 -0.99125564 0.024945261 
0.08958964 -0.9449073 -0.31483975 
0.914751 -0.36397 0.17537566 
-0.27188206 -0.5796013 0.76820743 
-0.1768941 -0.49183172 -0.85253155 
-0.5086619 -0.69926536 -0.5022859 
-0.48238263 -0.4247779 -0.766075 
-0.363485 -0.14440064 -0.92034084 
0.2669339 0.08626207 -0.9598465 
0.7626391 -0.509303 0.39873797 
0.8352264 -0.53963137 0.10580652 
0.679948 -0.629667 -0.37575307 
0.6345592 -0.6554406 0.40955123 
-0.03246989 -0.9994482 -0.0070106117 
0.10355289 -0.8614928 -0.49709857 
0.30954185 -0.81857544 -0.4838576 
-0.18195507 -0.9827187 -0.03400671 
-0.7239141 -0.59962136 -0.34117836 
-0.46430925 -0.885072 0.032627318 
-0.20111299 -0.5774769 -0.79124844 
-0.7469487 -0.5682439 -0.34520516 
-0.37095568 -0.35161048 -0.85951275 
0.7094001 0.2499247 -0.65900624 
0.12290921 -0.3249813 -0.93769956 
-0.19933587 -0.28338736 -0.93806016 
0.15121493 -0.3212693 -0.934837 
-0.6460845 0.36677858 -0.66936415 
-0.2217715 -0.65578437 -0.72164 
-0.26599097 -0.22817466 -0.9365816 
0.08148781 -0.39526618 -0.9149451 
-0.4983527 0.14474836 -0.85480565 
-0.2572047 0.73442304 -0.62806743 
0.12747008 -0.73780453 -0.66286945 
-0.08471562 -0.4838184 -0.8710585 
-0.0076173227 -0.7528175 -0.65818524 
0.23549023 -0.88150626 -0.409257 
0.19502926 -0.44975072 -0.87160075 
0.100610666 -0.7210947 -0.68549246 
-0.2306807 -0.13813494 -0.9631746 
-0.35894033 -0.32936174 -0.87331706 
-0.7486806 -0.08823445 -0.6570329 
-0.50109285 -0.19768941 -0.8425111 
-0.39373654 0.0617871 -0.9171445 
-0.12845987 0.22825779 -0.9650889 
0.026931508 -0.23251757 -0.9722193 
0.17597406 -0.38471928 -0.9061039 
-0.10879763 0.5521731 -0.8266003 
-0.42289597 -0.5953009 -0.68321 
0.496231 -0.86744237 0.036037285 
-0.3471172 -0.930058 0.12042363 
-0.25430533 -0.96642673 0.03671717 
-0.31934512 -0.94704556 0.03351768 
-0.38622805 -0.73496735 0.55736077 
-0.051256236 -0.9868057 -0.15358202 
-0.46787837 -0.12975787 -0.87421554 
-0.74102587 -0.30218932 -0.59963524 
-0.030973053 -0.41385368 -0.9098164 
0.29085585 -0.42589226 -0.85674894 
0.5128443 -0.78206474 -0.35406983 
0.10067362 -0.8433619 -0.5278309 
0.19120346 -0.6247218 -0.7570759 
0.742722 -0.5668504 -0.35643336 
0.6270056 -0.6328527 -0.45427042 
0.39669803 -0.8287131 0.39479792 
0.60963875 -0.53456664 -0.5853026 
-0.17340936 -0.6415324 -0.7472386 
0.056557067 -0.9179562 -0.39262933 
0.11430097 -0.3913201 -0.9131286 
0.07926142 -0.4910906 -0.867495 
-0.64351606 -0.35323685 -0.6790515 
0.15549421 -0.8336057 -0.5300218 
0.97757584 -0.2004779 -0.064452134 
-0.4862046 0.14652598 -0.8614727 
-0.6186386 -0.51438725 -0.59387887 
0.0665343 -0.28170502 -0.95719147 
0.00524266 -0.6631933 -0.7484299 
0.41929305 0.098385625 -0.9025041 
0.25152105 -0.29575136 -0.92155755 
-0.3593286 -0.33045137 -0.8727456 
-0.36682022 0.34494445 -0.8639771 
-0.28533077 -0.60386026 -0.7442709 
-0.18675527 -0.6922187 -0.6971052 
0.22361816 -0.4354939 -0.87197477 
0.50112784 -0.66291654 -0.55624866 
-0.38118985 -0.33025938 -0.8634947 
-0.40473777 -0.251613 -0.8791349 
0.4491991 -0.103122205 -0.8874604 
-0.05144633 -0.08673271 -0.99490243 
0.3336977 0.09218695 -0.93816173 
0.22128725 0.28413764 -0.93289757 
0.09320832 0.050074436 -0.9943866 
0.021354105 -0.05461874 -0.998279 
-0.20932986 0.9224501 -0.32444847 
0.7260065 0.52767587 -0.4409906 
0.77211684 -0.5861513 -0.24548389 
-0.37007385 -0.44003856 -0.81817573 
-0.29384583 -0.80481505 -0.5156814 
-0.7019475 -0.6540935 -0.2818358 
-0.7090332 -0.6429735 -0.2895808 
-0.6294174 -0.24308702 -0.73806673 
-0.67021185 -0.19095725 -0.717183 
-0.4811056 0.44687107 -0.7542173 
-0.2700174 0.21511121 -0.93851894 
-0.26042533 0.28227 -0.9233105 
-0.14030623 0.20967376 -0.9676523 
0.046953123 -0.51557624 -0.85555625 
0.4512405 -0.014396241 -0.8922863 
0.30504438 -0.39215842 -0.8678478 
-0.3553996 -0.6965172 -0.62334174 
-0.19587481 -0.4566445 -0.8678184 
-0.36076334 -0.07287831 -0.92980576 
0.47913885 -0.2193953 -0.8498775 
-0.17908262 -0.9249545 -0.3352443 
0.39176697 0.28689796 -0.87419 
-0.009438933 -0.032621324 -0.9994232 
0.13443111 -0.3044915 -0.942981 
-0.01261437 -0.009315777 -0.99987704 
0.57590985 0.18034449 -0.79737306 
0.18250954 0.37210098 -0.910072 
-0.14930342 0.22981785 -0.9617132 
0.4449725 -0.11187316 -0.88852906 
0.2752687 -0.82956654 -0.4858462 
0.18960764 -0.5377447 -0.8215106 
0.147394 -0.25944465 -0.9544441 
0.4119926 -0.26841572 -0.87075555 
-0.22640438 0.02591256 -0.9736887 
-0.6582036 0.19130276 -0.7281286 
0.38696808 0.35454902 -0.8512055 
-0.11510343 -0.07294277 -0.99067175 
-0.4034465 -0.77936476 -0.47939706 
-0.66092646 -0.7166041 -0.22283375 
-0.6872094 0.022514468 -0.72611046 
0.5126981 0.06515466 -0.8560932 
0.12346244 -0.2612674 -0.9573382 
-0.2179527 -0.48958337 -0.8442777 
-0.10129917 -0.23265429 -0.96726966 
0.13760796 -0.68973935 -0.71086127 
0.072818495 -0.63459045 -0.76941055 
0.30248338 -0.3038824 -0.9034153 
0.6311977 -0.43911308 -0.63935065 
0.09632627 0.14492187 -0.9847431 
0.60663044 -0.011182012 -0.7949053 
0.2302352 -0.18847354 -0.9547091 
0.32198313 -0.12733677 -0.938143 
-0.15222605 0.5266787 -0.83632344 
-0.54861856 -0.39753544 -0.7355157 
0.19004013 -0.4725503 -0.8605702 
-0.50044376 -0.71033436 -0.49495584 
-0.36263925 -0.5349204 -0.76312065 
0.06678145 -0.90462273 -0.420949 
-0.46206817 -0.6679959 -0.5833305 
-0.80486757 -0.26999438 -0.5284801 
0.12588242 -0.33283392 -0.9345455 
-0.25877598 -0.49267805 -0.83084494 
0.07131351 -0.11186673 -0.9911611 
0.22478957 -0.5890027 -0.776238 
-0.3589427 0.15192899 -0.9209114 
-0.1527889 -0.093289874 -0.98384583 
0.42769048 0.35204825 -0.83255213 
0.13459161 -0.9743866 -0.18015563 
-0.23911467 -0.6119373 -0.7538945 
-0.6000647 -0.33225352 -0.72768825 
-0.6223497 -0.773549 0.11959454 
-0.5589079 -0.8276293 -0.051494103 
-0.19378321 -0.7936133 -0.57673746 
-0.1721328 -0.82016313 -0.54562145 
0.052155696 -0.17202343 -0.98371124 
-0.36669454 0.08640309 -0.92632055 
-0.348081 -0.53758806 -0.7680096 
0.07156873 -0.9325232 -0.35394722 
-0.23229226 0.034738515 -0.9720255 
0.3148453 0.47324675 -0.8227454 
0.28932494 0.069282845 -0.9547204 
0.32556444 -0.12179782 -0.9376424 
-0.06398774 -0.26150858 -0.9630778 
0.18114239 -0.6797853 -0.71068937 
0.3327024 -0.8134631 -0.47706074 
0.21774468 -0.8243731 -0.5224904 
0.1361629 -0.34175873 -0.9298713 
0.53613615 -0.8354343 -0.12086218 
0.7231828 -0.5661738 -0.39554265 
0.060297173 -0.77458316 0.62959146 
-0.24652329 -0.95957327 -0.13581419 
0.21160851 -0.6638742 -0.71728164 
-0.11355708 -0.9824649 -0.14787696 
0.5517938 -0.7226148 -0.4163551 
0.4129488 -0.6279999 -0.65961313 
0.54704887 -0.33097872 -0.7688893 
0.36680126 -0.38728017 -0.8458552 
0.11271866 -0.3290196 -0.9375717 
0.32624424 0.44559866 -0.8336705 
0.5432946 0.026061533 -0.83913755 
0.9164191 0.026230333 -0.39935946 
0.3791295 -0.92118824 -0.08759722 
0.1612257 -0.48727506 -0.8582362 
0.14124207 -0.8887356 -0.43611884 
0.13206142 -0.7234321 -0.6776473 
0.026490789 -0.8636865 -0.503333 
-0.13380636 -0.85418504 -0.50245786 
-0.3906552 -0.8375994 -0.3818585 
0.03676841 -0.80781054 -0.58829445 
-0.26124856 -0.96469927 0.03323352 
-0.48986867 -0.8679123 -0.08220024 
-0.02040225 -0.106593415 -0.9940934 
-0.11194669 0.31119043 -0.94373125 
-0.50976884 -0.41865402 -0.75157475 
-0.31821007 -0.87196416 0.3720496 
0.35481957 -0.92027104 -0.16493773 
-0.74893457 -0.65043443 -0.12661786 
-0.73368365 -0.64721113 -0.20694472 
-0.7453103 -0.6235366 0.23603982 
-0.79160947 -0.45414683 -0.4087848 
-0.71011716 -0.32398468 -0.6251141 
-0.6902287 -0.440715 -0.5738944 
-0.84405464 -0.5346039 0.042077605 
-0.4410911 -0.5140115 -0.73568404 
-0.6388454 -0.38547385 -0.6657977 
-0.37992725 -0.09132809 -0.92049694 
-0.82440627 -0.35767487 -0.43866053 
-0.3122364 0.7283131 -0.60997427 
0.53135556 -0.05408494 -0.84542066 
-0.16364773 -0.13170163 -0.97768813 
-0.2267735 -0.4672715 -0.8545357 
-0.06362568 -0.25589702 -0.964608 
0.066100664 0.020713592 -0.997598 
-0.1426747 -0.2944241 -0.94496477 
0.53536767 -0.16685264 -0.82797456 
0.7579576 0.28931752 -0.58463293 
0.39547387 -0.3241236 -0.85938615 
-0.24827377 -0.5831323 -0.77350944 
-0.3966711 -0.28515208 -0.8725483 
0.10458276 -0.008951378 -0.9944759 
0.7350329 -0.5672279 -0.37145546 
-0.72187847 -0.007295329 0.6919815 
-0.9877232 0.13573124 0.07733105 
-0.86459494 0.47448125 0.16535783 
-0.49475592 -0.6560147 -0.56996614 
-0.34244925 -0.39154226 -0.8540628 
-0.1659627 -0.57890755 -0.79832476 
0.2624668 -0.67335093 -0.69116557 
0.2627237 -0.9504342 -0.16628604 
0.5801024 -0.80592996 -0.11814416 
0.2312022 -0.74927354 -0.6205923 
0.39508188 -0.56235266 -0.7264089 
0.20922507 -0.95625556 -0.204451 
0.19847037 -0.6696247 -0.7156902 
0.07932029 -0.96201074 -0.2612349 
-0.08993154 0.007910799 -0.99591655 
0.08986215 -0.09815067 -0.9911061 
-0.50229853 -0.5718841 -0.6485714 
-0.16629449 -0.07087875 -0.9835255 
0.25427964 -0.30147848 -0.918941 
0.110760145 -0.9295539 -0.35165557 
-0.12076084 -0.97741246 -0.17344077 
-0.5211381 -0.8198085 -0.23733787 
-0.2516918 -0.9676944 -0.014792512 
-0.55612975 -0.8053392 -0.20530115 
0.15150829 -0.96120197 -0.23051247 
0.45111245 -0.89226055 -0.019202983 
0.13263476 -0.97686154 -0.16777872 
-0.08372018 -0.45603865 -0.8860133 
-0.1215246 -0.14601092 -0.9817906 
0.21045229 -0.65063006 -0.7296509 
-0.14672184 -0.7999307 -0.5818793 
0.11534284 -0.3794248 -0.9180049 
0.6652691 -0.71003973 -0.2307827 
0.5024734 -0.8213941 0.26987463 
0.56083906 -0.47377416 -0.67896813 
0.7529511 -0.48116937 -0.44893283 
0.72243303 -0.6493668 -0.2375152 
0.15479292 -0.4400461 -0.88453305 
0.60243326 -0.01527843 -0.798023 
-0.3737753 -0.7385211 -0.5611405 
0.17680186 -0.6497327 -0.73931634 
-0.053933665 -0.96633613 -0.25156632 
-0.12312395 -0.43508813 -0.89192986 
-0.23904839 -0.07072232 -0.9684288 
0.09523031 0.34599048 -0.93339264 
0.18220128 -0.2929245 -0.9386149 
0.09644366 0.36008993 -0.92791915 
0.1356055 0.41368142 -0.900266 
0.38064128 0.5006488 -0.7774722 
0.06779897 -0.6562896 -0.75145686 
0.14307171 -0.5016555 -0.8531543 
-0.03159889 -0.8714219 -0.48951542 
0.10086084 -0.67633766 -0.7296537 
-0.84346926 0.2064348 -0.49592793 
-0.92820764 0.37149808 -0.020488879 
-0.72679836 -0.471512 -0.49944043 
-0.6304959 -0.6034542 -0.4881783 
-0.2870307 -0.6584267 -0.6957642 
0.24240619 -0.61793905 -0.74792427 
-0.23228818 -0.54545283 -0.8053095 
-0.066752315 -0.7142363 -0.6967142 
-0.37027436 -0.26870462 -0.8892102 
-0.04318779 0.4442401 -0.8948663 
-0.24928288 0.77144074 -0.58543766 
-0.6847539 0.13031463 -0.7170288 
-0.14835307 -0.06623376 -0.986714 
-0.016727913 -0.566968 -0.8235701 
-0.23256849 -0.38411725 -0.89351326 
0.18589902 0.24305615 -0.95203215 
0.0719852 0.11817286 -0.9903804 
0.057710912 -0.28357422 -0.9572122 
0.35370925 -0.77334434 -0.5261448 
-0.37667766 -0.9224139 0.08524528 
0.03745564 -0.9241531 -0.38018173 
0.13391437 -0.84487855 -0.517926 
0.5413231 -0.4075668 -0.73543096 
-0.26956654 0.14776 -0.95157814 
0.026492022 -0.40249413 -0.91503924 
-0.07651997 -0.44036055 -0.8945543 
0.10235334 -0.774349 -0.6244257 
0.520243 -0.44681233 -0.72780913 
-0.401582 -0.67167777 -0.62256 
0.42410418 -0.28702798 -0.85892415 
0.38679177 -0.038591687 -0.92135924 
0.8355934 -0.35129654 -0.42234394 
0.52566123 -0.8376424 0.14844397 
0.20294991 -0.8809768 -0.42742404 
0.79392904 -0.579426 0.1842344 
-0.6103864 -0.40607122 -0.68009907 
0.17117698 -0.57913405 -0.7970586 
-0.08009818 -0.44700718 -0.8909371 
0.08983662 -0.27044848 -0.95853376 
-0.10234612 -0.6392274 -0.762177 
0.16665356 -0.09163571 -0.9817483 
0.28865895 -0.22214969 -0.9313032 
-0.38338652 -0.6254476 -0.6795809 
-0.10810317 -0.07945333 -0.9909596 
0.012553238 -0.18434134 -0.9827822 
-0.19752671 -0.11837032 -0.97312474 
0.33027387 0.16893503 -0.92864424 
0.1526643 0.31581572 -0.9364583 
-0.4570533 0.11368655 -0.8821438 
0.21451032 0.2104258 -0.95378524 
-0.118305326 -0.05383162 -0.9915171 
-0.08985998 0.090041205 -0.9918759 
0.43603122 0.32766756 -0.83815926 
0.11543934 -0.0323969 -0.9927861 
-0.031287268 -0.37162095 -0.9278573 
0.40531617 -0.18903767 -0.894418 
0.39223805 -0.5446255 -0.7413046 
0.34250486 -0.28313923 -0.8958363 
0.20144622 0.25555682 -0.945574 
0.49429545 0.29754433 -0.816786 
0.118586496 -0.06102377 -0.99106675 
-0.17635363 0.41239223 -0.8937741 
-0.25009692 0.36479366 -0.8968708 
-0.6257422 -0.57350373 -0.5287156 
-0.5377444 -0.6651731 -0.5180499 
-0.6957537 -0.60625446 -0.38520426 
-0.5131278 -0.8189587 -0.2569174 
-0.69849443 -0.49341288 -0.5183138 
-0.59114325 -0.3256854 -0.737888 
-0.5872424 -0.6400791 -0.49542415 
0.06993797 -0.50826085 -0.8583586 
-0.66209435 -0.5897534 -0.4624091 
-0.0598035 -0.79408634 -0.6048558 
0.55886906 0.028608393 -0.8287624 
0.0937098 0.3806963 -0.9199395 
0.06887442 0.14154108 -0.98753357 
-0.119264804 -0.014955962 -0.9927498 
0.49829668 0.15390924 -0.85323644 
-0.1540065 -0.40459335 -0.9014357 
-0.28321895 -0.38803115 -0.8770513 
0.091927394 -0.7263164 -0.68118566 
-0.18772241 0.062238973 -0.98024833 
0.03326047 -0.47856852 -0.87742007 
0.73175544 0.18540947 -0.6558639 
0.33715317 0.57111144 -0.74843806 
0.8662429 0.25346184 -0.43055826 
0.25383314 -0.8344807 -0.48909166 
0.49163744 0.40279394 -0.77204245 
-0.290882 0.9369502 -0.19368024 
0.65938765 0.30620295 -0.6866206 
0.7309219 -0.6744231 -0.10443546 
0.6763307 -0.26172853 -0.6885311 
0.11141108 -0.6279937 -0.77020234 
0.39687946 -0.7372905 -0.5467078 
0.06745309 -0.32486656 -0.94335145 
-0.5941303 -0.43918845 -0.67388636 
-0.7319237 -0.07633153 -0.67709774 
-0.38555396 0.6307299 -0.6734448 
-0.12337201 -0.16613232 -0.97835547 
-0.2939815 -0.8927053 -0.3415438 
-0.6261078 -0.63603455 -0.45105344 
-0.48963302 -0.39329588 -0.77818894 
0.4252365 -0.022932049 -0.90479183 
0.068460464 -0.14944823 -0.9863967 
0.15942465 -0.0013958875 -0.9872092 
-0.51021385 0.068849616 -0.8572874 
-0.12286105 -0.13506183 -0.9831905 
-0.095969684 0.47808084 -0.87305707 
-0.026696745 0.10586956 -0.9940216 
-0.15777512 -0.21211247 -0.9644249 
-0.2505021 0.07271144 -0.9653817 
0.6131836 -0.6904724 -0.3837367 
0.2851342 -0.12414453 -0.950414 
-0.13444607 0.037448782 -0.9902131 
-0.82340765 -0.105950534 -0.5574714 
-0.5089006 -0.113842316 -0.85326445 
0.22552407 -0.46591514 -0.8556062 
-0.28055757 -0.5928404 -0.75486934 
-0.20888558 -0.88887835 -0.40775257 
-0.05346982 -0.8858048 -0.46096733 
0.027523622 -0.8018875 -0.59684074 
0.27143267 -0.2741415 -0.9225891 
0.28724486 0.3095142 -0.90647197 
-0.30903652 -0.054215133 -0.9495037 
-0.34942275 0.3484391 -0.86976665 
-0.5748762 0.63814425 -0.5121419 
-0.07190675 -0.07007796 -0.99494654 
0.681094 -0.202657 -0.70359164 
0.71438 -0.34049192 -0.6113317 
-0.11485637 -0.55501795 -0.82387084 
-0.79176986 0.004803185 -0.61080056 
-0.2044214 0.9495547 -0.23781897 
-0.29903415 -0.9536945 0.03233335 
-0.5171728 -0.70496565 -0.48534098 
-0.6723553 -0.5154046 -0.531316 
-0.52729607 -0.7097164 -0.46718487 
-0.1286439 -0.47612333 -0.869918 
0.233835 -0.3724765 -0.89809936 
-0.019330878 -0.15373433 -0.9879231 
0.073581845 -0.6802623 -0.72926605 
-0.09410973 0.05105638 -0.9942518 
-0.19311048 -0.008152454 -0.9811431 
0.33874336 -0.33654314 -0.87863064 
0.77905035 -0.024550324 -0.6264805 
0.2697607 -0.28415698 -0.9200456 
0.15026042 -0.95663226 -0.24955277 
0.11246988 -0.99337935 0.02341105 
0.27239817 -0.7846791 -0.55684656 
0.34058675 -0.67656076 -0.6528907 
0.14281635 -0.9717288 -0.188007 
0.46421283 -0.8825666 -0.07471776 
0.509609 -0.78118783 -0.36061642 
-0.02997914 -0.8338775 -0.5511349 
-0.09187889 -0.6599886 -0.7456362 
-0.22717886 -0.22941856 -0.94644445 
-0.088700965 -0.2541846 -0.96307963 
-0.00045886775 -0.23087756 -0.9729827 
0.32986712 -0.5317176 -0.7800412 
0.73116606 -0.18715204 -0.65602624 
0.1604314 -0.5575374 -0.81450224 
0.5367308 0.23786958 -0.80952966 
0.18188272 0.5241114 -0.83200115 
0.41850314 -0.011897456 -0.9081375 
0.8223981 -0.5659318 -0.05815968 
0.38793653 -0.6856355 -0.6159621 
0.14886065 -0.65841913 -0.73778373 
0.1425184 -0.47144145 -0.8703054 
-0.15791376 -0.14126629 -0.9772958 
-0.2066678 -0.77185637 -0.6012704 
-0.21725446 -0.7697589 -0.60022646 
-0.4613437 -0.5177487 -0.72048485 
0.053823393 -0.8225749 -0.5661039 
-0.43224597 0.096502274 -0.8965773 
0.011188781 0.45828894 -0.8887329 
-0.6916426 0.6355587 -0.343068 
-0.76339066 -0.0385785 -0.6447841 
-0.7685825 -0.63369066 -0.08784806 
-0.42750204 -0.2659541 -0.8640084 
-0.5332619 -0.5350389 -0.6552596 
0.2840039 -0.88347465 -0.3725779 
-0.48795295 -0.5559873 -0.67288935 
-0.115777545 -0.43705207 -0.8919535 
-0.21175568 -0.26733887 -0.94004756 
0.4622804 -0.14490916 -0.8748133 
-0.18786351 -0.8466562 -0.4978762 
-0.46272045 -0.48804808 -0.7400668 
-0.5680802 -0.8180393 -0.08998069 
0.12227146 -0.66618705 -0.7356933 
-0.53194183 -0.3560711 -0.7682781 
0.018812926 -0.51746273 -0.85549897 
0.30172327 0.06406569 -0.95124066 
0.37937853 -0.16688848 -0.910066 
0.24037349 0.36735547 -0.89848244 
0.5547215 0.1462424 -0.8190832 
0.22788295 0.12793098 -0.9652477 
0.17072828 -0.19015351 -0.96679544 
0.31859386 -0.541723 -0.7778395 
0.74593616 0.61517644 -0.25521994 
0.09711578 -0.2839294 -0.95391446 
-0.08963983 -0.2806312 -0.9556207 
-0.73097545 0.43435842 -0.5263152 
0.14621837 -0.15946145 -0.97631574 
-0.015746947 0.080017775 -0.99666905 
-0.8849009 0.23713739 -0.4008943 
-0.7570783 -0.018550443 -0.65306085 
-0.5768744 -0.18800455 -0.7949027 
-0.15999284 -0.6183598 -0.7694371 
-0.48324376 -0.04465409 -0.8743463 
0.03681196 -0.35182974 -0.93534 
-0.14030372 -0.17171647 -0.9751043 
-0.5837218 -0.77730876 -0.23464884 
-0.108884566 -0.52103037 -0.8465646 
0.32793513 -0.624139 -0.7091608 
0.1759761 -0.34517884 -0.9218915 
0.22432676 -0.5797002 -0.78334236 
0.16128215 -0.27954686 -0.94648916 
-0.03592709 -0.10969426 -0.99331594 
-0.28076324 -0.13550219 -0.9501638 
0.50144476 0.22063662 -0.83658385 
-0.3340032 0.018044738 -0.94239926 
-0.0970793 -0.28805247 -0.9526812 
0.11390893 -0.6270438 -0.7706107 
0.38700917 -0.92199236 0.01241417 
-0.27657288 -0.42735186 -0.8607427 
-0.044870622 -0.49940848 -0.865204 
-0.348425 -0.813528 -0.46558815 
-0.3631282 -0.4504361 -0.8156258 
-0.039862853 -0.7090815 -0.7039989 
-0.06963592 -0.34843934 -0.93474114 
-0.14287485 -0.25981447 -0.95503056 
0.45937964 0.06182112 -0.8860861 
0.07435829 -0.04266105 -0.9963187 
0.38080484 -0.15104434 -0.9122353 
0.08667387 -0.745601 -0.66073215 
-0.098468594 -0.71676886 -0.69032335 
-0.09216678 -0.9801016 -0.17580137 
0.38078433 0.080429025 -0.9211593 
0.83815616 -0.46801436 -0.28010142 
0.85135734 -0.33319715 -0.40517962 
0.7180425 -0.32873464 -0.6134726 
0.09451897 -0.7995486 -0.5931174 
0.30002287 -0.51711637 -0.801609 
0.5314776 -0.42733333 -0.7313809 
0.2533033 -0.5408835 -0.80204904 
0.20382115 -0.70139855 -0.683006 
-0.40064418 0.5156073 -0.75738597 
-0.544628 0.19758736 -0.81507033 
0.3029848 0.040211357 -0.95214665 
0.7537407 0.13041407 -0.6441019 
0.55602735 0.73171484 -0.39424244 
-0.06475519 0.8682247 -0.49192756 
0.10889443 0.37619063 -0.920121 
-0.2462813 -0.17530143 -0.9532129 
-0.09401813 0.0406724 -0.99473935 
-0.2403071 0.13269451 -0.96158457 
-0.42676258 0.23399311 -0.873568 
-0.07163484 -0.3941161 -0.91626465 
-0.59000534 -0.4659415 -0.6593879 
-0.41927052 -0.2626851 -0.8690275 
-0.4489391 -0.4591683 -0.76656264 
-0.069213904 0.17748092 -0.98168737 
-0.58024454 -0.5528075 -0.59809715 
0.21251695 -0.53692293 -0.8164254 
0.75335705 -0.31384006 -0.5778906 
-0.33160093 -0.6258744 -0.7059194 
-0.7992848 -0.07768306 -0.5959104 
-0.3543923 0.09744753 -0.93000543 
-0.04101724 0.031559043 -0.99865997 
0.24468693 -0.25662076 -0.9350263 
0.12974858 -0.043717835 -0.9905827 
0.19466445 -0.34064505 -0.9198189 
-0.4777899 -0.1027235 -0.8724476 
-0.017763292 -0.46613416 -0.8845358 
-0.48536605 -0.51302975 -0.7079692 
-0.19967712 -0.80171067 -0.56337297 
-0.3063238 -0.9384556 -0.15958363 
-0.42469704 -0.7381269 -0.52421486 
-0.15327792 -0.31132767 -0.9378598 
-0.21412507 -0.4870609 -0.8467126 
-0.33950305 -0.017480541 -0.94044256 
-0.16910036 0.029008161 -0.98517185 
0.113587275 -0.023331547 -0.99325407 
0.1019117 -0.51394707 -0.8517467 
-0.41996977 0.07761621 -0.9042131 
-0.10962554 -0.100336686 -0.9888958 
0.57183456 -0.13715039 -0.80882335 
0.48759666 0.28043884 -0.8268032 
0.15846357 -0.9848243 0.07078537 
0.13491409 -0.828076 -0.5441401 
0.3279393 -0.6882803 -0.64709055 
0.64091474 -0.42420816 -0.6397466 
0.3768374 -0.21472324 -0.901048 
-0.35580176 -0.6864142 -0.63422453 
0.09316549 0.03906951 -0.99488384 
0.1604858 0.24310751 -0.95663106 
-0.38224867 0.2694093 -0.8839144 
0.017207753 0.19295406 -0.9810569 
0.36013803 -0.7794088 -0.51266235 
-0.46097308 -0.23877329 -0.85468775 
-0.6541713 0.035008468 -0.7555358 
-0.29052275 -0.44334018 -0.8479658 
0.24099956 0.11027874 -0.9642395 
0.55064136 0.48001152 -0.6829225 
-0.38948035 -0.26881722 -0.8809327 
0.7979671 -0.3474865 -0.4924447 
0.121416844 -0.49221408 -0.8619648 
0.28198898 0.047742292 -0.95822906 
-0.053412497 0.11283124 -0.99217755 
-0.35767946 0.30839828 -0.88145113 
0.50440395 -0.06669141 -0.86088854 
0.10122737 0.029060248 -0.99443877 
0.36769408 0.2380217 -0.8989698 
-0.27534398 -0.25125167 -0.92793226 
-0.021420876 -0.37239453 -0.92782736 
-0.35453638 0.27794683 -0.89277637 
-0.23793624 0.5301006 -0.8138671 
-0.13139673 0.060406845 -0.98948777 
-0.41159257 0.04473021 -0.91026956 
-0.19098353 0.26551867 -0.9450001 
0.14155148 -0.53038895 -0.8358533 
-0.4033075 -0.70339215 -0.58530563 
-2.9172239e-05 -0.5864156 -0.8100104 
-0.7698285 -0.52502483 -0.36292312 
-0.28811362 -0.63314784 -0.7184111 
-0.5115317 -0.72825766 -0.456044 
-0.671557 -0.35826626 -0.6485804 
-0.34833723 -0.8662025 -0.35826597 
-0.32741123 -0.7140253 -0.6188455 
0.20865926 -0.7862723 -0.58158165 
-0.5221272 -0.22026028 -0.82393485 
-0.30982658 -0.3910872 -0.86663616 
-0.042334456 -0.19176294 -0.9805279 
-0.065905675 -0.23769824 -0.96910065 
0.17521396 -0.69921315 -0.6931098 
0.26905486 -0.35344446 -0.8959278 
0.15728329 -0.3592329 -0.9198988 
-0.0024179292 0.35810414 -0.9336785 
-0.095177665 -0.28683078 -0.9532415 
0.42534733 -0.17011169 -0.88889915 
0.5646438 0.7242865 -0.39571005 
0.6149392 0.39440024 -0.6828603 
0.7790891 0.37147874 -0.50499874 
0.4499007 0.2427892 -0.8594434 
0.20664217 -0.3785146 -0.9022338 
-0.027260063 0.53733337 -0.8429293 
-0.40966946 0.3296847 -0.8505757 
0.21293606 -0.4890887 -0.8458431 
-0.22038978 -0.4375141 -0.8717854 
-0.026422435 -0.38652876 -0.9218989 
0.3920042 0.30852455 -0.86668634 
-0.30344033 -0.24877162 -0.91980255 
-0.7435977 -0.3283404 -0.5824561 
-0.5313256 -0.5126783 -0.67442876 
-0.091297 -0.2157823 -0.972164 
0.25334546 0.21288398 -0.9436612 
-0.45415208 -0.52988416 -0.71621835 
0.031260367 -0.37434116 -0.92676395 
0.11770188 -0.5343459 -0.8370309 
0.39295107 -0.51894695 -0.7591335 
0.48472428 -0.4865114 -0.7268763 
-0.4627428 0.5501664 -0.69511586 
-0.6555598 0.5831779 -0.47973418 
-0.30149445 0.6696987 -0.67867875 
0.34951937 0.10830928 -0.9306478 
0.24747807 -0.1529624 -0.95674306 
0.02449527 0.010470445 -0.9996452 
-0.0844056 -0.23907144 -0.96732646 
-0.15002441 -0.33439258 -0.9304162 
-0.27013126 -0.3969597 -0.8771843 
-0.49567175 -0.26857814 -0.82593906 
-0.71024966 0.37607998 -0.5950709 
-0.84617585 0.18402582 -0.50012094 
-0.16342321 0.7821586 -0.60126597 
-0.0855879 -0.46449372 -0.8814308 
0.2791713 -0.7415174 -0.6100946 
-0.008429513 -0.552979 -0.8331526 
-0.17172657 -0.3226916 -0.93079543 
0.28906733 -0.42125207 -0.85964346 
0.19447021 -0.17616923 -0.96495897 
-0.45586485 -0.23470987 -0.8585444 
-0.5064645 0.6499999 -0.56656325 
0.0233005 0.8603996 -0.5090871 
0.37599328 0.20161629 -0.9044224 
0.18174799 -0.19897377 -0.9630043 
0.7635182 -0.48532757 -0.42602476 
-0.11060277 -0.56911445 -0.8147858 
-0.7090095 0.21024542 -0.67312884 
-0.2608276 0.34378532 -0.902098 
-0.27483162 -0.7232735 -0.6335165 
-0.42296183 -0.4083189 -0.8089371 
-0.34437615 -0.52303815 -0.77963847 
-0.3207356 -0.5973064 -0.73508763 
-0.51730293 0.22409032 -0.82594275 
-0.025355972 -0.0046108183 -0.9996679 
-0.442873 -0.006753807 -0.8965589 
-0.28031415 0.11727308 -0.9527177 
-0.29689112 0.25201175 -0.92105687 
0.53073287 -0.259157 -0.80694515 
0.3478898 -0.30883864 -0.885207 
0.59284705 -0.5337207 -0.6030545 
0.22699888 0.2200403 -0.9487117 
-0.3935755 -0.788578 -0.47248626 
-0.5095021 -0.47366637 -0.7183647 
0.5702824 -0.17877883 -0.80175817 
-0.08531944 -0.38171923 -0.920332 
0.2163693 -0.39335492 -0.8935638 
-0.25435743 -0.12964846 -0.9583807 
-0.1947393 -0.6924953 -0.6946416 
-0.59007007 -0.6689331 -0.4520464 
-0.57524735 -0.25694075 -0.7765771 
-0.38370222 -0.22637303 -0.895281 
0.15610258 -0.10837138 -0.9817778 
-0.18028745 -0.030756257 -0.9831331 
-0.19669287 0.031662244 -0.97995377 
0.3768692 -0.27696055 -0.88389057 
-0.2565928 -0.31768626 -0.91281736 
-0.005629832 0.17566845 -0.98443335 
0.49480587 0.17614463 -0.8509644 
0.31733108 -0.42980728 -0.8453205 
0.20916347 -0.8368833 -0.50584275 
0.35708624 -0.11361572 -0.92713594 
0.17361909 -0.04806043 -0.9836395 
0.015702328 -0.33030865 -0.9437424 
-0.18869145 -0.5712333 -0.79880416 
-0.15126458 -0.19505127 -0.96905833 
-0.06841498 -0.5390145 -0.83951336 
-0.061018843 -0.73434323 -0.6760301 
0.070534445 -0.008230504 -0.9974754 
0.07112579 0.14696673 -0.98658097 
0.118513845 0.17023182 -0.97825134 
-0.42663446 0.24269044 -0.87125456 
-0.18459707 -0.0076142116 -0.9827848 
-0.7745119 -0.25111142 -0.58058107 
-0.4165245 -0.72772175 -0.5449113 
-0.7225584 -0.21286644 -0.65772134 
-0.65913415 -0.3272226 -0.6771024 
-0.52959 -0.3856815 -0.75550264 
-0.479073 -0.30765316 -0.822094 
-0.15367311 -0.4508104 -0.87929213 
0.08373797 -0.2537854 -0.9636291 
-0.2521075 -0.88199985 -0.39814332 
0.017774494 -0.6031281 -0.7974464 
-0.12817937 -0.5153961 -0.84731156 
-0.20725879 -0.86708504 -0.45299822 
-0.8343855 -0.24208848 -0.4951709 
-0.35054362 -0.27563545 -0.8950666 
0.09555571 -0.09959417 -0.9904293 
0.27511856 0.716655 -0.6408708 
0.23689008 0.40921053 -0.8811526 
0.263347 0.5536836 -0.7899893 
-0.12534547 0.13876824 -0.9823604 
-0.21436697 0.12689866 -0.96847486 
-0.12587312 -0.2591011 -0.957613 
0.70452535 0.21293728 -0.67697984 
0.8197484 -0.045389205 -0.5709223 
0.49299827 -0.10360605 -0.8638395 
-0.86257577 -0.40830722 -0.2987445 
-0.1761108 0.09825781 -0.97945416 
-0.30320954 0.21520022 -0.92830646 
-0.7573863 0.16478133 -0.63183326 
-0.7291023 0.16400948 -0.66446275 
-0.30101168 -0.5335416 -0.7903956 
0.24943312 -0.57025796 -0.78268063 
-0.37716365 -0.31910336 -0.8694371 
-0.26804483 0.46003693 -0.8464739 
0.05513393 0.0020468787 -0.9984769 
0.18137518 -0.66082746 -0.7282926 
0.21485136 -0.08873432 -0.97260743 
0.44270462 0.04278251 -0.8956463 
0.2747365 -0.52523124 -0.8053894 
-0.54518676 -0.5061686 -0.6682551 
-0.4101401 0.1786871 -0.89434683 
-0.5191721 0.44116196 -0.7320085 
-0.3725783 -0.46758863 -0.80158985 
-0.25355616 -0.17656302 -0.95107037 
-0.39966723 -0.59047306 -0.7011474 
-0.1550897 0.01658589 -0.9877612 
-0.47231802 0.3126952 -0.8240979 
0.19197994 -0.5203669 -0.832083 
0.11981744 0.096007034 -0.98814297 
0.41160002 -0.88871944 -0.20189868 
0.40166336 -0.9107407 0.09601053 
0.20025918 -0.65118504 -0.7320208 
0.033962637 -0.31969383 -0.94691205 
-0.24305724 0.44536677 -0.86172605 
-0.22261104 0.6739903 -0.70440155 
-0.13095315 -0.31820944 -0.9389324 
-0.10045579 0.02378551 -0.99465716 
-0.07794903 -0.118159726 -0.98993045 
0.32627064 0.07832028 -0.9420262 
0.29610005 -0.30799785 -0.9041362 
-0.18378928 -0.5074896 -0.8418289 
0.17501125 -0.14518397 -0.9738032 
0.47858375 -0.5444409 -0.68886983 
0.81086797 0.11291664 -0.57423264 
0.75970405 -0.55672526 -0.33601624 
-0.01566026 -0.9026968 -0.42999235 
0.56788266 -0.602004 -0.5613381 
0.14637978 -0.7688684 -0.62242615 
-0.0018020767 -0.5343137 -0.8452844 
0.21598914 -0.413668 -0.88443625 
0.5115251 0.4402814 -0.7378987 
0.28949174 0.18995951 -0.9381417 
0.7025171 0.66633314 -0.2499399 
0.8615242 0.21970919 -0.45771593 
0.6869894 0.66081125 -0.30228165 
0.24016243 0.75680524 -0.6079211 
0.6589622 0.37880132 -0.6498295 
0.37096903 0.3682437 -0.85251313 
0.1906685 0.46341747 -0.8653843 
-0.38207793 -0.6072916 -0.6965726 
0.1999815 -0.8659685 -0.45837322 
-0.0775358 -0.5681815 -0.81924236 
-0.5047707 -0.18829596 -0.84246737 
-0.13128781 0.45876873 -0.87880313 
-0.6410188 -0.4620057 -0.6128994 
-0.40643287 -0.3333052 -0.8507173 
-0.58683217 -0.2315978 -0.7758804 
-0.15974072 -0.52344537 -0.83695155 
-0.20102774 -0.6904031 -0.69493276 
0.06830022 -0.103831746 -0.992247 
-0.34525236 -0.16596174 -0.92371947 
0.26751485 0.08214956 -0.96004546 
-0.16221909 0.12590839 -0.97868896 
0.5067239 0.052469198 -0.86051035 
0.19032246 -0.118776694 -0.9745099 
0.353179 0.18808822 -0.9164538 
0.08504164 0.4511359 -0.8883943 
-0.46932238 0.48218733 -0.73975134 
-0.49060625 0.0474108 -0.8700907 