# OOMMF: rectangular mesh v1.0
# Segment count: 1
# Begin: Segment
# Begin: Header
# Desc: Time (s) :  7.90000000000002e-07
# Title: m
# meshtype: rectangular
# meshunit: m
# xbase: 2e-09
# ybase: 2e-09
# zbase: 5e-10
# xstepsize: 4e-09
# ystepsize: 4e-09
# zstepsize: 1e-09
# xmin: 0
# ymin: 0
# zmin: 0
# xmax: 1.024e-06
# ymax: 1.024e-06
# zmax: 1e-09
# xnodes: 256
# ynodes: 256
# znodes: 1
# ValueRangeMinMag: 1e-08
# ValueRangeMaxMag: 1
# valueunit: 
# valuemultiplier: 1
# End: Header
# Begin: Data Text
-0.44285336 -0.36638382 -0.81831765 
-0.035204016 -0.86487 -0.5007602 
0.5530938 -0.4009022 -0.7303182 
0.44006062 0.09344437 -0.8930928 
-0.7046068 -0.5640553 -0.43054736 
-0.7232215 -0.4390837 0.5330632 
-0.5448552 -0.7489393 0.3771244 
0.8109268 -0.56381303 -0.15656532 
0.25328168 -0.50863427 -0.822885 
0.10312573 -0.3078854 -0.945818 
0.7539398 -0.34147015 -0.5612246 
0.5354703 -0.7158753 -0.4481005 
0.19847634 -0.6796971 -0.70612967 
-0.37439474 -0.9005577 -0.22096285 
-0.16748722 -0.8738173 0.45649913 
-0.3841974 -0.8646757 0.32361743 
-0.6623903 -0.74027824 0.115010284 
-0.124144375 -0.29003093 0.94893116 
0.5740939 -0.33100477 -0.7489006 
0.6794214 0.02697887 -0.7332522 
0.22417793 0.3536473 -0.9081178 
0.5097382 -0.6589837 -0.55308896 
0.5435517 -0.82595694 -0.14948837 
-0.5109105 -0.24123451 -0.82509184 
-0.21008247 -0.5429439 -0.8130667 
0.7066751 -0.6863432 -0.17188178 
0.7721002 -0.46403667 -0.4342019 
-0.16405468 -0.65888363 -0.7341379 
0.11978649 -0.8558898 -0.5030943 
0.63568085 -0.5732957 -0.5169545 
0.49905908 -0.336864 -0.7984126 
0.40151137 -0.023167135 -0.91556096 
0.56538165 -0.23268759 -0.7913281 
0.39242232 -0.9166027 0.076448545 
-0.58625484 -0.8065231 -0.076327585 
-0.5649522 -0.65618557 0.50024956 
-0.3443007 -0.8797853 -0.32777262 
-0.15871827 -0.8075716 -0.5680113 
0.49944642 -0.56372625 -0.6578495 
0.5520043 -0.15297252 -0.81968945 
0.8333342 -0.23141289 -0.5019983 
0.4836042 -0.6496037 -0.5866362 
0.20766567 -0.41209894 -0.88715816 
0.31326953 -0.7190276 -0.6203721 
-0.29696563 -0.86115 -0.41259205 
0.008120721 -0.9892038 -0.14632137 
0.17137371 -0.8227323 0.54198027 
0.38267565 -0.6350977 -0.6709771 
-0.5468641 -0.6359483 0.54452693 
0.05207981 -0.90194094 -0.42870787 
-0.17357442 -0.97960585 -0.10121485 
-0.8266947 -0.54448885 -0.14180212 
-0.4430027 -0.14394702 -0.88488865 
0.143751 -0.60653925 -0.78195006 
0.53416586 -0.83725065 -0.116953835 
0.4305046 -0.90071374 -0.058143105 
-0.21158959 -0.88114905 -0.42285478 
-0.622104 -0.512855 -0.5915797 
0.3570775 -0.4675952 -0.80861026 
-0.21609268 -0.25469613 -0.94256777 
-0.2665182 -0.31264523 -0.91171324 
0.42640415 -0.5762005 -0.69726074 
-0.079286836 -0.42729712 -0.90062803 
0.45888534 0.02801019 -0.88805395 
0.20646277 0.10539013 -0.97276205 
0.599947 0.12937778 -0.7895093 
0.9126304 -0.03771515 -0.40704226 
-0.071311705 -0.33585948 -0.9392088 
0.16333261 -0.7015607 -0.6936391 
0.053849585 -0.5643224 -0.8237964 
0.13236345 -0.0747759 -0.98837674 
-0.28916094 0.012743291 -0.9571957 
-0.3262149 0.57315195 -0.75171846 
0.4910659 0.0029036216 -0.8711176 
0.9784221 -0.20643729 -0.008605343 
0.4293262 -0.7859803 -0.44487518 
0.37871978 0.1564379 -0.9121944 
0.12417993 -0.67747116 -0.72499114 
-0.55536616 -0.30406818 0.7740227 
-0.32280558 -0.36578593 -0.87292457 
0.1278938 -0.46626675 -0.87535053 
-0.23614523 -0.55810696 -0.7954571 
-0.11949745 -0.36550373 -0.9231075 
-0.2176181 -0.37586203 -0.9007608 
-0.293489 -0.93328416 -0.2069901 
0.44673213 -0.6709875 -0.5917823 
0.1089286 -0.51633275 -0.8494323 
0.089343645 -0.49605647 -0.86368155 
-0.66097957 -0.106472 -0.7428121 
-0.5351575 -0.42155406 -0.73205096 
-0.18104404 -0.359054 -0.9155891 
-0.80861664 -0.1990151 -0.5536535 
0.4924144 0.06888249 -0.8676308 
0.44968376 -0.016686779 -0.893032 
-0.34287077 -0.6191341 -0.706479 
-0.6814697 -0.51000834 -0.5248721 
0.1558217 -0.96754944 -0.19891685 
-0.25617835 -0.8265371 -0.5012079 
0.49251693 -0.41106674 -0.7671059 
-0.13263673 -0.61203605 -0.7796277 
0.7373692 -0.66455936 -0.12102771 
0.85326695 -0.51782763 -0.061564356 
0.57423663 -0.7872757 -0.22460946 
-0.558113 -0.813148 -0.16522792 
-0.81074375 -0.5646658 -0.15442565 
-0.2115413 -0.9092983 -0.35836706 
0.6201044 -0.71893066 -0.31402132 
0.37191305 -0.43529263 -0.81987876 
-0.1831164 -0.20204963 -0.96210414 
0.30301586 -0.93309534 -0.19368708 
0.03538537 -0.8353955 -0.54850906 
-0.20970814 -0.62663096 -0.75057065 
-0.15112197 0.10765166 -0.9826359 
-0.3056091 0.15323736 -0.9397454 
-0.36952257 -0.15468033 -0.91625714 
0.55810577 -0.17894486 -0.81024486 
0.8091283 -0.35478148 -0.46844593 
0.5474921 -0.7927231 -0.26803467 
-0.21783742 -0.8386152 -0.49927098 
0.0795446 -0.99465966 -0.06576507 
-0.64205647 -0.6279452 -0.43982783 
-0.69312286 -0.30003315 -0.655409 
-0.007625466 -0.2890563 -0.9572817 
-0.43663248 -0.44667622 -0.7809177 
-0.5005433 0.04879572 -0.8643353 
-0.10134987 -0.17786689 -0.9788216 
-0.68908435 0.15339692 -0.70826 
-0.7762248 0.32606313 -0.53959066 
-0.43390578 0.638675 -0.63546836 
-0.20380147 -0.5817488 -0.78742194 
-0.66546476 -0.6336783 -0.39447257 
0.31920362 -0.20726709 -0.9247429 
-0.024971673 0.3575798 -0.9335487 
0.1561107 -0.724663 -0.67118776 
0.095887735 -0.98218983 -0.16158162 
0.6077249 -0.590357 -0.5311771 
0.23273966 -0.6780565 0.69718844 
-0.62272775 -0.76769197 -0.15119292 
-0.9454582 -0.27561742 -0.17362 
-0.3287914 -0.71727896 -0.6143347 
-0.5657824 -0.3892095 -0.72691566 
-0.69634223 -0.7088863 -0.11219477 
-0.26174012 -0.79273444 -0.55051273 
-0.3040457 -0.36178473 -0.88128775 
-0.8068992 -0.1493506 -0.5714964 
0.6905122 0.009744082 -0.72325516 
0.10058739 0.11137216 -0.98867506 
0.7447517 -0.53313494 -0.40138778 
0.97233456 -0.033558942 0.2311694 
0.6193052 -0.5624261 -0.5478485 
0.7194145 -0.6701894 -0.18245304 
0.7688248 -0.5906727 0.24497828 
-0.3825329 -0.91134804 0.15203087 
-0.39356118 -0.87289834 -0.2883716 
0.5131544 -0.81357336 -0.27344286 
0.16839801 -0.67626584 -0.71715176 
0.585049 -0.25934225 -0.7684135 
0.5544612 -0.12878245 -0.82218486 
-0.72871053 -0.26851135 -0.6299862 
-0.6868443 -0.21942635 -0.69289035 
-0.48470628 -0.61740464 -0.61957353 
-0.17934498 -0.86883867 -0.46147037 
-0.5019039 -0.40754408 -0.76288944 
-0.5331268 -0.32111743 -0.7827257 
-0.76878226 -0.6168525 -0.168721 
-0.70408046 -0.69135225 -0.16218145 
0.21686652 -0.9354744 0.27902785 
0.47285408 -0.8577558 -0.20165345 
0.53509104 -0.69666994 -0.47783753 
-0.09083758 -0.99515384 -0.037647408 
0.17925563 -0.91553503 0.3600877 
0.09119563 -0.99110395 -0.09693501 
0.3219127 -0.348424 -0.8803255 
0.09221974 -0.80502754 -0.5860257 
0.17616193 -0.6181213 -0.7660895 
0.64684373 0.21645975 -0.73125815 
0.016142648 -0.38186935 -0.9240754 
0.11049056 -0.81252295 -0.57236207 
-0.29335296 -0.40733972 -0.8648806 
0.11036231 -0.49059463 -0.86437094 
-0.074043326 -0.53399014 -0.8422424 
0.24909516 -0.2943395 -0.9226678 
-0.059327796 -0.5851693 -0.8087381 
0.24227244 -0.5514097 -0.7982804 
-0.47509882 -0.8747492 -0.095367365 
-0.7227629 -0.45606342 -0.51924944 
-0.4376012 -0.5680588 -0.6970039 
0.28428715 -0.9302825 -0.23185225 
0.84387535 -0.52160627 -0.12570308 
0.72656816 -0.658463 0.19627847 
0.5779852 -0.80575186 -0.1292169 
0.947444 -0.30372146 -0.10051448 
0.26959115 -0.9624373 0.03217428 
0.55205464 -0.61927664 -0.5583299 
0.2503555 -0.57436204 -0.7793783 
0.15172115 -0.63300675 -0.75913316 
0.7546261 -0.42597422 -0.4990845 
0.21509394 0.136916 -0.9669481 
0.4744016 0.18112536 -0.8614737 
0.815113 -0.36717847 -0.44807467 
-0.17066726 -0.8568944 -0.48642042 
0.61167836 -0.51363343 -0.6016896 
-0.061377563 -0.91419154 -0.40060803 
0.36537665 -0.7653908 -0.5297894 
0.6007634 -0.723324 -0.34042016 
0.74966615 -0.5797854 -0.31913888 
0.40528432 -0.77262634 -0.48866475 
-0.4950576 -0.8688283 -0.007447977 
-0.4697752 -0.5018122 -0.72628915 
-0.32403222 -0.7375913 -0.5924207 
-0.0050837523 -0.8125586 -0.5828574 
0.22002354 -0.88920814 -0.4011217 
0.48465738 -0.5255321 -0.69923055 
0.770942 -0.21545333 -0.5993566 
-0.048003577 -0.8018445 -0.59560156 
0.22686042 -0.8111991 -0.53897154 
0.47496715 -0.4825656 -0.7358918 
0.36063424 -0.3993591 -0.8428852 
0.52870286 -0.45758227 -0.7149068 
0.1771987 -0.48022002 -0.8590631 
-0.11994136 -0.70173466 -0.70226955 
-0.10605413 -0.22262105 -0.96911937 
-0.26976052 0.05868098 -0.9611378 
-0.8661547 0.3802961 -0.32427 
-0.023694234 0.05578521 -0.9981617 
0.7985588 -0.42797893 -0.4232471 
0.3065153 -0.7420509 -0.59616184 
0.0732956 -0.3430243 -0.9364625 
-0.086981766 -0.7868945 -0.61092645 
0.40109766 -0.67467946 -0.61961955 
0.21191801 -0.9617177 -0.17375208 
-0.77307343 -0.50758934 -0.38040867 
-0.39881957 -0.5498202 -0.73392147 
-0.54818445 -0.508098 -0.664327 
0.072940186 -0.3567258 -0.9313574 
-0.3812991 -0.89881295 -0.21620888 
-0.8679703 -0.44836 -0.21354365 
-0.30680895 -0.95026714 0.05348502 
0.167733 -0.47023743 -0.866454 
0.8859591 -0.040004794 -0.46203485 
0.4918855 -0.29188275 -0.8202762 
0.9053557 -0.35220653 -0.23723775 
0.5444071 -0.83748984 -0.0472396 
-0.6432657 -0.6367737 -0.4251219 
-0.4710404 -0.54209125 -0.6958866 
-0.32556197 -0.3280557 -0.8867857 
-0.5969945 0.2601953 -0.7588782 
0.006089313 -0.45180783 -0.8920946 
-0.06586847 -0.38458315 -0.92073727 
0.113211304 -0.385607 -0.9156913 
-0.9145071 -0.4008074 -0.055047877 
-0.5961517 -0.72090936 -0.35340187 
-0.3779653 -0.50900406 -0.77334154 
-0.028491208 -0.0043216413 -0.99958473 
0.17929643 0.64037156 -0.74684477 
0.45961013 0.8190451 0.34340012 
0.16808712 -0.22130655 -0.96060926 
-0.010064385 -0.03716413 -0.9992585 
-0.32652327 -0.7827366 -0.529817 
-0.70907503 -0.41856822 -0.5674621 
-0.6440892 -0.76189125 0.06834303 
-0.19023015 -0.981139 -0.03433447 
-0.12117684 -0.60648644 -0.7858056 
0.21227454 -0.6185922 -0.756494 
0.010763104 -0.5505325 -0.83474433 
-0.24890004 -0.21635236 -0.9440553 
0.50882643 0.30494794 -0.80504805 
0.80249316 -0.5124655 -0.3055876 
0.58220255 -0.8117402 0.0460232 
0.69113547 -0.5411905 -0.47900388 
0.4063045 -0.91347116 0.022073003 
-0.061991863 -0.95946956 -0.2749094 
0.5788852 -0.16843896 -0.79782224 
0.0761617 -0.5558532 -0.8277841 
0.18397799 -0.2965136 -0.9371402 
0.012318977 -0.14707096 -0.9890493 
0.7830082 -0.15605237 -0.6021178 
0.65858865 -0.5581004 -0.50476235 
0.45510995 -0.57289857 -0.68166137 
-0.12714231 0.32854998 -0.93588984 
-0.20871904 -0.7940195 -0.5709374 
0.28492123 -0.8160801 -0.50282526 
0.7218754 -0.14808762 -0.6759926 
0.6778871 -0.73509705 -0.010072656 
0.5666955 -0.45115927 -0.6894285 
-0.57202643 -0.7923172 -0.21217762 
-0.25974327 0.32301098 -0.91005355 
-0.16727497 0.18847686 -0.96772707 
0.42448494 0.05511724 -0.90375584 
0.6770429 -0.69804734 -0.23311539 
0.31170928 -0.9139325 0.25993234 
-0.3113836 -0.8860234 -0.34351534 
-0.07581383 -0.4259094 -0.90158385 
-0.11364418 -0.097808294 -0.98869544 
0.41395617 -0.012384124 -0.91021264 
0.2725834 -0.3914237 -0.8789118 
0.12812388 -0.30363545 -0.9441344 
0.14490837 -0.39845005 -0.9056706 
0.85912746 -0.17020692 -0.4826278 
0.47227034 -0.33527815 -0.8151989 
-0.106530786 -0.49129066 -0.8644563 
0.19514938 -0.78012097 -0.5944141 
-0.27271575 -0.9205166 -0.2797773 
-0.22089398 -0.69322824 -0.6860325 
-0.12414361 -0.85533863 -0.50297546 
-0.26485512 -0.85092384 -0.45363036 
-0.5149639 -0.50003743 -0.69625777 
-0.65311736 0.16174503 -0.7397813 
0.2266829 -0.33537683 -0.91440547 
0.40790394 -0.32528841 -0.85311306 
0.95935506 -0.17636874 -0.22029968 
0.71206295 -0.4085406 -0.57101756 
0.031252857 -0.57048565 -0.82071275 
-0.26785767 -0.85850954 -0.4372798 
-0.19457151 -0.43915477 -0.877089 
-0.09862569 -0.23567756 -0.9668139 
0.024865314 -0.40592867 -0.9135665 
0.46381757 0.026339484 -0.8855391 
0.34683278 -0.34568757 -0.87189865 
0.005546502 -0.027859258 -0.99959654 
0.13060756 -0.44222385 -0.8873443 
0.094451964 -0.77953714 -0.61919355 
-0.47374204 -0.52567303 -0.7065667 
-0.40738094 -0.18694675 -0.8939193 
-0.0007216328 0.043925222 -0.9990346 
-0.3434314 0.055118673 -0.93755895 
0.20602083 -0.38147828 -0.901127 
-0.45341814 0.20360737 -0.86773044 
-0.12349532 0.23712532 -0.9635978 
0.29911944 -0.15248911 -0.94195265 
0.18804248 0.18984517 -0.96363837 
0.0972084 -0.19447216 -0.97607946 
0.70529705 -0.42390892 -0.5682055 
0.17705038 -0.87390745 -0.45270178 
-0.21939999 -0.8901003 -0.3994811 
-0.2104653 -0.90717345 -0.36433625 
-0.55484056 -0.5032755 -0.6624695 
0.0030837588 -0.54850805 -0.8361396 
0.46923712 -0.47142366 -0.74671036 
-0.27244085 -0.84425366 -0.46153224 
-0.4816168 -0.53751564 -0.69218665 
0.46926704 -0.79653776 -0.3812036 
0.23800072 -0.5850413 -0.7752951 
0.5543469 -0.7678019 -0.32121602 
0.033846557 -0.95844275 -0.28327 
-0.10337628 -0.4954973 -0.86243606 
-0.18986884 -0.4233812 -0.88583195 
-0.39158812 -0.3323404 -0.858026 
0.23272797 -0.5545477 -0.79894584 
0.37548682 -0.3246948 -0.8680916 
0.044038042 -0.93548673 -0.350607 
-0.01098457 -0.47520053 -0.879809 
0.2227565 -0.38038412 -0.897601 
0.36522162 -0.84277064 -0.39541242 
0.13800481 -0.8316122 -0.5379365 
0.10366448 -0.18264668 -0.97769827 
0.19063853 -0.8078883 -0.55764985 
0.022302363 -0.7284076 -0.68478096 
-0.16024329 -0.69166416 -0.7042179 
-0.68908453 -0.6797 -0.25133723 
-0.42626566 -0.4002533 -0.81123054 
-0.015593032 -0.3273579 -0.9447718 
0.39241436 -0.2495141 -0.8852987 
0.41837472 -0.5163041 -0.7472568 
-0.008732446 -0.502172 -0.8647237 
0.65877014 -0.7365915 -0.15315028 
-0.2769631 -0.37504742 -0.88466436 
-0.3183652 -0.17256713 -0.93212885 
-0.31238928 0.23163453 -0.9212808 
0.058771484 0.6277958 -0.7761561 
-0.19379123 0.38203773 -0.9035995 
0.14123034 -0.51497626 -0.84549016 
0.508077 -0.24876226 -0.82460606 
0.5430968 -0.7929251 0.27625299 
0.11590759 -0.9663679 -0.22956167 
0.54852146 -0.6680978 0.5027619 
-0.2955606 -0.947159 -0.124634616 
-0.6356122 -0.42358193 -0.6454267 
-0.18860647 0.46430683 -0.8653594 
-0.8128136 -0.16652855 -0.5582136 
-0.4733025 -0.40783352 -0.78080505 
0.10975941 -0.48816958 -0.86581945 
-0.14919336 0.36648616 -0.918384 
-0.38258377 0.56996256 -0.7271674 
-0.0032091322 0.6057471 -0.7956508 
-0.18196112 -0.15587273 -0.97087276 
-0.4409592 -0.6978808 -0.56437343 
-0.7513484 -0.21731094 -0.6230985 
-0.25446647 0.2334562 -0.9384802 
0.339426 -0.5714308 -0.74716586 
0.7511467 -0.62228036 0.22033116 
0.27295735 -0.8311596 0.4844257 
0.42930862 -0.89952224 0.080954984 
-0.1979836 -0.35234743 0.9146878 
-0.9676411 -0.15379512 -0.20004454 
-0.83932 0.15382794 -0.5214201 
-0.23584288 -0.3813389 -0.89384496 
0.08417685 -0.65797645 0.74831903 
0.36148393 -0.47613856 -0.80163676 
0.28095934 -0.42453498 -0.860716 
-0.16899295 -0.80161 -0.57346565 
-0.1188731 -0.53084403 -0.839091 
0.48996514 -0.36707208 -0.7906911 
0.51655424 -0.63871676 -0.5702742 
0.59103364 -0.7740155 -0.22711097 
0.5455193 -0.714899 -0.43741095 
-0.6504167 -0.75273967 -0.1016913 
0.15877357 -0.7164848 -0.67929417 
-0.26442397 -0.81602615 -0.5139858 
-0.5733712 -0.603476 -0.5541321 
-0.1782554 -0.5639618 -0.80633247 
0.3597009 -0.23528011 -0.9029167 
0.20432505 0.7639457 -0.6120771 
0.41384688 0.38160676 -0.8265029 
-0.065329105 0.34998488 -0.9344745 
-0.30280316 -0.5469685 -0.7804715 
-0.15610166 -0.38889676 -0.9079602 
0.09446016 -0.9197338 -0.38100818 
-0.4066974 -0.52664787 -0.74648464 
-0.73159736 -0.26281977 -0.62903994 
-0.8313314 -0.14361751 -0.53690046 
-0.654381 -0.6493965 -0.3873884 
0.19416988 -0.7593713 -0.6210101 
-0.1198108 -0.7581998 -0.64092 
-0.005473035 -0.7951911 -0.60633427 
-0.42992634 -0.7331423 -0.5269401 
0.19352785 -0.94444954 -0.2656354 
0.45854515 -0.8508828 -0.25638804 
0.2719372 -0.87855035 -0.39268222 
0.4937448 -0.35367188 -0.7944384 
-0.19786543 -0.11486772 -0.9734756 
-0.043130867 -0.7242195 -0.68821937 
0.074382685 -0.45589978 -0.88691753 
-0.31985322 -0.39379004 -0.8617561 
-0.79780984 0.043716464 -0.6013221 
-0.4698241 -0.3795826 -0.7969833 
0.62934786 0.27327284 -0.72749114 
0.007941579 -0.6162267 -0.7875289 
-0.21895555 -0.9681362 -0.12153514 
-0.23061721 -0.5947444 -0.77012646 
-0.13122325 -0.7228053 -0.6784785 
-0.7184833 -0.5497805 -0.42605552 
0.17582676 -0.92395335 -0.33969858 
0.13866715 -0.43069327 -0.89178175 
0.83804244 -0.29792023 -0.45708713 
0.7257402 -0.62483203 -0.28789967 
0.55159044 -0.6587748 -0.5116285 
0.41209394 -0.8840553 -0.22051084 
0.43976438 -0.8468252 0.29915604 
0.43119633 -0.721317 -0.54200697 
-0.08393708 -0.60514593 -0.79167736 
0.27676758 -0.7537334 -0.59605855 
0.27510205 -0.27635446 -0.9208405 
0.2566506 0.044745874 -0.96546793 
0.34005493 -0.12094533 -0.93259585 
0.26024112 -0.7368316 -0.6239822 
-0.27380997 -0.87728256 -0.39421242 
-0.53494555 -0.25449488 -0.8056461 
0.15656224 -0.7818004 -0.6035531 
0.46210375 0.044335086 -0.885717 
0.24626566 -0.59204787 -0.76735425 
0.6239866 0.012047897 -0.78134215 
-0.22350995 0.33647153 -0.9147843 
-0.23828518 -0.5198892 -0.8203265 
-0.56110305 -0.17851034 -0.8082683 
-0.013543975 -0.88323474 -0.4687356 
-0.25664774 -0.9153795 -0.3101812 
0.4424916 -0.57964545 -0.68426055 
0.54663426 -0.4850212 -0.6826019 
0.3434923 0.077847175 -0.9359235 
0.21364306 -0.31136042 -0.92596513 
0.60373324 -0.5493836 -0.57765377 
0.63712317 -0.13044032 -0.7596444 
0.7118396 0.028310826 -0.70177126 
0.96015036 -0.047634073 -0.2753948 
0.76028275 -0.11433643 -0.6394509 
-0.04551124 -0.15461816 -0.9869255 
-0.28416774 -0.17357303 -0.9429322 
-0.80438316 -0.16028759 -0.5720802 
-0.22602372 -0.53272843 -0.815545 
-0.39644852 0.019188438 -0.91785645 
-0.08075786 0.3109916 -0.94697547 
0.4106295 -0.78415316 -0.46528178 
0.2996248 -0.47270274 -0.82872015 
-0.29192302 -0.39557847 -0.8708035 
0.42033374 -0.11795806 -0.89966965 
0.18326898 -0.24314187 -0.9525201 
-0.8031165 0.08707811 -0.5894246 
0.10359971 -0.12827784 -0.9863123 
0.45607728 -0.33870167 -0.8229671 
0.21192487 -0.6484131 -0.7311965 
-0.1297325 -0.7752702 -0.61816305 
0.20557462 -0.8162625 -0.5398654 
-0.2458864 -0.7499074 -0.61414886 
0.77381605 0.0555018 -0.63097423 
0.844533 -0.5072857 -0.1715378 
0.5534077 -0.44785798 -0.7022557 
0.64615947 -0.002475006 -0.7631984 
0.06849845 -0.59278834 -0.80244 
0.061939925 -0.080570325 -0.99482256 
-0.15773137 -0.69133246 -0.70511013 
-0.3230521 -0.4944182 -0.8069623 
-0.057561263 -0.68195325 -0.7291273 
0.5840165 -0.073979944 -0.80836374 
-0.14356223 -0.15846562 -0.97687185 
-0.2087361 0.24478379 -0.9468422 
-0.5319899 0.27089542 -0.8022485 
-0.047784787 -0.6347581 -0.77123195 
-0.052130204 -0.47244224 -0.8798187 
0.81556594 -0.17596439 -0.55126107 
0.44565326 -0.19138676 -0.8745081 
-0.012557626 0.97425526 0.22509773 
0.039932266 -0.64235175 -0.76536906 
-0.33431873 -0.1504338 -0.93037665 
-0.3477133 -0.4431987 -0.82623875 
-0.52652 -0.6829609 -0.5063014 
-0.38193965 -0.7060577 -0.59632593 
-0.08230215 -0.5478268 -0.8325336 
-0.6044351 -0.16904543 -0.77851266 
0.00577218 -0.24005227 -0.9707428 
-0.072722964 -0.041958865 -0.99646926 
0.43250135 -0.236865 -0.8699642 
0.11937682 0.25722262 -0.9589504 
0.5338827 0.15291739 -0.8316162 
-0.1128294 -0.6242055 -0.77307 
-0.22201875 -0.9078205 -0.35576648 
-0.21962468 -0.7833501 -0.58148736 
-0.16790678 -0.6997094 -0.6944164 
0.5101525 0.26601776 -0.81791145 
0.7144458 -0.21097296 -0.6671265 
0.22266607 -0.6534449 -0.72348434 
0.31728742 0.05560793 -0.94669765 
0.5752117 -0.76276547 0.2955002 
0.15368661 -0.9459372 -0.2856276 
-0.16137233 -0.2617077 -0.95156085 
-0.44599655 -0.20819908 -0.87048286 
-0.20028122 -0.7154445 -0.669348 
0.7791201 -0.13453898 -0.6122673 
0.7914021 -0.17040253 -0.5870654 
0.18286349 -0.6961402 -0.6942261 
0.97232854 0.02524891 -0.23224914 
-0.019943673 -0.881559 -0.47165242 
-0.5260603 -0.74076504 -0.41776532 
-0.6757616 -0.086084545 -0.7320764 
-0.14686173 0.04959461 -0.98791295 
0.005411907 -0.99813527 -0.060802158 
0.3028255 -0.51725817 -0.8004629 
-0.19695997 -0.75048655 -0.6308541 
-0.48740506 -0.17035268 -0.85639733 
-0.25435606 0.22702235 -0.94008714 
0.097492635 0.1063575 -0.9895369 
0.08864692 -0.18650262 -0.978447 
0.1968569 0.2782408 -0.9401221 
0.3041573 0.057365198 -0.9508931 
0.41000864 -0.5476521 -0.72936285 
0.03917088 -0.36062485 -0.93188804 
-0.7420534 -0.41790414 -0.52413076 
-0.25840765 -0.36840758 -0.8930294 
-0.042918973 -0.09506051 -0.99454594 
0.11274331 0.4405239 -0.89063334 
0.20729594 -0.031317458 -0.97777694 
-0.48036745 -0.32858643 -0.81319004 
-0.55310696 -0.747641 -0.36756715 
-0.74774617 -0.3541917 -0.56162614 
-0.61805975 -0.058828596 -0.7839269 
0.039302852 0.01271943 -0.99914646 
0.33320713 -0.6195609 -0.7107161 
0.5225177 0.5492812 -0.65212387 
0.2372116 -0.31072775 -0.92042327 
-0.4956739 0.08053703 -0.8647666 
-0.3943498 -0.404974 -0.8249147 
-0.036569487 0.21320991 -0.9763218 
0.3126043 -0.063575506 -0.9477535 
0.526937 -0.12525529 -0.840624 
0.33269712 0.09146732 -0.9385875 
-0.1847743 0.27268013 -0.9441949 
0.06063372 -0.52768487 -0.8472735 
-0.20128296 -0.6825233 -0.70260024 
-0.85774505 0.2476485 -0.45049283 
-0.46967784 -0.31501034 -0.824725 
-0.561075 -0.039338768 -0.8268297 
-0.49605995 -0.06881978 -0.8655568 
-0.43299183 0.031228961 -0.9008567 
-0.3414926 -0.046003602 -0.93875796 
-0.9755619 0.06280063 -0.21055907 
-0.3615485 -0.6142762 -0.70138973 
0.6235468 -0.09974963 -0.77539635 
0.6955861 0.25016832 -0.6734804 
0.39314377 0.015004005 -0.9193546 
-0.042974718 -0.40167695 -0.9147726 
-0.7279139 -0.0259316 -0.685178 
-0.29207987 -0.94484276 -0.14819436 
-0.76762384 -0.37817672 -0.5174322 
-0.031137353 0.1274699 -0.99135363 
0.43849686 -0.26200977 -0.8596927 
0.4051077 -0.59224194 -0.69651794 
0.55277807 -0.48681077 -0.67635185 
0.21440105 -0.7334369 -0.6450602 
-0.20430633 -0.43518814 -0.8768525 
0.56069916 0.14463913 -0.81528896 
-0.1942146 -0.5757646 -0.794214 
-0.25712913 -0.68726206 -0.6793788 
0.36784747 -0.16632684 -0.91489 
-0.24198459 -0.9343006 -0.2617745 
-0.17905134 -0.54488117 -0.8191734 
-0.1369555 -0.94004506 -0.3123436 
-0.13972637 -0.8157661 -0.5612507 
0.17274089 -0.6503198 -0.7397599 
0.14796658 -0.6815394 -0.7166659 
0.101003334 -0.6757417 -0.730186 
0.36509255 -0.53484917 -0.76199996 
0.46350226 -0.39092705 -0.7951991 
0.13778767 -0.7286963 -0.6708326 
-0.108341046 -0.50585526 -0.8557879 
-0.67965907 -0.49241087 -0.5436867 
-0.69370675 -0.49511087 -0.5231026 
-0.45658562 -0.4279121 -0.78001344 
0.34878147 0.5212199 -0.7788976 
0.4825287 -0.14139333 -0.8643922 
0.0055534723 -0.71407884 -0.7000433 
-0.45874637 -0.38724586 -0.7997453 
-0.022138417 -0.76350343 -0.64542425 
-0.61128706 -0.08005809 -0.7873492 
-0.30023524 0.42724133 -0.85283273 
0.007883684 0.22500458 -0.9743259 
-0.36764514 -0.095592335 -0.9250401 
-0.6636564 -0.118103065 -0.73865545 
0.3065336 -0.23885374 -0.9214044 
0.90403813 -0.13864599 -0.40434211 
0.71395063 -0.6871177 -0.13469905 
0.6485216 -0.48806068 -0.5841374 
0.4075738 -0.82319003 -0.3952742 
-0.28915745 -0.8958804 -0.33732253 
-0.70298064 -0.2663845 -0.6594373 
0.14895862 0.31198794 -0.9383363 
-0.64121467 -0.4360426 -0.63143545 
-0.57434916 -0.14512767 -0.80564326 
-0.43918228 -0.46839094 -0.76663476 
-0.277748 0.15097828 -0.94871575 
-0.098236956 -0.40323746 -0.90980715 
-0.5963805 -0.015190444 -0.80255824 
-0.34934363 -0.09260924 -0.9324069 
-0.26596463 0.226258 -0.93705404 
-0.48061192 0.03826893 -0.876098 
-0.71498597 -0.07858062 -0.6947087 
-0.124305844 -0.7394678 -0.66161585 
-0.2787179 -0.7086343 -0.64819276 
0.55415463 -0.7994857 0.23180865 
0.45784637 -0.8510432 0.2571034 
-0.47741956 -0.7820408 0.4006033 
-0.4283858 -0.7648362 -0.48115617 
-0.33610487 -0.1975615 -0.9208708 
-0.6281025 0.45378646 -0.6321116 
-0.194638 -0.7605586 -0.6194083 
-0.5255346 0.25049907 -0.8130583 
-0.8085869 0.17997395 -0.5601757 
0.2765822 -0.41474554 -0.86688435 
-0.14383408 -0.8078652 -0.5715468 
-0.0847726 -0.47759536 -0.87448066 
0.05367669 -0.85429394 -0.5170113 
-0.3482268 -0.48119593 -0.8044803 
0.1872549 -0.54628277 -0.8164012 
0.40948746 -0.5956083 -0.6910651 
-0.07801445 -0.9223869 -0.37830698 
0.2764905 -0.49523753 -0.82358545 
0.127075 -0.2672093 -0.95522314 
0.19276987 -0.44511294 -0.8744794 
-0.23291562 -0.07702227 -0.96944207 
-0.37537125 -0.050595574 -0.9254927 
0.16717029 0.72875714 -0.66405356 
0.39729297 -0.25727546 -0.88089025 
-0.08536487 -0.17352912 -0.9811221 
0.056277756 -0.011107693 -0.99835336 
-0.5253553 -0.40966415 -0.7457729 
-0.48686466 0.092662334 -0.86854845 
0.06370932 -0.33987433 -0.93831056 
-0.6696128 -0.44944212 -0.59128726 
-0.29251456 -0.9040054 -0.31178454 
0.29728064 -0.91904616 -0.25880212 
0.69529104 -0.014942064 -0.71857303 
-0.12122571 -0.61727226 -0.7773541 
-0.27802214 -0.19324622 -0.9409355 
0.0012861177 -0.6887645 -0.72498405 
0.21103686 -0.41197464 -0.88642 
0.16786893 -0.32716125 -0.9299385 
0.51044995 -0.07904059 -0.8562672 
-0.59559685 0.16042557 -0.7871011 
0.17319827 -0.653201 -0.7371098 
0.40797827 0.40378615 -0.81884706 
-0.34406826 -0.18280987 -0.9209765 
-0.6765842 -0.4646316 -0.57127184 
-0.94707435 -0.20845498 -0.24412428 
0.38026094 0.78568983 -0.48794797 
0.52480465 -0.4539604 -0.7200696 
-0.039498076 -0.961464 -0.272079 
0.39899006 -0.20155855 -0.89452845 
0.111805506 -0.52060187 -0.84644747 
-0.104074955 -0.010877976 -0.99451005 
0.02586885 -0.23152356 -0.97248536 
-0.004370756 -0.45177928 -0.8921191 
0.41944346 -0.2548152 -0.87128437 
0.51450735 -0.5691076 -0.64140385 
0.57003 -0.63844234 -0.5171628 
-0.17441466 -0.75044006 -0.6375102 
0.28092942 -0.92406726 -0.25918818 
-0.28586861 -0.7674816 -0.5738041 
-0.0817204 -0.8733875 -0.4801209 
-0.580572 -0.5699299 -0.58147746 
0.19052456 -0.32242656 -0.9272225 
0.47452748 -0.0011894464 -0.8802399 
0.42114854 0.58599174 -0.6922771 
0.2998799 -0.105064586 -0.9481738 
-0.12118191 -0.074820794 -0.9898065 
0.09867324 0.2717838 -0.95728636 
-0.20197605 0.08344633 -0.9758292 
0.4533234 -0.093390144 -0.8864403 
0.43465605 -0.30155116 -0.8486113 
-0.25893664 0.072210714 -0.96319133 
0.3554512 0.37058005 -0.8580938 
-0.05675602 0.103512265 -0.99300754 
0.32736486 -0.3343997 -0.8837472 
0.68325084 -0.66079545 -0.31067282 
0.4183579 -0.6558115 -0.62840116 
0.34915385 -0.83834416 -0.41865364 
-0.25355145 -0.24886456 -0.93476105 
0.30754957 0.0015565052 -0.9515308 
0.5782537 -0.24859922 -0.7770593 
0.80790466 -0.22311234 -0.5454456 
0.38634583 0.16267022 -0.90789616 
0.85469574 -0.39757 -0.33381614 
0.59162045 0.06295302 -0.80375504 
0.30621064 0.042199705 -0.951028 
0.13892785 0.2858976 -0.94813585 
-0.18539436 -0.40844676 -0.8937563 
-0.44621474 -0.59342986 -0.6698757 
-0.6365639 -0.5024788 -0.58506536 
-0.83794236 0.22592035 -0.49680236 
-0.6582808 0.6145594 -0.43472198 
-0.0741464 -0.3079883 -0.9484965 
-0.45555153 -0.5549732 -0.6960443 
0.38475758 -0.26070356 -0.88543516 
0.28541282 0.3573843 -0.88927835 
0.3296583 -0.15008457 -0.9320945 
-0.134881 -0.513976 -0.84713393 
0.040590998 -0.81934506 -0.57186186 
-0.6060422 -0.5797706 -0.5445907 
0.10228595 -0.3999649 -0.91080505 
0.34411937 -0.6003169 -0.72194296 
0.6355676 -0.4263407 -0.64365166 
0.5447648 -0.26934743 -0.79415584 
0.5363061 0.4635509 -0.70533425 
0.32033485 0.73212194 -0.6011515 
-0.092646316 -0.07911838 -0.9925508 
0.053898953 -0.47249547 -0.87968343 
-0.85687155 -0.037356697 -0.5141747 
-0.01564192 0.3609689 -0.9324467 
-0.23304129 0.63386655 -0.7374991 
0.16990477 -0.696383 -0.6972683 
-0.29819575 -0.73324656 -0.6110882 
0.69680417 0.1489918 -0.70161635 
0.012976266 0.17609404 -0.9842879 
-0.44484943 -0.0050750147 -0.89559096 
0.24419111 0.37788174 -0.89307123 
0.29396558 0.20580249 -0.9333969 
0.40750924 -0.13250138 -0.90353733 
0.4988181 0.40310425 -0.76725984 
0.102923356 0.042360418 -0.99378693 
0.9299015 -0.3320128 -0.15827456 
-0.056817397 -0.85478693 -0.5158598 
0.13358077 -0.69743735 -0.7040862 
0.19824451 -0.8270194 -0.5260591 
0.0053626434 -0.88527966 -0.46502838 
-0.28312358 -0.24321793 -0.9277317 
0.106585085 -0.74725527 -0.6559339 
0.16855544 -0.39475158 -0.9031945 
0.30338037 -0.4683043 -0.82985026 
0.4367133 -0.30118114 -0.847686 
0.053624112 0.5046479 -0.86165833 
0.1070627 0.37592745 -0.9204434 
-0.04433632 -0.28216013 -0.9583424 
0.05404663 -0.4149545 -0.90823555 
-0.03294389 -0.6570123 -0.75315976 
0.5208688 -0.7932525 -0.315351 
-0.12155583 -0.9670608 -0.22364628 
0.4633978 -0.69403017 -0.5509851 
-0.013691912 -0.5608751 -0.8277873 
0.692745 -0.36194 -0.623782 
0.118723 -0.86642647 -0.48498455 
0.23983063 -0.82787836 -0.5070492 
0.5365993 -0.5197977 -0.6647343 
0.53363883 0.06981453 -0.84282595 
0.25113127 0.5124116 -0.8211989 
-0.09802985 -0.24158546 -0.96541524 
0.46112144 -0.6943741 -0.55245966 
0.12794754 -0.25547197 -0.9583129 
0.2777596 -0.82744026 -0.48804936 
0.7374353 -0.6509504 -0.18014678 
0.6351211 -0.21226273 -0.74267477 
-0.41074416 -0.84826624 -0.33426613 
-0.45845458 -0.21066965 -0.86338735 
-0.18231495 -0.28510416 -0.94099784 
-0.762681 -0.4630809 -0.4515239 
0.588534 -0.6864122 -0.42716047 
-0.15757743 -0.84195673 -0.51602167 
-0.16973865 -0.8813163 -0.44098788 
-0.830874 -0.5116825 -0.21869922 
-0.076139055 -0.4157168 -0.9063015 
0.48756653 0.22975118 -0.84231436 
-0.03372359 -0.086131774 -0.9957128 
-0.037589226 -0.71465033 -0.6984713 
-0.13907853 -0.50128853 -0.8540299 
-0.30335793 -0.192286 -0.9332739 
-0.6897866 -0.3245403 -0.6472002 
-0.49384457 -0.48879746 -0.71916246 
0.12724812 0.0661601 -0.98966193 
0.5026966 -0.12260813 -0.85572386 
-0.25323156 0.32308468 -0.9118608 
-0.26809773 0.049762167 -0.96210575 
-0.0012146183 -0.5289556 -0.8486487 
-0.29698375 0.2516766 -0.9211187 
0.19819146 -0.31618804 -0.92776364 
-0.03195088 -0.0445508 -0.99849606 
0.42874146 -0.30854154 -0.8491072 
-0.14780642 0.33769715 -0.92957735 
-0.44483376 0.30942035 -0.8404654 
0.12866206 -0.082384266 -0.98826057 
0.19154109 -0.23970532 -0.95176333 
-0.2746581 -0.18227878 -0.94410676 
0.17383502 -0.4055068 -0.8974105 
0.46854374 -0.5229287 -0.71204805 
0.54981655 0.4573652 -0.6989413 
0.1871194 0.26297215 -0.946484 
0.019388469 0.33132014 -0.9433192 
-0.58663523 -0.35684454 -0.72699463 
-0.20234548 0.11334242 -0.97273326 
-0.4354667 0.133026 -0.89032173 
-0.85699344 0.19961765 -0.4750949 
-0.6416413 -0.24273814 -0.7275814 
-0.6321443 -0.42030612 -0.6509504 