# OOMMF: rectangular mesh v1.0
# Segment count: 1
# Begin: Segment
# Begin: Header
# Desc: Time (s) :  7.93000000000002e-07
# Title: m
# meshtype: rectangular
# meshunit: m
# xbase: 2e-09
# ybase: 2e-09
# zbase: 5e-10
# xstepsize: 4e-09
# ystepsize: 4e-09
# zstepsize: 1e-09
# xmin: 0
# ymin: 0
# zmin: 0
# xmax: 1.024e-06
# ymax: 1.024e-06
# zmax: 1e-09
# xnodes: 256
# ynodes: 256
# znodes: 1
# ValueRangeMinMag: 1e-08
# ValueRangeMaxMag: 1
# valueunit: 
# valuemultiplier: 1
# End: Header
# Begin: Data Text
-0.42813575 -0.86868477 0.24917193 
-0.17618075 -0.5009716 -0.84734166 
-0.77984124 -0.16770838 -0.6030934 
-0.09627979 -0.5687755 -0.8168383 
-0.6544787 -0.2934551 -0.6968083 
-0.09996937 -0.11881364 -0.98787117 
-0.3797696 -0.26008725 -0.88776666 
-0.6602669 -0.74723744 0.07539144 
-0.36852998 -0.683451 0.63014317 
0.27499297 0.07030907 -0.95887196 
-0.1915647 0.33125895 -0.92388886 
0.70941436 0.3521016 -0.61053723 
0.8198707 -0.5690795 0.062933885 
0.047266737 -0.50505567 -0.86179155 
0.19664869 -0.575432 -0.79385597 
0.08786668 -0.019393899 -0.9959435 
-0.22330698 0.09052767 -0.9705353 
0.2542549 -0.4530716 -0.85444754 
0.14231466 -0.83835566 -0.52621895 
0.51425743 0.15558052 -0.8434063 
-0.006439479 -0.56112564 -0.8277056 
-0.47371894 -0.79824454 -0.37201643 
-0.09900602 -0.4759216 -0.8738973 
0.90251464 -0.27148804 -0.3343078 
0.5191092 -0.5976339 -0.61103153 
-0.13285005 -0.017847368 -0.99097544 
-0.47600397 0.035390798 -0.8787308 
-0.22685793 -0.6728226 -0.70416284 
-0.60526764 -0.5757905 -0.54965115 
-0.23201287 -0.8741062 -0.4267417 
-0.1175968 -0.8983224 0.4233059 
-0.10885119 -0.9881523 -0.10819691 
-0.328468 -0.9154171 -0.23263817 
-0.2282115 -0.9736116 5.8182322e-05 
0.2861111 -0.8735514 -0.39376193 
-0.26851532 -0.4278998 -0.8630188 
-0.23094885 -0.90851504 -0.34822842 
-0.047074314 -0.09493662 -0.99436975 
0.47030875 -0.30838504 -0.8268666 
0.04629643 -0.40021732 -0.9152502 
0.25388423 -0.45218942 -0.8550249 
0.39505172 -0.68375 -0.6135309 
0.7318709 0.26668146 -0.6270934 
0.9740893 0.22409949 0.030489277 
0.80531836 0.091743805 -0.58570087 
0.78228956 0.024382947 -0.6224376 
0.6262924 -0.26375246 -0.733616 
0.31276295 -0.16735789 -0.934971 
0.596602 -0.44148776 -0.67019 
0.47869426 -0.8729326 -0.0940244 
0.41238314 -0.9106239 -0.026536522 
0.4238936 -0.03280955 -0.9051175 
-0.42384106 -0.60733235 -0.6719422 
0.1280529 -0.9546901 -0.26864338 
-0.42687407 -0.8511727 -0.30542397 
0.6201131 -0.35194585 -0.70113766 
0.64085007 -0.36810645 -0.67365336 
0.20096995 -0.8476811 -0.49096626 
0.039144684 -0.69686 -0.7161381 
0.18367808 -0.48414242 -0.8554932 
0.5752331 -0.4225068 -0.70042485 
0.4312721 -0.05067991 -0.9007975 
0.7086959 -0.10174749 -0.6981387 
0.29095137 -0.47639304 -0.82969695 
0.07163553 -0.121759266 -0.9899712 
0.029930951 0.08841835 -0.99563366 
-0.33805013 0.71408427 -0.61302996 
0.12727392 -0.257581 -0.95783794 
-0.42904544 -0.8240244 -0.37000534 
0.14669073 -0.670692 -0.727086 
0.06695111 -0.6155215 -0.7852713 
0.4683103 -0.83648497 -0.28456688 
0.069528155 -0.55044425 -0.83197176 
-0.12769777 -0.7791609 -0.6136789 
-0.087870575 -0.5061066 -0.8579831 
0.054383982 -0.8843312 -0.4636817 
-0.2421105 -0.8015088 -0.54677796 
0.13823113 -0.77835345 -0.6124199 
-0.05265599 -0.73150533 -0.67979956 
-0.062354416 -0.2996119 -0.95202136 
0.46227133 0.1312049 -0.8769781 
0.677441 0.18286616 -0.7124842 
0.53493524 -0.77613026 -0.33386558 
0.29544288 -0.77894455 -0.55313563 
0.09377245 -0.5260037 -0.8452969 
0.16607882 -0.8849319 -0.4351015 
0.19666125 -0.54378796 -0.8158549 
0.814119 -0.55131656 -0.1823745 
0.2172521 -0.6935932 0.68682605 
-0.39479592 -0.5026339 -0.76908743 
0.25142318 -0.78271353 -0.5693383 
0.7585482 -0.576262 -0.3041823 
-0.124890044 -0.84399 -0.5216163 
-0.82430786 -0.5642658 -0.046050124 
-0.43878284 -0.48654097 -0.75547826 
-0.5457437 0.46187237 -0.6991694 
-0.15851265 -0.4419079 -0.8829446 
0.57141966 -0.36966974 -0.73268265 
0.51948047 -0.40381467 -0.75304306 
-0.033261567 0.22530968 -0.97371924 
0.09555694 -0.49856213 -0.86157113 
0.11260906 -0.22156218 -0.9686225 
-0.08844081 -0.27083993 -0.95855314 
-0.5659829 -0.7712167 -0.29135573 
-0.35006565 -0.33500364 -0.87477237 
0.24181701 -0.80151355 -0.54690087 
0.024040528 -0.23593126 -0.9714724 
-0.33364412 -0.48542032 -0.80811435 
0.050847348 -0.93224806 -0.35822907 
0.30094057 -0.94901186 -0.09386915 
0.06455727 -0.6804861 -0.7299117 
0.018141668 -0.78003883 -0.625468 
0.099474244 -0.32825524 -0.9393367 
0.124610804 -0.2800309 -0.95186913 
-0.26208964 -0.08438796 -0.9613469 
0.30169123 -0.006304981 -0.9533849 
-0.3996178 0.077447504 -0.91340435 
-0.35788327 0.054027915 -0.9322021 
-0.05699987 -0.58843195 -0.80653507 
-0.09265386 -0.71020913 -0.697867 
0.40274838 -0.3998389 -0.82336056 
-0.041845843 -0.770665 -0.6358652 
0.34358948 -0.36292607 -0.8661588 
-0.35762432 -0.046372846 -0.93271357 
0.27980158 0.57968295 -0.7652965 
0.15105695 0.35585755 -0.9222512 
-0.23752187 0.35624722 -0.90369874 
-0.42943788 0.29496598 -0.85356796 
-0.19908842 -0.08324743 -0.9764393 
0.18435916 0.42621532 -0.8856367 
-0.12165566 -0.051910836 -0.991214 
-0.011991319 -0.16146809 -0.9868051 
0.15490991 -0.19897954 -0.96768284 
0.77364755 -0.5101521 -0.37578493 
0.75414324 -0.47289202 -0.45567644 
0.6764699 0.066263564 -0.73348325 
0.087154314 -0.56255144 -0.8221557 
-0.077676155 0.037149187 -0.99628633 
0.31853494 0.46666032 -0.8250841 
0.81124085 0.020235904 -0.58436203 
0.39806303 -0.91677934 -0.032583255 
0.5210576 -0.75420004 -0.39960146 
0.6838912 -0.7291602 0.024866385 
0.9803942 -0.19241017 -0.04249263 
0.4503095 -0.11737098 -0.8851246 
0.041091513 -0.76696664 -0.64037 
0.25841448 -0.6291675 -0.7330555 
-0.12579209 -0.48838872 -0.863512 
0.6166652 -0.31838328 -0.7199696 
0.43053988 -0.4044667 -0.80687195 
0.052076638 -0.04800018 -0.99748886 
0.12204221 -0.78401446 -0.60862726 
0.14076047 -0.1787582 -0.9737721 
0.084379934 -0.15146895 -0.9848539 
-0.028124845 -0.42901877 -0.9028577 
-0.026135975 -0.87809455 -0.47777274 
-0.21607468 -0.93590546 0.2781957 
0.23693207 -0.80645937 0.5417438 
-0.7878275 -0.60057515 0.13651882 
-0.38338885 -0.84164655 0.38032085 
0.12330329 -0.9725082 0.19754529 
-0.36265635 -0.9199684 -0.14879026 
-0.19901085 -0.2855747 -0.9374657 
-0.16324072 -0.034424704 -0.9859855 
0.20946535 0.41172075 -0.8869106 
0.3774975 -0.5608137 -0.7368742 
-0.19557342 0.026139291 -0.9803407 
-0.027432052 -0.5873854 -0.80884236 
0.5371468 -0.08528266 -0.8391664 
0.26426768 0.14828803 -0.95298135 
-0.08740266 -0.92117894 -0.37919673 
-0.07619802 -0.64712226 -0.7585688 
0.15919839 -0.4749377 -0.86549985 
0.17731863 -0.57085127 -0.80167764 
-0.41119286 -0.84791845 -0.3345964 
0.5271038 -0.53081495 -0.6636242 
0.6907938 -0.21854739 -0.6892322 
0.70717615 -0.3104095 -0.63525426 
0.040261872 -0.2890167 -0.95647705 
-0.090338975 -0.38591674 -0.9180997 
0.002474704 -0.16033283 -0.98706 
0.56789 -0.11003034 -0.8157171 
-0.42804626 -0.5482663 -0.7184571 
-0.28926927 -0.84808505 -0.4439312 
-0.023926316 -0.6329547 -0.77381915 
0.4121411 -0.6793993 -0.6070884 
0.5847715 -0.7521991 -0.3037084 
0.28947958 -0.16395709 -0.9430375 
0.8035298 -0.035773996 -0.5941887 
-0.071595974 0.46275324 -0.88359135 
0.1291963 -0.76192486 -0.63464874 
0.19809732 -0.5477452 -0.8128547 
0.27619126 -0.7503689 -0.6005539 
0.21196464 -0.40360203 -0.89004296 
0.2631583 -0.53507435 -0.8027723 
-0.8357053 -0.38516128 0.39146823 
-0.27452493 -0.35862002 -0.8922039 
-0.20215517 -0.028867688 -0.97892797 
0.0120347915 -0.6511544 -0.7588498 
-0.023997484 -0.17072025 -0.9850273 
0.91118217 0.01963251 -0.4115358 
-0.17684355 -0.52346796 -0.83349127 
-0.019866003 -0.87905 -0.47631547 
0.12645856 -0.95652294 0.2628157 
0.33600372 -0.91154706 -0.23703073 
0.22807693 -0.8765347 -0.42387235 
0.41016144 -0.33181685 -0.8495088 
0.36512506 0.60159117 -0.71047294 
0.53750324 0.29061404 -0.791602 
0.28117257 -0.53612477 -0.7959349 
0.14648938 0.04680021 -0.9881046 
-0.0851213 -0.13865234 -0.98667616 
0.3386077 -0.5875439 -0.7349402 
0.9738679 -0.012630587 -0.22676419 
0.6908307 -0.7193819 -0.07240616 
-0.5768178 -0.63878185 -0.50915515 
-0.062051274 -0.8805799 -0.46981785 
-0.16693003 -0.6839945 -0.710131 
0.6854752 -0.7278735 0.017999139 
0.5660675 -0.3216281 -0.7590276 
0.09104086 -0.8774373 -0.47097287 
0.88175035 -0.10078068 -0.4608249 
-0.16291693 -0.56826746 -0.80655456 
-0.037480257 -0.93038934 -0.36465177 
-0.4680877 -0.87537664 -0.1208705 
-0.41720337 -0.504329 -0.7560381 
-0.272523 -0.5964075 -0.75500304 
-0.27621126 -0.14081003 -0.95072603 
0.7404836 0.34765097 -0.5751722 
0.7083106 0.034378685 -0.70506334 
0.41670275 -0.19220822 -0.88849026 
0.11495261 -0.20110631 -0.97280127 
0.5575012 -0.16217555 -0.8141815 
0.48475543 0.1455725 -0.86245054 
0.32663468 -0.9286286 -0.17595083 
-0.30390558 -0.48161662 -0.82200176 
-0.4195442 -0.7692949 -0.4818381 
0.5944741 -0.6009113 -0.5343279 
0.5508676 -0.80363595 -0.22519805 
0.76316416 -0.19386603 0.61643845 
0.7611063 0.037018925 0.6475701 
-0.23579374 0.3763833 0.8959559 
-0.2753725 -0.3546764 0.89351815 
-0.2756879 -0.42136294 0.863973 
-0.9796536 -0.1248216 0.15715712 
-0.6148249 0.325454 -0.71838015 
-0.59238094 0.093579926 -0.80020475 
-0.78193426 -0.30991796 -0.5408603 
-0.83135706 -0.46035665 -0.31131548 
-0.1395939 -0.89915496 -0.4147698 
0.44063982 -0.5139454 -0.7360005 
0.0034257006 -0.8678714 -0.49677703 
0.40126973 -0.7317366 -0.55094844 
0.5640574 -0.6892296 -0.4547548 
0.42742953 -0.88988143 0.159421 
0.09788849 -0.98016065 -0.17234547 
-0.2875241 -0.46702486 -0.83619237 
-0.2048439 -0.28260535 -0.93710893 
-0.3086605 0.049158853 -0.94990116 
-0.14190392 -0.53221536 -0.8346318 
-0.56344014 0.06692619 -0.8234416 
-0.14214608 -0.47184116 -0.8701497 
-0.7791723 0.04298672 -0.625334 
-0.3486666 -0.38248667 -0.8556492 
-0.4599286 -0.7179981 -0.52244097 
0.076525584 -0.10957722 -0.9910281 
0.047924522 -0.74069655 -0.6701283 
0.39757934 -0.68131167 -0.6146098 
0.113648295 -0.98578554 0.12373754 
-0.35540318 -0.82046646 -0.44779846 
0.35388967 0.15825965 -0.92180043 
-0.14838432 0.005384593 -0.9889152 
0.06358297 -0.051458105 -0.9966491 
0.7509019 -0.2671469 -0.6039692 
0.17519952 -0.6980595 -0.6942752 
-0.02336734 0.0042884774 -0.9997178 
0.22412477 -0.15443559 -0.9622462 
0.19167164 -0.6114717 -0.76770073 
0.4132281 -0.45722777 -0.78751856 
0.5533357 0.34765032 -0.75694054 
0.6528927 -0.62854844 -0.4226797 
0.31917888 -0.69495654 -0.6443293 
-0.07692953 -0.6511246 -0.7550621 
-0.14147133 -0.9799644 -0.14019936 
-0.8108909 -0.5659712 -0.14877048 
-0.73153365 -0.66448903 -0.15268575 
-0.31002402 -0.81984854 -0.48138708 
0.19949907 -0.97989625 -0.0018958154 
0.29806376 -0.88179225 0.3655139 
-0.17163964 -0.8884637 -0.42564335 
0.3481788 -0.6653595 -0.66035473 
-0.06579012 -0.33503112 -0.9399074 
-0.057402533 -0.6393402 -0.7667783 
0.25800025 -0.30065453 -0.9181736 
0.14682986 -0.52659124 -0.8373427 
0.026757233 -0.5253007 -0.85049593 
0.25661293 -0.299178 -0.9190443 
0.430301 -0.65266335 -0.62359565 
0.8029576 -0.053628553 -0.59361863 
0.34540692 -0.32501566 -0.8803744 
0.55364025 0.17528206 -0.81409997 
0.7362724 0.29378438 -0.6095849 
0.682586 -0.11796349 -0.72122186 
0.67104745 -0.11471888 -0.7324854 
0.3056346 -0.21871419 -0.9266886 
0.17392862 -0.53514105 -0.8266638 
0.67187274 -0.70744705 -0.21933033 
0.5020986 -0.01406029 -0.8646962 
-0.19262622 -0.045500323 -0.98021674 
0.385745 -0.09848789 -0.91733366 
-0.22463737 0.16686952 -0.96004826 
0.46241158 0.0072750472 -0.88663554 
0.597856 -0.34283173 -0.7245928 
0.7833761 -0.36767018 -0.50113934 
0.14595445 -0.79298514 -0.59149975 
0.442854 -0.3660038 -0.81848735 
0.21779315 0.08356291 -0.97241116 
0.25604227 0.01864948 -0.96648574 
0.12045615 0.32286945 -0.9387469 
0.47840774 0.2576759 -0.83948153 
0.66396564 -0.29337883 -0.68780714 
0.1891668 -0.5355219 -0.8230627 
-0.5839385 -0.3903635 -0.7117811 
0.13046396 0.35906333 -0.92414975 
-0.5018251 -0.015372068 -0.8648325 
0.433708 -0.26596797 -0.8609056 
-0.24020214 0.4441158 -0.8631709 
-0.42245388 -0.46029714 -0.7808069 
-0.8109402 -0.54507303 -0.2127706 
-0.7679322 -0.54096687 -0.34297964 
0.015349409 -0.28602538 -0.9580992 
0.038938284 -0.67862356 -0.73345345 
-0.13056117 0.0909531 -0.98725957 
-0.24326138 -0.1986224 -0.9494067 
0.1521654 -0.6139353 -0.7745509 
-0.21550073 -0.2752537 -0.9369072 
0.5039963 -0.44128016 -0.74246854 
0.45154962 -0.38124043 -0.80669624 
0.6785009 0.151529 -0.71880144 
0.5741297 0.30049607 -0.7616281 
0.8718777 -0.41223437 -0.26437137 
0.19805826 -0.9786859 0.054285403 
-0.8389663 -0.50968796 -0.19066717 
0.045615427 -0.9481002 -0.31468266 
-0.5648387 -0.8104631 -0.15526398 
-0.90097255 -0.11062798 -0.41953552 
0.2474274 -0.7297666 -0.63735425 
0.67153555 -0.27852547 -0.68663204 
-0.15673795 -0.6263765 -0.7636006 
-0.47850266 0.042389385 -0.8770623 
0.036196392 0.034751594 -0.9987404 
-0.09050184 0.17031528 -0.9812249 
0.24053077 -0.20123361 -0.9495525 
0.7105182 -0.10394468 -0.6959594 
0.3913051 0.15831752 -0.90654063 
0.7947446 -0.09029426 -0.60019 
0.58832705 0.23426345 -0.7739457 
0.50853634 -0.116619356 -0.85310656 
0.34438208 -0.5850201 -0.73427004 
-0.3319704 -0.759925 -0.55884683 
-0.4633957 -0.5992469 -0.6528151 
-0.042942256 -0.45410278 -0.88991386 
0.03854659 -0.14599249 -0.98853445 
-0.4260334 -0.30032352 -0.8534057 
0.13580726 -0.4943207 -0.85860556 
0.5429871 -0.66778475 -0.50914484 
0.19915475 -0.12673056 -0.97173905 
0.042997334 -0.52561915 -0.8496328 
-0.60182905 -0.22892825 -0.76511025 
-0.7262178 -0.38517463 -0.56942797 
0.30733228 0.037816525 -0.95085055 
-0.38779792 -0.32829633 -0.86129814 
-0.5559763 -0.25150517 -0.7922346 
-0.49453554 -0.2803594 -0.8226989 
0.11909998 -0.44576493 -0.88719153 
0.09775624 -0.37768197 -0.92076063 
-0.1636569 0.050041966 -0.9852473 
-0.33647174 -0.41322872 -0.8461848 
0.13964264 -0.42269173 -0.89545053 
0.9495108 0.034563944 -0.3118245 
0.65089756 0.06964688 -0.75596416 
0.21358365 -0.4966402 -0.8412672 
-0.0047578686 -0.21000731 -0.9776883 
0.17331156 0.4198111 -0.8909106 
-0.28943655 -0.21321622 -0.9331481 
-0.18860325 0.6631734 -0.7243135 
0.056971185 -0.18626189 -0.98084706 
-0.2163781 0.19264193 -0.95711523 
0.23554848 0.40771213 -0.88220614 
0.34762555 0.59135044 -0.72764087 
0.3612408 -0.06594947 -0.9301375 
0.23809648 0.44054964 -0.86557853 
0.41465157 0.113130204 -0.90292066 
-0.24714267 0.6309789 -0.73538166 
-0.3035402 0.1575156 -0.93970853 
0.64403003 0.21609521 -0.7338448 
0.75694364 -0.5676945 -0.32366535 
0.24612257 -0.88629484 -0.3923077 
0.4819815 -0.69033206 -0.5395698 
0.6988664 -0.7095806 0.08989538 
0.34605405 -0.19120258 -0.9185251 
0.35077107 -0.35524645 -0.8664639 
-0.37617218 -0.68983686 -0.6185626 
0.31025314 -0.68858224 -0.6554369 
0.06954845 -0.5777583 -0.8132394 
0.32383358 0.002315099 -0.9461113 
0.051924303 -0.23007233 -0.9717874 
-0.16105375 -0.18371877 -0.9696954 
-0.19714376 -0.7533703 -0.6273497 
-0.25528875 -0.7025416 -0.66427636 
0.5663412 -0.36752012 -0.73769003 
0.54664093 -0.8068106 0.22414364 
0.06577801 -0.99759823 -0.021705827 
-0.17652126 -0.9099673 0.37523314 
0.11848707 -0.9544901 -0.2736958 
-0.101587616 -0.8170607 -0.5675313 
-0.32947832 -0.8831469 -0.33390963 
-0.039348576 -0.92318827 -0.3823286 
0.108006485 -0.6870228 -0.71856415 
-0.23437907 -0.13576329 -0.96261877 
0.17227489 0.23501962 -0.9566019 
-0.19185771 -0.29232943 -0.93687475 
0.16480951 -0.111709364 -0.97997904 
0.20204465 -0.15144895 -0.9675956 
0.535074 -0.75149006 -0.38595134 
0.46831486 -0.6126583 -0.6366561 
-0.38883245 -0.62451315 -0.6773424 
-0.5067004 -0.70177764 -0.5007624 
0.032308195 -0.825966 -0.5627935 
-0.20960109 -0.46757105 -0.858746 
-0.3278808 -0.57098335 -0.7526435 
-0.0026978531 -0.7783056 -0.6278798 
0.5292644 -0.52644885 -0.6653802 
-0.03449325 -0.86514574 -0.500333 
-0.2670058 -0.7151894 -0.6459196 
-0.5591785 -0.5939338 -0.57841355 
-0.518123 -0.1877427 -0.8344467 
0.16826272 0.02961579 -0.9852972 
-0.12958556 -0.15691307 -0.979074 
0.17028698 -0.16443805 -0.97157735 
0.2178778 0.11139944 -0.9695976 
0.21797818 -0.59849596 -0.7709009 
0.69466394 -0.50238997 -0.5148265 
0.63843143 0.19624604 -0.74423975 
0.9565211 -0.29115584 0.017193584 
0.12837316 -0.6893446 -0.71296877 
0.41849262 -0.61714655 -0.6663289 
0.7609579 -0.24866533 -0.5992569 
0.3875013 -0.62953955 -0.67344105 
0.36292785 -0.39549106 -0.8437241 
0.12364898 -0.1902554 -0.97391677 
0.40793937 -0.77113336 -0.48881373 
0.3799065 -0.91782516 0.11518748 
-0.20230632 -0.92010665 -0.3353745 
-0.4174528 0.32185718 -0.8497889 
0.16022801 -0.59596974 -0.7868591 
0.6767626 -0.42683345 -0.5998381 
0.36155564 -0.7279091 -0.58260274 
0.24676575 -0.89073 -0.3817155 
0.1979523 -0.5356112 -0.8209358 
0.4056252 -0.6329256 -0.6594494 
0.19310789 -0.9015786 -0.38712475 
0.36602828 -0.45328656 -0.8127451 
0.88898766 0.3840693 -0.24938278 
0.6894273 0.23231913 -0.68608886 
0.6390643 0.42859563 -0.63867265 
-0.2488722 -0.117149636 -0.9614253 
-0.33236596 -0.1221687 -0.9352047 
0.090364575 0.22113068 -0.9710487 
0.6396023 -0.033117015 -0.76799226 
-0.023019064 -0.8747371 -0.48405084 
-0.73611933 -0.47816262 -0.47904998 
-0.199403 -0.21864417 -0.9552137 
0.47350663 0.2513089 -0.84417737 
-0.15781906 -0.15729873 -0.9748591 
0.28165567 -0.3261287 -0.90239143 
0.48401412 -0.42131674 -0.7669567 
0.68979126 -0.06786337 -0.7208208 
-0.13560636 -0.5553919 -0.82045764 
-0.20555842 -0.5215452 -0.8280921 
-0.3909073 -0.7353116 -0.553632 
-0.20338875 -0.5526796 -0.80819446 
-0.034520615 -0.31576747 -0.94820845 
0.094837986 -0.11682662 -0.98861384 
0.2798375 0.59103096 -0.75655365 
-0.10389056 0.4219155 -0.90066314 
0.21132004 0.10326948 -0.9719461 
0.32537538 0.6576832 -0.6793995 
0.3698967 -0.40193948 -0.8376283 
0.8011508 -0.4670143 -0.37423915 
-0.53807634 -0.36619943 -0.75919163 
0.10427543 -0.15557541 -0.982305 
0.023730371 -0.24319172 -0.969688 
0.43392086 -0.55798745 -0.70736325 
-0.3057462 -0.59458596 -0.7436308 
0.11905617 -0.29843813 -0.9469743 
0.3902207 -0.49509388 -0.77627957 
0.04493172 -0.9838319 -0.1733667 
-0.45240584 -0.8893454 0.06628628 
-0.40248775 -0.81520253 0.41647145 
-0.65308493 -0.75721455 -0.01031427 
-0.58452547 -0.14662182 -0.7980176 
-0.37396592 0.17228615 -0.91129965 
-0.35500348 -0.27739054 -0.89276373 
-0.14583799 -0.6406521 -0.7538542 
-0.3426487 -0.654971 -0.6735019 
-0.25236768 -0.54621273 -0.79872537 
0.0018128597 -0.574001 -0.81885254 
0.047051787 -0.90767294 -0.41703236 
0.08394908 -0.9259169 -0.36828026 
0.7273016 -0.5456636 -0.4162735 
0.6588141 -0.75061405 -0.050425593 
-0.2770684 -0.39291483 -0.87684155 
-0.28882286 -0.054415796 -0.95583487 
-0.22588709 -0.024038179 -0.9738569 
-0.21119112 0.16753396 -0.9629801 
0.1705011 -0.4126636 -0.89478385 
-0.15998003 0.1503897 -0.9755969 
-0.18587035 0.015867118 -0.9824462 
0.07302321 -0.24594215 -0.96652997 
-0.09150304 -0.36748913 -0.92551553 
-0.093637206 -0.44173837 -0.8922439 
0.32052702 -0.6402111 -0.6981348 
0.7683066 -0.24625288 -0.5908168 
-0.38793355 -0.59143907 -0.7068999 
-0.31053412 -0.76213914 -0.5680779 
-0.5632609 0.306086 -0.76749504 
-0.094817996 0.22685236 -0.96930265 
-0.43159696 -0.060244687 -0.90005267 
0.40275076 0.37396458 -0.8354295 
0.35791045 -0.18681721 -0.91487676 
0.3189626 0.23667333 -0.917741 
0.16596393 -0.26575708 -0.9496469 
-0.15777382 -0.7307131 -0.66420317 
-0.1503396 -0.70966524 -0.688312 
0.2971076 -0.28165722 -0.9123575 
0.3010828 -0.7978623 -0.522269 
-0.08102964 -0.47627416 -0.8755554 
-0.01432093 -0.47011274 -0.88249016 
-0.34166187 -0.52392495 -0.78023714 
-0.5587545 -0.6058113 -0.56637996 
-0.48749682 -0.2232088 -0.84411186 
0.16712968 0.0522061 -0.9845518 
-0.3325246 -0.3506042 -0.87550217 
0.26988614 -0.61863846 -0.73786724 
-0.23042347 -0.44862452 -0.8635052 
-0.17623492 -0.515987 -0.8382713 
-0.5230013 -0.42826402 -0.7369258 
-0.42738512 -0.21264029 -0.8787071 
-0.5415082 -0.060302492 -0.83853 
0.10364822 -0.48726726 -0.8670801 
0.16457438 0.08690884 -0.98252845 
0.18546897 0.13540192 -0.9732768 
0.64392924 0.30079702 -0.70347446 
0.8513626 -0.08227583 -0.51808536 
0.7462951 0.28098145 -0.60340136 
0.7452025 0.2229395 -0.62846744 
0.8270454 0.38202888 -0.41237116 
0.5944341 0.578275 -0.5587899 
0.2911967 -0.03944913 -0.9558495 
0.14386147 -0.13727851 -0.9800298 
0.14569332 -0.22936803 -0.9623741 
0.006747332 -0.7290269 -0.6844518 
-0.6044207 0.017135553 -0.796481 
-0.1268681 -0.32444823 -0.9373569 
0.29620165 -0.19065803 -0.9359029 
0.24607562 0.12322552 -0.9613856 
-0.45466682 -0.0013502486 -0.8906606 
0.020936023 -0.55746055 -0.82993954 
0.08946307 -0.61105794 -0.78651416 
0.023999972 -0.93486905 -0.35418049 
-0.19722567 -0.9319616 -0.30421996 
0.5395269 -0.48502713 -0.6882292 
0.6566053 0.055362012 -0.75219977 
-0.22730139 0.19760887 -0.9535643 
-0.03854905 0.5628722 -0.8256445 
0.3334914 -0.1613075 -0.92885065 
-0.53085005 0.48988912 -0.69152516 
-0.3252101 -0.27758056 -0.9039842 
-0.41559157 -0.3203957 -0.85125226 
-0.09848589 0.14852183 -0.98399276 
-0.45918918 0.071527295 -0.8854543 
-0.4971536 0.30130395 -0.81366724 
-0.89620763 -0.024116881 -0.44297898 
-0.43576223 -0.20960769 -0.87531483 
-0.5439873 -0.39545003 -0.74006563 
-0.18741243 -0.7095113 -0.6793161 
0.31851557 0.101087384 -0.9425123 
-0.099175066 -0.10270882 -0.9897551 
0.3322675 -0.5306727 -0.77973384 
0.33114052 -0.83335906 -0.4425593 
0.24967857 -0.52240443 -0.81532466 
0.5382069 -0.5650477 -0.6253435 
0.11561911 -0.9291799 -0.35107976 
-0.12799749 -0.8906306 -0.4363414 
0.108622745 0.11984748 -0.98683214 
0.22130014 -0.608231 -0.76228684 
0.32176653 -0.695297 -0.64267284 
-0.48824272 -0.7651004 -0.41981003 
-0.44016564 -0.5444772 -0.71400195 
0.0069907624 -0.859692 -0.51076514 
-0.6206036 -0.70624435 -0.3406907 
0.15538692 -0.6219362 -0.76749617 
0.4069144 -0.5192853 -0.7515075 
-0.12542261 0.19281219 -0.97318685 
0.2952885 -0.5581007 -0.7754537 
0.41973388 0.22554597 -0.8791773 
0.5032591 -0.4109827 -0.7601471 
0.35227343 -0.15236314 -0.9234116 
0.46383494 -0.62827957 -0.62459755 
0.3166643 0.1819015 -0.9309327 
0.90509206 0.079104416 -0.4177929 
0.728541 -0.31872675 -0.6063343 
0.38561326 -0.15382336 -0.9097477 
0.23858699 0.052130107 -0.96972096 
-0.16848364 -0.6637866 -0.72869796 
-0.6344826 -0.47222438 -0.6119118 
0.5365612 0.32124162 -0.78032434 
0.12588578 -0.04952225 -0.9908079 
0.22221047 -0.85836023 -0.46242863 
0.26645327 0.09250478 -0.95939857 
0.49482858 0.14322868 -0.85710573 
-0.22193779 0.46472403 -0.8571904 
0.32749373 0.21009101 -0.9212001 
-0.13944025 0.10535794 -0.98460966 
0.05430205 -0.5677918 -0.82137924 
0.4656378 -0.003375611 -0.884969 
-0.009681234 -0.39687547 -0.91782147 
-0.6871482 -0.42200163 -0.59138983 
-0.3538126 0.083903596 -0.9315455 
0.12875058 -0.109005064 -0.98566794 
0.13745756 -0.47843856 -0.86729586 
-0.5414873 -0.027431663 -0.8402614 
-0.14056335 -0.42066127 -0.8962623 
0.3461166 0.2451418 -0.9055986 
0.80018693 0.35532153 -0.48316395 
0.3490637 0.3089336 -0.88471156 
0.4907913 -0.656115 -0.5732687 
-0.25319368 -0.28684744 -0.92391104 
-0.4778635 0.6333921 -0.6086551 
-0.12043253 0.39363787 -0.9113426 
0.0026141594 0.8556421 -0.5175615 
-0.42185313 0.24145627 -0.8739215 
-0.09232847 -0.49053156 -0.8665185 
-0.088756375 -0.49325526 -0.8653448 
0.3420593 0.17971896 -0.9223322 
-0.0041536023 -0.35545152 -0.93468547 
-0.44286528 0.28291216 -0.85078263 
0.27893686 0.54441434 -0.7910799 
-0.044134982 0.52924633 -0.8473196 
0.17279603 -0.20677342 -0.96300894 
0.810117 -0.31670114 -0.49336684 
0.8829705 -0.38165846 -0.2733129 
0.16345982 -0.3994694 -0.90205604 
-0.15266192 -0.2748749 -0.94928306 
0.54047173 -0.27195218 -0.79619867 
0.6817181 0.4515177 -0.57566684 
0.20750894 0.0020477064 -0.9782311 
0.046462994 0.1768595 -0.9831388 
0.15184394 -0.03859909 -0.9876506 
0.008596648 -0.7039475 -0.7102 
0.27922964 0.06911865 -0.95773345 
0.45795146 -0.24149828 -0.8555461 
-0.6977112 -0.26736197 -0.6646177 
-0.32925546 -0.5019579 -0.7997682 
-0.1307158 -0.39780095 -0.9081122 
-0.09537453 -0.094231546 -0.9909714 
-0.18586531 -0.9533942 -0.23768419 
-0.30501845 -0.26812732 -0.9138225 
-0.18979952 -0.7262304 -0.66073114 
0.38419256 -0.43897024 -0.81222 
0.42717093 -0.31746495 -0.84660566 
-0.47228202 -0.45790923 -0.7531726 
-0.14507662 -0.4042302 -0.90307856 
-0.2841246 -0.008249792 -0.95875186 
0.17984638 -0.4818081 -0.85762256 
0.035270527 0.16160822 -0.98622453 
-0.5927852 0.056762103 -0.80335796 
-0.27487293 -0.37048176 -0.8872363 
0.086155154 -0.47557312 -0.8754471 
0.69440174 -0.5089024 -0.5087481 
0.42163384 0.008044849 -0.90673053 
-0.269751 -0.767745 -0.58120733 
0.075550474 -0.6173209 -0.7830754 
0.504508 -0.5030162 -0.7017454 
0.18572967 -0.8039505 -0.56494963 
0.50229377 -0.6923026 -0.51809084 
-0.34313196 -0.5220382 -0.7808564 
-0.7312502 -0.06437587 -0.6790647 
0.15051362 -0.32051206 -0.93521005 
-0.49095705 -0.28958374 -0.8216462 
-0.22783686 -0.30045605 -0.9261839 
0.008876451 0.0015700054 -0.99995947 
0.29006037 0.121893026 -0.949214 
0.29494473 0.48516873 -0.8231761 
-0.07632531 -0.23670849 -0.96857816 
0.49849993 -0.45264676 -0.73933 
0.12906861 -0.5418285 -0.83051986 
-0.25901356 -0.07900465 -0.9626371 
-0.054410595 -0.21215129 -0.97572094 
0.68201077 -0.50413257 -0.52982235 
0.72568864 -0.3589639 -0.5869591 
0.57234454 -0.7167756 -0.39831465 
0.96850276 0.051383093 -0.2436438 
0.854335 0.012633399 -0.5195691 
-0.0921274 -0.14525534 -0.9850956 
0.26209724 -0.08703291 -0.961109 
0.5044241 -0.5742261 -0.6448417 
0.6577289 -0.6145602 -0.4355554 
0.41525626 -0.72843957 -0.54492027 
0.13135073 -0.3517365 -0.9268379 
-0.1741328 0.060523193 -0.98286045 
0.059062526 -0.93844134 -0.34035197 
0.3886843 -0.5397068 -0.74675375 
0.34274638 -0.3827071 -0.8579396 
0.1982148 -0.70774406 -0.67809236 
0.16479735 0.38710952 -0.9071869 
-0.74804384 0.11645037 -0.65335274 
-0.07543951 -0.7552458 -0.65108585 
0.3817367 0.0022971039 -0.9242683 
0.8614425 -0.26839074 -0.4311417 
0.9725872 -0.00072518823 -0.23253727 
-0.21535727 -0.15038922 -0.96488565 
-0.75081885 0.26995787 -0.60282147 
-0.7449347 0.4708412 -0.47263193 
0.19250052 -0.10424855 -0.9757438 
0.23384582 0.15912382 -0.9591641 
0.41834038 -0.39935803 -0.8157846 
0.1891635 -0.045095526 -0.9809096 
0.19972385 -0.00988276 -0.9798024 
-0.11662408 0.043664496 -0.9922159 
-0.027994554 -0.118237816 -0.99259067 
-0.0009874112 0.5760934 -0.81738335 
0.13531622 -0.2270254 -0.9644424 
-0.056039743 -0.8034527 -0.5927254 
-0.4002087 -0.6599371 -0.63585865 
-0.7544829 -0.010500457 -0.65623564 
-0.14077066 -0.936521 -0.32111084 
-0.126735 -0.46177265 -0.8778976 
-0.18952341 -0.36430684 -0.9117903 
-0.33258373 -0.47359386 -0.8155348 
0.07811813 0.1713786 -0.9821034 
0.36691266 0.74624854 -0.55541724 
-0.26647702 0.7468667 -0.60924554 
0.35680225 0.2113621 -0.90995514 
0.4834358 -0.78357506 -0.3902563 
-0.7470393 -0.15922679 -0.6454295 
-0.2947651 -0.01724776 -0.9554141 
0.19630241 -0.02310601 -0.98027116 
0.045515638 0.4199275 -0.90641564 
0.5168878 -0.3088199 -0.7984092 
-0.12921965 -0.23803428 -0.9626225 
-0.2569514 -0.6725425 -0.69401914 
-0.27154937 -0.35340655 -0.8951899 
-0.8949644 -0.073839985 -0.43998468 
-0.5042485 -0.68407583 -0.52704245 
-0.70877314 -0.697994 0.10220161 
-0.61849225 -0.51581573 -0.59279126 
-0.038353305 -0.18341556 -0.98228705 
-0.2531683 0.028019978 -0.9670164 
-0.26490757 -0.34985197 -0.8985697 
0.17458986 -0.1799738 -0.9680537 
0.24072294 -0.5048336 -0.8289726 
0.30802953 -0.5728253 -0.759598 
-0.16207954 -0.085499085 -0.98306674 
-0.2195241 -0.3556679 -0.90846545 
0.2648796 -0.1271028 -0.955868 
0.590575 -0.682729 -0.43023524 
-0.10265114 -0.060911313 -0.9928508 
-0.03373771 0.42959276 -0.9023923 
-0.6922925 0.23325306 -0.6828794 
0.35933593 0.5138405 -0.77900296 
0.06380299 0.07787761 -0.9949193 
-0.18943036 -0.29687372 -0.93593925 
0.16235046 -0.06654603 -0.9844867 
-0.45718068 -0.45565656 -0.763782 
-0.252838 -0.6820457 -0.6862119 
0.5660266 -0.6932111 -0.44617525 
0.35417876 -0.42353666 -0.833771 
0.21077794 -0.5634668 -0.7987977 
0.19158 -0.66310656 -0.723593 
0.0411642 -0.2860427 -0.95733225 
0.0022122306 -0.91500926 -0.40342692 
-0.03247584 0.22427845 -0.9739839 
-0.18128455 0.3890766 -0.90319175 
0.3745941 -0.02535816 -0.92684215 
0.17912553 0.11579063 -0.97698855 
0.4937617 0.23501429 -0.8372382 
0.69632083 0.36672053 -0.6169712 
0.45819667 -0.24848193 -0.8534124 
0.40614855 -0.23610674 -0.882778 
0.033700056 -0.4931416 -0.8692961 
-0.56536156 -0.10942536 -0.8175527 
-0.80742687 -0.29719144 -0.5096461 
-0.44272783 0.089859255 -0.89214206 
-0.031873215 0.06022656 -0.9976758 
-0.3345793 0.21441768 -0.9176502 
-0.41478094 -0.19521445 -0.88873404 
0.16923839 -0.14768188 -0.9744477 
0.28065756 -0.017270057 -0.95965266 
0.36316988 -0.13018999 -0.92258245 
0.21618739 -0.19670321 -0.95633197 
0.20655774 -0.7345143 -0.64639217 
-0.624755 -0.31271282 -0.7154662 
-0.52533895 0.13324372 -0.84039575 
-0.2881524 -0.15951905 -0.94420445 
-0.34368554 -0.23927745 -0.9080895 
-0.10323827 -0.05716845 -0.9930125 
-0.20136945 -0.5977826 -0.7759551 
0.8299295 0.0038310585 -0.55785537 
0.5918334 -0.20529236 -0.7794795 
0.7666953 -0.49502745 -0.4088107 
0.6518794 -0.46029946 -0.6026423 
0.8903374 0.2913517 -0.34987664 
-0.52603126 0.5222643 -0.6712162 
-0.0016792794 0.23418222 -0.9721913 
0.2744878 0.064194605 -0.9594454 
-0.08413911 -0.26243418 -0.9612747 
0.32991835 0.2699533 -0.90458786 
-0.05784064 0.2369072 -0.96980894 
-0.23980793 0.25008833 -0.9380555 
0.012812607 0.050213505 -0.9986564 
0.27541295 -0.31298292 -0.9089497 
-0.14850444 -0.11384752 -0.98233664 
-0.10064368 -0.47092184 -0.87641513 
0.013749673 -0.42804658 -0.90365213 
-0.050582737 -0.7705369 -0.6353853 
0.6969823 -0.48393282 -0.5291737 
0.43343344 -0.29771307 -0.85058945 
0.2856915 -0.49695525 -0.8193998 
0.24468312 -0.44056112 -0.86373377 
-0.31534234 0.21150029 -0.9251091 
-0.09129824 -0.24863255 -0.9642855 
-0.032023527 0.44668442 -0.89411837 
-0.015627775 -0.12994035 -0.9913987 
-0.20787469 0.46070823 -0.8628651 
-0.33637503 -0.119938396 -0.9340592 
-0.33707336 0.48952052 -0.8042084 
-0.568454 -0.30359754 -0.7646494 