# OOMMF: rectangular mesh v1.0
# Segment count: 1
# Begin: Segment
# Begin: Header
# Desc: Time (s) :  8.08000000000002e-07
# Title: m
# meshtype: rectangular
# meshunit: m
# xbase: 2e-09
# ybase: 2e-09
# zbase: 5e-10
# xstepsize: 4e-09
# ystepsize: 4e-09
# zstepsize: 1e-09
# xmin: 0
# ymin: 0
# zmin: 0
# xmax: 1.024e-06
# ymax: 1.024e-06
# zmax: 1e-09
# xnodes: 256
# ynodes: 256
# znodes: 1
# ValueRangeMinMag: 1e-08
# ValueRangeMaxMag: 1
# valueunit: 
# valuemultiplier: 1
# End: Header
# Begin: Data Text
-0.90531576 -0.4041073 0.13076958 
-0.5824468 0.2875355 -0.7603151 
-0.77150244 -0.11916445 -0.62496716 
0.019894414 -0.12638162 -0.9917822 
-0.06772915 -0.6771873 -0.73268694 
0.05694132 -0.21703796 -0.974501 
-0.012449131 -0.7816366 -0.6236099 
-0.6469443 -0.67976636 -0.34551537 
-0.17232014 -0.54494196 -0.8205755 
-0.5339914 -0.5033019 -0.67936766 
-0.8006925 -0.5256008 -0.2874639 
0.61336946 0.1680656 -0.7717071 
0.463469 -0.3818687 -0.7996079 
0.038722683 0.34719908 -0.93699163 
0.13759923 -0.1933602 -0.9714311 
-0.5027435 -0.6054909 -0.616952 
-0.07152168 -0.13469967 -0.9883019 
-0.04742565 -0.93172795 -0.36004704 
-0.31299037 -0.21914133 -0.92412883 
-0.025971143 0.10269134 -0.9943742 
0.046796083 -0.0013482646 -0.9989036 
0.464374 -0.5583608 -0.6874518 
0.23112091 -0.27764642 -0.9324675 
0.3207734 -0.94210887 -0.09764888 
-0.070014305 -0.92120737 0.38272053 
-0.060102977 -0.9238532 0.3779985 
-0.31508827 -0.7959463 -0.5169032 
0.07547716 0.20298268 -0.9762691 
-0.1459594 0.34984225 -0.9253682 
0.094870284 -0.9510301 0.29417935 
0.63742614 -0.23372424 -0.73420775 
0.5422947 -0.2762329 -0.7934809 
0.49666816 -0.19303598 -0.84620214 
0.6530255 0.29276142 0.69846153 
0.10660517 -0.9601815 0.25823843 
0.3689705 -0.24185933 -0.89742124 
0.42779446 -0.64843553 -0.629701 
-0.19635707 -0.9058637 -0.37530655 
0.07821797 -0.9866622 -0.14275713 
-0.40226987 -0.43488374 -0.80563956 
-0.28987923 -0.59547573 -0.74925214 
-0.9408523 -0.06303665 -0.33290157 
-0.85162586 0.11754896 -0.51079905 
-0.51451015 -0.40600842 -0.7552724 
0.31591922 -0.83348954 -0.45331046 
0.40687752 0.017571619 -0.91331375 
-0.3552015 -0.24504437 -0.90210044 
0.2631424 0.035059966 -0.96411973 
0.29575172 -0.30512154 -0.9052248 
-0.25568423 -0.32800728 -0.90941566 
0.09627001 -0.9205247 -0.37863764 
-0.0581073 -0.94863945 -0.31097707 
-0.35361752 -0.5835385 -0.7310524 
-0.094588354 -0.787756 -0.6086818 
0.07274209 -0.8499855 -0.5217599 
-0.12085893 0.034094498 -0.9920841 
0.45456412 0.17221381 -0.87390727 
-0.9745938 -0.021389375 -0.22295634 
-0.64339674 0.18049969 -0.7439493 
-0.17866941 -0.48244765 -0.85750896 
-0.22745085 0.0794098 -0.97054636 
0.48204723 -0.00075265794 -0.876145 
0.42329085 -0.55675715 -0.7147352 
0.08698205 -0.99314326 -0.07810702 
0.18167295 -0.2802765 -0.94257104 
-0.058823846 -0.2786228 -0.9585975 
0.41113192 -0.77793443 -0.47517213 
0.5107893 -0.8551567 -0.08832544 
0.6226238 -0.7802691 -0.059327643 
0.70633656 -0.58355796 0.40068534 
0.7081451 -0.63263404 -0.31353593 
0.15888505 -0.8800079 0.4475953 
-0.59233177 -0.80537003 0.022854976 
-0.52190256 -0.34606996 -0.7796495 
-0.18996568 -0.47373602 -0.8599344 
0.06639908 0.059074048 -0.9960429 
-0.34569803 -0.8837769 -0.31532726 
-0.48123023 -0.23403645 -0.8447747 
-0.028629335 -0.42249092 -0.90591484 
0.13792859 -0.2941714 -0.9457478 
0.2725489 -0.9562252 -0.10653924 
0.03880777 -0.90659714 -0.4202093 
-0.013056787 -0.9305275 -0.36598927 
-0.02181097 -0.6264086 -0.7791898 
0.43809956 -0.5249083 -0.7297535 
0.40860495 0.096928686 -0.9075499 
0.17166372 -0.30350035 -0.93724024 
0.44746202 -0.39501444 -0.802335 
-0.22100154 -0.9626847 -0.15619402 
0.15424763 -0.8664553 -0.4748294 
-0.9321996 -0.069563515 -0.35519698 
-0.8517865 -0.18346488 -0.49071416 
-0.3187814 -0.047258742 -0.9466494 
-0.6360399 -0.6891307 -0.34720615 
-0.90822786 -0.32460174 -0.26411322 
0.37481648 -0.8696471 -0.3212891 
0.33114848 -0.43643093 -0.8365817 
-0.122017376 -0.19662637 -0.9728566 
0.027930463 0.087622106 -0.99576217 
0.0322876 0.37756923 -0.9254183 
-0.06590642 0.13646592 -0.98845005 
-0.4145523 -0.54245454 -0.7306774 
-0.2056943 -0.42948517 -0.87933636 
-0.1067867 -0.61081254 0.784541 
-0.51742375 -0.85154486 0.084522694 
-0.9165224 -0.39027134 -0.087607086 
-0.17791317 -0.8640882 -0.4708489 
-0.1296091 -0.32666877 -0.93621 
0.8099638 -0.24596861 -0.5324078 
0.60177547 -0.09535696 -0.79295236 
0.40478957 0.14397395 -0.90300435 
-0.1691418 0.2192492 -0.96089584 
-0.009102923 -0.22565326 -0.97416514 
0.1769059 0.17013688 -0.96941113 
-0.39779603 -0.2330848 -0.88737243 
-0.2972739 -0.0053354157 -0.9547773 
0.16148126 -0.5086427 -0.84569883 
0.034120817 -0.21050072 -0.97699815 
-0.57392424 -0.4440642 -0.6880538 
0.10087626 -0.13885316 -0.98516184 
-0.29736668 0.44124898 -0.8466832 
-0.8683041 -0.3447486 -0.35664624 
-0.69472384 -0.70057374 -0.16295783 
-0.76238894 -0.5764474 -0.29406065 
-0.34437057 -0.922738 -0.17309976 
-0.3627854 -0.8931785 -0.26574254 
-0.20282087 -0.17154597 -0.9640725 
-0.025709849 0.18165089 -0.983027 
0.042479374 -0.9169479 -0.39673957 
0.25616962 -0.42689198 -0.86726034 
-0.40057442 -0.29546294 -0.86731875 
-0.11302216 -0.098597795 -0.98868835 
0.7989827 -0.5857297 -0.13618891 
0.47637284 -0.82257754 0.31054002 
0.15638764 -0.79390204 -0.5875905 
-0.05257327 -0.90461266 -0.42297998 
0.31733957 -0.8784841 -0.35715747 
0.6558862 0.16192064 -0.737289 
0.19843493 -0.2395209 -0.9503965 
0.85955536 0.1198068 -0.49680072 
0.7022079 -0.62876475 -0.33400443 
0.6248971 -0.7452914 -0.23247442 
-0.051125105 -0.8619964 -0.5043298 
-0.19510403 0.15640555 -0.9682313 
-0.34795547 -0.37120947 -0.8608894 
-0.53086805 -0.22058147 -0.8182439 
0.25920767 -0.86994267 -0.4195369 
0.11397077 -0.8983551 -0.4242272 
0.069242276 -0.9902957 -0.12049895 
-0.30122846 -0.47572112 -0.8264084 
-0.822804 -0.07108884 -0.56386167 
-0.39362285 -0.5364983 -0.7464788 
-0.10511431 0.05208261 -0.9930954 
-0.14201957 -0.39606342 -0.90717375 
-0.7803604 -0.61547124 -0.110602655 
-0.36366108 -0.4204768 -0.83123404 
-0.14823614 0.11123405 -0.98267657 
-0.30010983 -0.26010078 -0.9177591 
0.062119227 -0.915834 -0.39672312 
0.22431082 -0.8848844 -0.40824533 
0.51743066 0.28774312 -0.80589664 
0.45128083 0.17309023 -0.8754345 
0.87097484 0.11564691 -0.47752348 
-0.014384157 0.94245493 0.33402368 
-0.46851647 0.8032296 -0.36785161 
-0.3990013 -0.46961862 -0.78756356 
-0.28906795 -0.5716238 -0.7679102 
-0.1558998 -0.6921756 -0.7046902 
-0.08760244 -0.9277777 0.3627042 
0.17745955 -0.8457381 -0.50322485 
-0.01247073 -0.9592186 -0.28239036 
0.23774572 -0.95668244 -0.1680352 
0.518716 -0.796031 0.3118792 
0.8154257 -0.22332357 -0.5340483 
-0.033780422 -0.9932498 0.11096749 
0.3686542 -0.6048134 -0.70590013 
0.12102953 -0.46257243 -0.8782817 
0.8747213 0.36500016 -0.31880668 
0.48234007 -0.32152358 -0.8148441 
-0.043297682 -0.85729486 0.5130018 
-0.22849488 -0.96555436 -0.12447896 
-0.3688289 -0.90641993 -0.2058354 
-0.18225451 -0.92351043 -0.33750814 
0.073263355 -0.81300914 -0.5776233 
0.7694975 -0.5723927 -0.283267 
0.93360543 -0.35430735 0.053358834 
0.78088266 -0.34485126 -0.5208646 
0.9927781 0.03086459 -0.115927026 
0.50242054 -0.42219314 -0.7545374 
0.89653057 0.064370655 -0.43828014 
0.62005675 -0.14590326 -0.7708709 
0.05278248 -0.6714107 -0.73920345 
0.72143114 -0.6525062 -0.23188977 
-0.14453678 -0.9801873 0.13543257 
0.12966421 -0.6410019 -0.75650764 
0.9327054 -0.3315538 0.14189032 
0.82630354 -0.54947925 -0.12367287 
0.6634923 -0.67845315 -0.3154035 
0.7443706 -0.6677523 -0.0044011245 
0.4290224 -0.8119607 -0.39580253 
0.8324003 -0.4916864 -0.25564468 
0.609802 -0.7763741 0.15932629 
-0.3713762 -0.80272835 -0.46659073 
-0.12316821 -0.98816746 -0.091404244 
0.32201618 -0.25885588 -0.91065866 
0.116145134 -0.9890907 -0.09060933 
-0.22800043 -0.95682037 -0.1803072 
0.44887885 -0.8590234 -0.24614339 
0.12332056 -0.7302661 -0.6719401 
-0.9853362 -0.062559426 -0.15874188 
-0.79086703 0.2921775 -0.53773767 
-0.062266212 -0.29343745 -0.9539484 
-0.533256 0.48981142 -0.68972677 
-0.32365236 -0.3582994 -0.8757116 
-0.41007245 -0.5302569 -0.74207026 
-0.25867525 -0.4678241 -0.8451199 
0.011974067 0.048924796 -0.99873066 
0.32929087 -0.4863085 -0.809365 
0.1885112 -0.27594376 -0.9425066 
-0.26990396 0.6833166 -0.67840284 
-0.04445458 0.34757316 -0.9365985 
0.07710392 -0.123226956 -0.9893787 
-0.2107179 -0.20028152 -0.95680994 
0.66722804 -0.6494886 -0.36465225 
0.004375449 -0.52337265 -0.8520928 
-0.124006234 0.3572348 -0.9257461 
-0.09341656 -0.054124672 -0.9941549 
-0.14050032 -0.48239276 -0.8646138 
-0.49001056 -0.23695406 -0.83889365 
-0.3941574 0.2855471 -0.8735575 
0.048586432 0.021484181 -0.99858797 
-0.37613422 -0.11979416 -0.9187886 
0.44865096 -0.28978553 -0.8454211 
0.019561732 -0.43237597 -0.9014812 
0.4489674 -0.88663 0.11097574 
0.25504187 -0.9320914 0.2572147 
0.2626195 -0.8761891 -0.4041332 
-0.6342814 -0.039784312 -0.77207804 
-0.083068594 0.014503687 -0.9964384 
0.062669925 -0.48666173 -0.87133974 
-0.33160415 -0.89521486 -0.2977065 
-0.8858273 -0.16770162 -0.43265033 
-0.47282425 -0.70647 -0.52662843 
-0.40246198 -0.8005967 -0.44392484 
-0.09696831 -0.8555653 -0.5085326 
0.29366615 -0.7418729 -0.6028141 
-0.30746922 -0.24653359 -0.91906697 
-0.32113153 -0.43410444 -0.84168166 
-0.1988088 -0.62139916 -0.757851 
-0.26998293 -0.43435165 -0.85933 
-0.11777535 -0.39900836 -0.9093522 
-0.59684163 0.119981475 -0.7933376 
-0.67309994 0.36219382 -0.64478844 
-0.39854687 0.005139086 -0.91713357 
-0.41709152 -0.8293007 -0.3718804 
0.095153235 -0.8598162 -0.5016594 
-0.90128756 -0.11948602 -0.41641796 
-0.23099397 -0.30805087 -0.92290115 
-0.7631274 0.345363 -0.5462243 
0.1679934 0.29737702 -0.93986446 
0.62675965 0.006431 -0.7791862 
0.5659025 -0.10190224 -0.8181506 
-0.4721813 -0.2755084 -0.83734107 
-0.6259054 -0.2804604 -0.7277255 
-0.090609305 0.009945054 -0.99583685 
-0.057484936 -0.14432396 -0.9878594 
-0.010245687 0.21730295 -0.97605044 
-0.08616144 0.14538369 -0.98561645 
0.93052244 0.06442211 -0.3605243 
0.25837952 0.003799302 -0.9660361 
0.08370988 0.40557376 -0.9102213 
-0.032842256 -0.31857127 -0.9473298 
-0.868171 -0.03509044 -0.49502322 
-0.5335601 -0.08736123 -0.84123814 
-0.051061764 0.020097608 -0.9984933 
-0.13439378 0.024995482 -0.99061275 
0.28409642 0.16436264 -0.9446026 
0.47841614 -0.29316247 -0.82775235 
0.037063114 -0.40769264 -0.91236675 
-0.53259176 -0.71408564 -0.45434338 
0.564854 -0.8009305 -0.19862123 
-0.23014228 -0.8062655 -0.5449501 
0.2512507 -0.2449225 -0.936422 
-0.0079698 0.055199143 -0.9984436 
0.7360497 -0.028736714 -0.67631733 
0.7699641 -0.3196065 -0.55227447 
0.95976853 0.045502566 -0.277081 
0.4746314 0.08316096 -0.8762473 
0.64098585 -0.3021939 -0.70556086 
0.29344293 -0.91971165 0.2608099 
-0.074575506 -0.98006326 -0.18415904 
0.51458573 -0.6213782 -0.59083897 
0.6197044 -0.43918213 -0.65045035 
-0.049125925 -0.3823972 -0.9226913 
0.10222335 -0.106830955 -0.98900837 
-0.439601 -0.32381177 -0.8377928 
0.13760838 0.14357227 -0.98002607 
-0.328552 -0.17898782 -0.927371 
-0.6448146 -0.6579892 -0.38892713 
0.19440569 -0.76689136 -0.6116241 
-0.4212741 -0.3124834 -0.8514003 
0.22696447 -0.715262 -0.6609746 
-0.5872991 -0.45459935 -0.6696412 
-0.30634168 0.048413817 -0.95068973 
-0.07178429 -0.2568088 -0.9637926 
-0.13667923 -0.33900577 -0.9308028 
-0.19436772 -0.6873604 -0.69982636 
-0.59993684 -0.24500008 -0.7616106 
-0.81719744 0.019987924 -0.5760113 
0.40377808 -0.36569142 -0.83858997 
-0.660108 -0.64255977 -0.38906878 
-0.8453913 -0.28330097 -0.45282906 
0.20089011 0.47486746 -0.8568221 
-0.7917228 0.21845177 -0.5704858 
-0.53510904 -0.02537207 -0.8444019 
0.24417129 -0.7100595 -0.6604513 
-0.13793215 -0.062211394 -0.988486 
0.05362228 0.044502147 -0.9975692 
0.19314232 -0.2847645 -0.93893844 
0.24317946 -0.92888296 -0.27935684 
0.27087927 -0.7321385 -0.6249782 
0.27831382 -0.41711196 -0.8651931 
0.09225183 -0.73186356 -0.6751781 
0.5260914 -0.5880991 -0.6143023 
0.66254634 -0.5382449 -0.5208885 
0.44325435 -0.85768807 -0.26057023 
0.46768323 -0.82045376 -0.3288285 
-0.20587733 -0.89734787 0.3903606 
-0.1569843 -0.75956315 -0.631205 
0.42644373 -0.40016222 -0.81118196 
-0.16296093 -0.4995707 -0.8508072 
-0.5523486 -0.613992 -0.56384826 
-0.8025643 -0.5899582 -0.08854415 
-0.47955826 -0.38298038 -0.78952515 
-0.6507139 -0.2147571 -0.7283206 
0.21545118 -0.09902392 -0.97148085 
0.2728177 -0.8843009 -0.3789227 
-0.32636446 -0.59228414 -0.73667216 
-0.056891244 -0.3462785 -0.93640524 
-0.4811289 0.024214838 -0.8763155 
-0.009560466 -0.19139734 -0.9814661 
0.38496858 -0.0473877 -0.9217124 
0.31126082 -0.75229686 -0.58066016 
-0.4624239 -0.82240194 -0.3313899 
-0.20210005 -0.8510825 -0.48457637 
0.3216918 -0.81331867 -0.48479614 
-0.34749892 -0.1674791 -0.9226024 
-0.87158835 -0.109690696 -0.4778093 
-0.87062013 0.10367904 -0.48090678 
-0.3353427 -0.6477225 -0.68410593 
-0.119955584 -0.8163999 -0.564891 
-0.030230636 -0.592115 -0.8052862 
0.21173048 -0.6458618 -0.73350716 
-0.38655704 0.20033038 -0.9002453 
-0.03744755 -0.2261581 -0.9733706 
-0.097684406 -0.10162945 -0.99001485 
-0.2866972 -0.03054915 -0.95753413 
-0.4474328 -0.27326724 -0.8515451 
0.026096832 -0.54001516 -0.8412507 
-0.3901456 -0.8916889 0.22951572 
-0.6412773 -0.74018764 -0.20220228 
-0.6210627 -0.77979946 -0.07870283 
-0.4610891 -0.75233686 -0.47051704 
-0.05631161 -0.624308 -0.77914613 
0.042372666 0.18498257 -0.9818279 
-0.116001174 0.08977595 -0.9891835 
0.4328619 0.58386075 -0.68683136 
-0.603476 -0.19743596 -0.7725515 
0.0062228465 -0.50615126 -0.8624224 
-0.25783366 -0.50502133 -0.8236962 
-0.10972504 -0.45306224 -0.8847006 
-0.018823484 -0.3386372 -0.9407287 
-0.04889209 0.15606306 -0.9865363 
-0.37027982 -0.09309365 -0.9242437 
-0.058715966 -0.38139716 -0.92254466 
-0.09961977 -0.33821887 -0.93577987 
-0.39666063 0.3924897 -0.82982653 
0.14442863 -0.21340916 -0.96622825 
0.0541017 0.0923941 -0.9942517 
-0.22881933 -0.2822958 -0.9316388 
0.44770983 -0.44393796 -0.7761928 
-0.24337983 -0.37690827 -0.8937039 
-0.45773253 0.35944462 -0.81319153 
-0.5926352 -0.3086031 -0.7440078 
-0.054855347 -0.460682 -0.8858685 
-0.020978527 -0.059395693 -0.9980141 
-0.2500168 -0.16579537 -0.9539411 
-0.77410287 -0.19725621 -0.60154366 
-0.6010051 -0.7194267 -0.34816402 
0.19042616 -0.9368189 -0.293442 
0.58448285 -0.43170097 -0.6870329 
0.33370343 -0.5831012 -0.740699 
-0.1766341 -0.27929607 -0.943819 
0.030948529 -0.27951914 -0.9596412 
0.55999 -0.4100997 -0.71988165 
0.36813298 -0.6834699 -0.6303547 
0.71078867 -0.66736114 0.2222807 
0.23774017 -0.83699703 -0.4928647 
0.0922436 -0.22001563 -0.9711253 
0.06190505 -0.4921264 -0.86831987 
0.16571969 -0.46464995 -0.8698492 
0.6811304 0.37050503 -0.63149625 
0.34320405 -0.43577537 -0.8320522 
-0.05241492 -0.49696988 -0.86618346 
-0.4093343 -0.8471002 -0.33892015 
0.019196153 -0.6085207 -0.7933058 
-0.4194787 -0.17953543 -0.88983405 
-0.19873314 -0.53058696 -0.82400405 
-0.13160633 0.37567404 -0.9173597 
-0.73116213 0.2460523 -0.6362863 
-0.42991826 -0.25407016 -0.8663826 
-0.21426824 0.39367098 -0.89393085 
-0.7655274 -0.24350584 -0.59554404 
0.3497363 -0.454926 -0.81897914 
0.6979179 -0.37819543 -0.60817665 
0.34486234 0.36268997 -0.8657517 
0.8755353 0.07855333 -0.47672552 
0.91365415 0.16214707 -0.37275252 
0.45934615 0.11999837 -0.8801145 
-0.32682317 0.22865823 -0.91700715 
-0.6722789 -0.5479222 -0.49781772 
0.2503206 -0.2545771 -0.93409324 
-0.0156728 -0.0036815475 -0.9998704 
-0.16320178 -0.63939667 -0.75135684 
0.31008005 -0.7980684 -0.5166597 
0.28135934 -0.2598871 -0.92374 
0.26020423 -0.77013415 -0.58239776 
0.025153153 -0.88633054 -0.46236935 
0.2547991 -0.9381797 0.23430002 
0.42790702 -0.7749687 -0.46510142 
0.24552332 -0.89885545 -0.36301142 
0.37717882 -0.19115303 -0.90619904 
-0.07290609 -0.7262817 -0.68352 
0.02036785 -0.38139802 -0.9241866 
0.42315707 -0.047799636 -0.9047947 
0.2764051 -0.7954039 -0.539382 
-0.19102062 -0.92505825 -0.32829615 
0.099137515 -0.66291404 -0.7421029 
0.19565366 -0.70301336 -0.6837339 
0.25211695 -0.27817205 -0.9268535 
0.64902395 -0.07780472 -0.7567791 
0.364333 -0.928891 -0.06650626 
0.5216164 -0.615798 -0.59051603 
0.83749676 -0.03037021 -0.5455978 
0.845842 0.2460894 -0.47327715 
0.8720372 0.2986505 -0.38776165 
0.92623353 0.20751928 -0.31468597 
0.42456782 0.42891714 -0.79735327 
0.65369636 -0.17548296 -0.7361297 
0.7193406 -0.22301173 -0.65788674 
0.8168089 -0.48504022 -0.31234503 
0.5531047 -0.8248549 -0.1170029 
0.4243305 -0.43489116 -0.7942376 
0.67924905 -0.4722834 -0.5617555 
0.6419012 0.41866195 -0.6424057 
-0.06874056 -0.14015044 -0.9877412 
0.5950437 -0.6472848 -0.47638786 
-0.37277824 -0.8810509 -0.2911798 
0.005077808 -0.5786479 -0.8155618 
0.21156153 -0.82638884 -0.52184606 
0.5612434 0.22931173 -0.79524964 
0.42608103 -0.63535386 -0.64403456 
-0.062377047 -0.7407227 -0.66890883 
0.07816351 -0.96798223 -0.23853923 
0.2945298 -0.17786153 -0.9389449 
-0.514075 -0.7273875 -0.4545706 
-0.30827338 0.13586174 -0.94154614 
-0.4993273 -0.53981686 -0.6776947 
-0.0722609 0.0384016 -0.9966462 
-0.0916518 -0.21656945 -0.97195566 
0.2734882 -0.8264931 -0.49205023 
0.2400604 -0.53856033 -0.80766565 
0.16246808 -0.038492177 -0.9859627 
0.8660793 -0.3565818 -0.3503658 
0.27419668 -0.14067277 -0.9513293 
0.36489794 -0.30866876 -0.8783924 
0.15327275 0.39695024 -0.90495193 
0.4767143 0.043697704 -0.8779716 
0.2329549 0.3064591 -0.92293817 
0.17234579 -0.039789293 -0.98423254 
0.014057392 -0.07436083 -0.99713236 
-0.10599065 -0.29061192 -0.95095253 
-0.4629773 -0.23192778 -0.8554892 
0.10421927 -0.745627 -0.65816325 
-0.6448392 -0.6186704 -0.44880894 
-0.6446391 0.23408967 -0.7277655 
-0.5942296 0.330759 -0.73313695 
0.022527639 0.3237457 -0.94587594 
0.4955939 -0.7577186 -0.4245578 
0.18052468 -0.76636606 -0.6165176 
-0.085597396 -0.8361085 -0.54184484 
0.044116013 -0.9044679 -0.4242543 
0.34696758 -0.8801345 -0.3240012 
-0.11009902 -0.67652017 -0.7281475 
-0.6682465 -0.5762151 -0.47055587 
0.09130444 -0.4685235 -0.8787203 
-0.23176487 -0.5282237 -0.8168628 
-0.33198124 -0.6004555 -0.72749 
-0.7085479 -0.69557893 -0.11886949 
0.14398396 -0.56202126 -0.8144942 
0.07652285 -0.90017515 -0.42875275 
0.26304728 -0.86031145 -0.43665823 
-0.60973495 -0.16939625 -0.7742922 
-0.55211407 0.38934377 -0.73727983 
-0.49385938 0.6421531 -0.58629555 
-0.26188797 0.24057505 -0.9346328 
0.2608973 0.122986905 -0.95750034 
0.1894391 0.78496623 -0.589865 
-0.14702116 0.6307204 -0.7619558 
0.35582232 0.1698891 -0.9189822 
-0.33954751 0.5021442 -0.79533565 
-0.45860273 0.41462305 -0.78598434 
-0.3680984 0.2606104 -0.8925166 
-0.34586355 0.34797674 -0.8713728 
-0.64980793 0.35848197 -0.67025393 
0.019095639 0.80416405 -0.5941007 
0.31811142 0.6356993 -0.7033432 
0.40845188 0.4831826 -0.77440417 
-0.40108016 0.11113428 -0.90927666 
-0.2854765 -0.28022206 -0.9165036 
0.3645738 0.11687219 -0.9238111 
-0.32356775 -0.7884162 -0.52316713 
-0.8673245 -0.10606446 -0.48631123 
-0.21644396 0.41854388 -0.88202786 
0.16636612 0.1889688 -0.9677878 
0.068546236 0.2149648 -0.97421336 
0.1611781 0.3911064 -0.90612227 
-0.02319457 -0.27959034 -0.9598392 
-0.4268478 0.27376744 -0.86188895 
-0.4415677 -0.25847846 -0.85918975 
-0.6127976 0.51698166 -0.59766966 
-0.729656 0.33255658 -0.5975017 
-0.40497842 0.2454434 -0.88076675 
0.15917483 -0.496948 -0.8530569 
0.13342896 -0.4046173 -0.90469974 
0.18414521 -0.582909 -0.79139596 
0.25988588 -0.96341074 -0.065568656 
0.44685996 -0.8870179 -0.11625556 
-0.059159204 -0.24982148 -0.966483 
-0.039095074 -0.25559118 -0.96599424 
-0.18883175 -0.16587712 -0.9678985 
-0.32114342 -0.9433948 0.082904555 
-0.21305183 -0.34424394 -0.9143878 
-0.19968921 0.08697662 -0.9759914 
0.61055034 -0.45372638 -0.6491231 
0.14017281 -0.9389868 -0.31409472 
-0.6752288 -0.5061453 -0.53654736 
0.41865674 -0.49341384 -0.7624102 
0.61773765 -0.07198632 -0.7830825 
-0.1253691 0.28453496 -0.9504328 
-0.28244498 -0.41897687 -0.86295044 
-0.59003764 -0.13756976 -0.7955691 
-0.16750568 0.20707464 -0.9638787 
-0.277149 -0.4688539 -0.83866835 
-0.8961372 -0.18744366 -0.40224743 
0.0028760831 -0.59677017 -0.802407 
0.6435347 0.06785756 -0.7624031 
-0.357163 -0.8149445 -0.45639926 
0.054519963 -0.85274935 -0.51946735 
-0.322306 -0.2288019 -0.91856873 
0.48255014 -0.4456465 -0.754019 
-0.023136126 -0.6976479 -0.7160672 
-0.21088848 -0.91313654 -0.34886634 
-0.60562176 -0.4775991 -0.6364915 
-0.8536629 0.18163456 -0.48812756 
-0.6840082 0.2027537 -0.7007309 
-0.93010515 -0.08831488 -0.3565177 
-0.48339078 -0.24887371 -0.83928263 
-0.8758376 -0.026014622 -0.48190436 
-0.48541394 -0.87427706 0.0036102715 
-0.48157105 -0.5166121 -0.7079558 
0.6700531 -0.2761875 -0.68902063 
-0.27157974 -0.9617443 -0.035949413 
-0.67350054 -0.04916101 -0.7375502 
0.16568403 0.052501317 -0.98478043 
-0.3895534 0.031450197 -0.92046684 
-0.1443184 -0.8294934 -0.53954875 
0.09098348 -0.6491991 -0.75515723 
0.25780025 -0.5137237 -0.8183074 
0.59650004 -0.63180315 -0.49498752 
0.71308494 -0.36446488 -0.598895 
0.28494906 -0.9565586 -0.06164208 
0.600739 -0.6402845 -0.47869453 
0.14373395 -0.97825634 -0.14951642 
-0.14977121 -0.7992389 -0.58205307 
0.31186715 -0.7631588 -0.56597495 
-0.08794198 -0.8953336 -0.43662792 
0.13876954 -0.9160455 -0.3763027 
0.049226288 -0.19638354 -0.9792907 
0.17073034 0.4572145 -0.872815 
-0.20012426 -0.5038045 -0.84031624 
0.7905739 -0.49348402 -0.3625831 
0.44523183 0.50725436 -0.7378765 
-0.57071334 -0.22252828 -0.79042244 
-0.6384119 -0.34668082 -0.6871992 
0.17339659 -0.07067431 -0.98231304 
-0.19991319 0.39249796 -0.89776397 
-0.19361353 0.07708099 -0.9780452 
0.805932 0.42547613 -0.41163528 
0.41973394 -0.549402 -0.7224825 
0.29182202 -0.35409752 -0.88851273 
-0.24507181 -0.082297266 -0.9660057 
-0.2696406 -0.71103257 -0.64940494 
-0.33974868 -0.40168273 -0.8504245 
-0.2647279 -0.4515494 -0.85206944 
-0.17001316 -0.24205446 -0.95525146 
-0.163088 -0.057098933 -0.98495793 
0.057807464 0.37816024 -0.9239335 
0.509605 -0.23528324 -0.8276139 
-0.09855899 -0.22413787 -0.9695609 
-0.09414215 -0.41432008 -0.90524924 
0.11584278 -0.26685193 -0.95675004 
0.14011957 -0.03266286 -0.9895957 
-0.2589026 -0.21615808 -0.94140595 
-0.3569297 0.14795999 -0.9223389 
-0.031370595 -0.6567586 -0.7534481 
0.019389212 -0.6389643 -0.7689921 
-0.6383442 -0.67777085 -0.3648882 
-0.96019596 -0.15435335 -0.23280618 
-0.24363472 -0.5286712 -0.8131107 
-0.23595954 0.22521715 -0.94530445 
-0.5194762 0.42206907 -0.7429685 
-0.5092181 0.46239328 -0.7258715 
0.12915349 -0.10813737 -0.9857108 
0.27249557 -0.4847589 -0.8311167 
-0.3420659 -0.05663546 -0.93796766 
-0.29504076 -0.6292683 -0.71900797 
0.28327996 -0.19954753 -0.93804765 
-0.07017216 -0.1969044 -0.97790825 
-0.20509535 0.5483334 -0.8107198 
-0.0027462812 -0.5388939 -0.8423693 
-0.4400081 -0.006513005 -0.89797026 
-0.19395816 0.16018488 -0.9678436 
0.14602223 0.41020426 -0.9002277 
-0.32624358 0.2377969 -0.9148868 
-0.16417962 0.4226122 -0.8913159 
-0.19506937 -0.5094054 -0.83812535 
-0.6649976 -0.0098503325 -0.74678063 
-0.21088374 -0.20153008 -0.95651126 
-0.19147706 -0.84056765 -0.50673735 
0.1602914 -0.38486314 -0.9089483 
0.3422282 -0.16361532 -0.9252621 
0.23181605 0.11656374 -0.9657506 
0.07032568 -0.46139625 -0.8844025 
0.41715997 -0.3809184 -0.8251538 
0.1964086 -0.80081165 -0.5657954 
0.16742378 -0.6847239 -0.7093113 
-0.04089992 -0.28608432 -0.95733124 
-0.34462535 -0.6834675 -0.64351046 
0.28735465 -0.6842138 -0.67028266 
-0.72782016 0.12455839 -0.6743612 
-0.012171696 0.12020343 -0.9926747 
0.6416955 -0.53068876 -0.5537115 
0.48380256 0.055333626 -0.87342626 
-0.05891681 0.47686607 -0.8769992 
-0.1940105 0.29021254 -0.9370895 
0.28818405 -0.1831005 -0.9399065 
0.44887486 -0.15943359 -0.8792567 
0.2550198 -0.525741 -0.81151795 
-0.25221562 -0.55737776 -0.791023 
0.08004414 -0.5936434 -0.80073744 
-0.12880288 -0.15629357 -0.9792764 
-0.76526976 0.31361607 -0.5621451 
-0.60389316 0.14596072 -0.78358704 
-0.15435252 0.30154487 -0.94087523 
-0.4335371 -0.2852442 -0.85479903 
-0.27179405 0.33543926 -0.9020025 
-0.019242436 -0.12733474 -0.9916731 
0.1580571 -0.109027244 -0.9813924 
0.5262172 -0.43323866 -0.73171014 
0.48569036 -0.5504963 -0.67901313 
0.5458767 -0.094967864 -0.8324661 
0.3466245 0.14734285 -0.92635936 
0.2341322 0.047867987 -0.97102565 
0.27645922 -0.15666667 -0.9481698 
-0.020042004 -0.38251856 -0.9237304 
-0.12180849 -0.6698698 -0.73241884 
-0.15499185 -0.43879452 -0.8851197 
-0.14081205 -0.44327122 -0.88525856 
0.096013725 -0.90489846 -0.41465673 
0.22835326 -0.5062421 -0.83160913 
0.07642698 -0.14777201 -0.98606414 
0.486088 -0.45574838 -0.74566203 
0.5781224 -0.8047516 -0.13472043 
0.66999716 -0.7422127 -0.014975003 
0.32121655 -0.37036002 -0.871581 
0.24054223 -0.88289946 -0.40327168 
-0.04591964 0.109863676 -0.9928854 
-0.4351041 -0.16455181 -0.8852159 
0.22266996 0.40524822 -0.88667476 
0.44868374 0.19362745 -0.87246275 
-0.15608984 -0.06981588 -0.9852724 
-0.38043582 -0.09941684 -0.91944814 
-0.03383562 -0.18735519 -0.98170936 
0.48860952 0.17741081 -0.85427517 
0.31264266 -0.5287501 -0.78909945 
-0.16718912 -0.5698735 -0.8045446 
-0.3167833 -0.1911681 -0.9290335 
0.43079305 -0.3757338 -0.82051295 
0.74045855 -0.1006094 -0.66452914 
0.6783033 -0.15015927 -0.71927524 
0.6072327 0.07359456 -0.7911083 
0.22821696 -0.063011885 -0.9715691 
0.2457325 0.5665559 -0.7865303 
0.3887881 0.07007096 -0.9186588 
0.6988624 0.09243488 -0.70925826 
0.4161219 -0.36915 -0.831006 
0.4331381 -0.75420296 -0.49352765 
0.8138219 0.104160905 -0.57170314 
0.44545743 -0.4222032 -0.78950125 
0.12217787 -0.15944523 -0.97961724 
-0.24591947 -0.75716114 -0.60516995 
0.056694232 -0.82804734 -0.5577845 
0.32862428 -0.76625615 -0.5521393 
-0.074274085 -0.73443294 -0.67460483 
-0.4297767 -0.49147624 -0.75745827 
-0.12094502 -0.22435999 -0.9669721 
0.418808 -0.34439594 -0.8402329 
0.75742525 -0.122663215 -0.6412962 
0.1674493 -0.94831425 -0.26955682 
-0.60749716 0.08303164 -0.7899702 
-0.1174177 -0.87256217 -0.47418192 
-0.44397557 -0.25698394 -0.8583967 
-0.27025822 -0.23276657 -0.93422717 
-0.63569325 -0.27435637 -0.72154194 
-0.22976963 -0.26149747 -0.9374567 
0.08563189 -0.5608565 -0.8234727 
0.23164766 -0.03571233 -0.972144 
-0.13027781 0.08005982 -0.98823994 
-0.12498395 -0.12506056 -0.98424536 
0.10337939 -0.024548074 -0.9943391 
0.7529165 -0.3193452 -0.5754436 
0.2920872 -0.07268565 -0.9536257 
0.21498345 -0.18183231 -0.95954114 
0.49786466 -0.30702257 -0.81109065 
0.48795107 -0.09340716 -0.86785877 
-0.0035266634 -0.45009 -0.8929762 
-0.35058028 0.1657357 -0.92175114 
-0.7920925 0.36667952 -0.48799142 
-0.5538977 0.24276453 -0.7964061 
0.32477686 -0.64786536 -0.6890505 
-0.31289288 -0.7523592 -0.5797015 
0.21505609 0.04674506 -0.97548234 
0.42251658 0.35133624 -0.8354895 
0.057455845 -0.7323075 -0.6785459 
-0.12423132 -0.8877895 -0.44316623 
0.24066086 -0.053127654 -0.96915424 
0.111158036 -0.50673836 -0.85490364 
0.49992657 -0.49790877 -0.70863277 
-0.12135745 -0.017013343 -0.99246305 
-0.7845092 -0.3712335 -0.49672028 
0.08711989 -0.64054704 -0.7629611 
-0.66321236 -0.078524664 -0.7443006 
0.14674748 -0.002923997 -0.9891697 
-0.2043948 -0.09149594 -0.9746032 
-0.012322939 -0.9557017 -0.29407904 
0.85316885 -0.47066593 -0.2248927 
0.3147199 -0.5047451 -0.80385554 
-0.46876833 -0.47665694 -0.7436763 
-0.32463956 -0.17950141 -0.9286487 
-0.19001834 -0.39608184 -0.8983386 
-0.5337138 0.17147404 -0.828098 
0.30528927 0.1840571 -0.93430275 
0.040965706 0.8930516 -0.4480855 
0.14655825 0.5039134 -0.8512297 
0.15185624 0.5892314 -0.79356545 
0.6511599 0.65185845 -0.38867906 
0.11290521 0.5610926 -0.82001686 
0.32517967 0.007273737 -0.9456243 
-0.5718335 0.46766487 -0.6740149 
-0.18885726 0.50077623 -0.84472257 
0.090328485 0.7612211 -0.6421707 
0.09626927 0.6514333 -0.7525735 
0.32353827 0.4038346 -0.85571057 
0.36595646 0.46033424 -0.80880684 
-0.45542845 0.25706488 -0.85235125 
-0.4037054 0.019678634 -0.91467744 
-0.5725046 -0.17380561 -0.8012679 
-0.8783123 0.3601147 -0.31445974 
-0.44738033 0.42869943 -0.7848997 
0.08872974 0.7816551 -0.6173673 
-0.17594841 0.64235646 -0.745936 
-0.55297244 0.73225886 -0.39751554 
-0.4730158 -0.12542453 -0.87208074 
-0.44327074 0.032558218 -0.89579636 
-0.26217788 0.4071268 -0.8749347 
-0.3774013 -0.32328928 -0.8677859 
-0.5196563 0.2108832 -0.8279407 
-0.09753718 0.041935876 -0.994348 
0.10439456 -0.047492977 -0.99340135 
0.2683392 -0.48095274 -0.8346727 
0.06158954 -0.86065954 -0.5054423 
0.72711724 -0.56984305 -0.38285705 
0.7879387 -0.61217743 0.06626853 
0.28415066 0.11702765 -0.9516108 
0.22313446 0.6239683 -0.7489156 
0.6645413 0.12941837 -0.7359591 
0.35828668 -0.34704417 -0.86671287 
0.5184786 0.5738697 -0.63391924 
-0.21961106 -0.50156003 -0.83678466 
-0.465913 -0.48368886 -0.7409253 
0.3667613 -0.39749476 -0.84112084 
-0.26183408 0.52889276 -0.80728894 
0.30613503 -0.4333615 -0.8476316 
0.85853606 -0.15221667 -0.48963872 
-0.004804009 0.1696018 -0.98550105 
-0.038562622 -0.04832558 -0.99808705 
0.47609884 0.01650222 -0.87923706 
0.06290278 -0.09072444 -0.99388754 
-0.01193174 -0.39447114 -0.91883093 
-0.602396 0.19810778 -0.773222 
-0.45380196 -0.6193135 -0.64071417 
0.045552444 -0.792666 -0.6079521 
-0.1619811 -0.7659604 -0.62214696 
-0.51597804 -0.46782616 -0.71756905 
-0.6476837 0.13393 -0.75004584 
0.2681406 -0.43880472 -0.85764277 
0.2560115 0.2763873 -0.9263197 
0.09774991 0.38793865 -0.91648716 
-0.19735181 -0.21100292 -0.9573558 
-0.50169665 0.15796676 -0.85049814 
-0.74295866 0.05826761 -0.6667964 
-0.6545591 -0.34999987 -0.67011386 
-0.7310251 -0.11297091 -0.6729339 
-0.55380356 -0.47830644 -0.68156046 
-0.94751203 -0.31782326 0.03477773 
-0.7786165 -0.41299036 -0.47243556 
0.13919504 -0.29132408 -0.94644344 
-0.84224856 -0.46173602 -0.27823946 
-0.2884956 0.5258811 -0.80013704 
-0.14244078 -0.01777125 -0.9896438 
0.040793553 -0.29448858 -0.954784 
-0.08350539 -0.43957874 -0.894314 
0.36838436 -0.4262783 -0.826184 
-0.2576264 -0.0645994 -0.9640827 
0.20810705 -0.5951166 -0.7762267 
0.26555923 -0.6695024 -0.69371825 
0.64808154 -0.11593155 -0.7526953 