# OOMMF: rectangular mesh v1.0
# Segment count: 1
# Begin: Segment
# Begin: Header
# Desc: Time (s) :  8.260000000000021e-07
# Title: m
# meshtype: rectangular
# meshunit: m
# xbase: 2e-09
# ybase: 2e-09
# zbase: 5e-10
# xstepsize: 4e-09
# ystepsize: 4e-09
# zstepsize: 1e-09
# xmin: 0
# ymin: 0
# zmin: 0
# xmax: 1.024e-06
# ymax: 1.024e-06
# zmax: 1e-09
# xnodes: 256
# ynodes: 256
# znodes: 1
# ValueRangeMinMag: 1e-08
# ValueRangeMaxMag: 1
# valueunit: 
# valuemultiplier: 1
# End: Header
# Begin: Data Text
-0.20385535 -0.7167637 -0.66685295 
-0.23995034 -0.31430283 -0.9184975 
0.062985495 -0.21931668 -0.97361857 
0.54492664 -0.31471282 -0.7771814 
-0.18466091 -0.58358055 -0.79078066 
0.2335357 -0.8350098 -0.49821657 
-0.18178435 -0.8534091 -0.4885157 
-0.530472 -0.7293511 -0.43202603 
-0.29271087 -0.5041291 -0.812511 
0.16546303 0.19167732 -0.9674099 
0.3081227 0.7376202 -0.60081357 
-0.8101871 0.5861594 -0.0037571446 
-0.2944793 -0.9348739 -0.19822423 
-0.16536723 -0.23515904 -0.957786 
-0.5006338 -0.50848013 -0.7005811 
-0.7740479 0.39746776 -0.49281752 
-0.7104065 0.46526635 -0.5280624 
0.23080133 0.65132254 -0.7228484 
-0.4107975 0.018837102 -0.911532 
0.496932 -0.3811057 -0.7796262 
0.8576504 0.271225 -0.43688995 
0.38731778 -0.8897063 -0.2416769 
-0.23494636 -0.7284582 0.64354396 
-0.8709649 0.2761967 -0.40636897 
-0.17154753 0.19725858 -0.9652257 
0.29542512 -0.4548898 -0.8401186 
-0.15338665 0.12643635 -0.98004407 
0.19613385 -0.17744908 -0.9643876 
0.7810354 -0.35415363 -0.5143528 
0.7794634 -0.26139194 -0.5693077 
0.07882979 -0.28866434 -0.9541797 
-0.5062424 0.35821927 -0.7844729 
-0.26169416 0.71693766 -0.64615524 
-0.30002567 -0.04665305 -0.9527896 
0.22682196 0.42139763 -0.87805235 
-0.22630641 -0.037278857 -0.9733426 
-0.0129289385 -0.5190058 -0.8546731 
0.2117923 -0.04426499 -0.97631174 
0.35694563 0.03882085 -0.93331814 
0.356137 -0.64891386 -0.672367 
0.24374865 0.09023754 -0.96563137 
0.9120172 0.07967921 -0.40233818 
0.08115017 0.19250704 -0.9779344 
-0.94428086 0.23954675 -0.22572343 
-0.70339155 0.65030545 -0.28695512 
-0.56650364 0.7209238 -0.39917734 
-0.40284482 -0.6768935 -0.61606115 
-0.016071673 -0.6463449 -0.7628761 
0.25465217 -0.91047865 -0.32585442 
-0.17797658 -0.9251254 -0.3353617 
-0.75422555 -0.6501229 -0.09210905 
-0.37616032 -0.81325185 -0.4439876 
0.31704593 -0.68671256 -0.6541466 
0.21256524 -0.7068328 -0.6746877 
0.21974395 -0.10657047 -0.9697193 
0.33842286 -0.39243478 -0.85525733 
-0.31706086 -0.79509026 -0.5170144 
-0.6920334 -0.4565987 -0.55911314 
-0.35897422 -0.6553437 -0.6645767 
0.4092513 -0.72597253 -0.5527 
0.0828056 -0.92836946 -0.36231694 
0.25339553 -0.90760744 -0.3347231 
0.122089386 -0.8881278 -0.4430839 
-0.24924763 -0.5098395 -0.82337075 
-0.28679508 0.21026541 -0.934632 
-0.47859836 -0.13997471 -0.8668049 
-0.047274258 0.14038216 -0.9889682 
-0.33946535 -0.15642299 -0.927521 
0.111469865 -0.55346274 -0.8253808 
-0.22992937 -0.9586065 -0.16794688 
0.20412393 -0.7254983 -0.6572562 
-0.49046993 -0.25980616 -0.8318293 
0.44636974 -0.18782404 -0.874915 
0.46323165 -0.81567067 -0.34655136 
0.32357314 -0.82871795 -0.45664772 
0.39279172 -0.52443105 -0.7554381 
-0.2869148 -0.82644445 -0.48442706 
-0.3223349 -0.3380709 -0.8841993 
0.20541528 0.15541457 -0.9662562 
0.3940947 -0.55231684 -0.7345989 
-0.35906348 -0.67298526 -0.6466563 
-0.057217326 -0.18437417 -0.98118925 
-0.027264083 -0.01629297 -0.9994955 
-0.013804807 0.73323333 -0.679837 
0.92702264 -0.32476738 -0.18749768 
0.75914645 -0.65057164 0.021292409 
0.44464424 -0.86919343 -0.2163199 
0.16362184 -0.50658613 -0.8465214 
0.2019662 -0.1475053 -0.96822107 
0.015014441 0.57930785 -0.8149707 
-0.2371546 -0.25069624 -0.93856764 
0.088405065 0.4562423 -0.8854533 
0.64291066 -0.4366678 -0.62927514 
0.28172645 -0.6681835 -0.68859357 
0.19135402 -0.701143 -0.686864 
-0.23668943 -0.85063183 -0.46947166 
0.32850668 -0.6672648 -0.66846174 
0.25883338 -0.034147307 -0.96531826 
0.95442355 0.06888515 -0.29039747 
0.7057535 -0.17790629 -0.6857561 
-0.029273229 -0.113446854 -0.9931128 
0.7461191 -0.036216453 -0.66482687 
-0.5672837 -0.7253459 -0.38995206 
-0.50103503 -0.70562065 -0.5010624 
-0.03225562 0.103139184 -0.99414384 
0.07061291 -0.097083695 -0.99276817 
-0.6661167 -0.08336576 -0.74117386 
-0.16732842 0.53170663 -0.83023447 
0.019890942 -0.37674135 -0.9261049 
0.3202859 0.15300243 -0.9348836 
0.22401017 0.37972614 -0.8975676 
0.11115397 0.09833189 -0.98892653 
-0.42735586 -0.12022501 -0.89605415 
-0.24031106 -0.6588001 -0.71290463 
-0.5062147 -0.5925849 -0.62657005 
-0.5431452 -0.46115196 -0.7016639 
-0.840089 0.32057944 -0.4375834 
0.012672078 -0.46238166 -0.8865904 
-0.4412363 -0.44494408 -0.77931714 
-0.14271392 -0.078176975 -0.98667175 
-0.53040034 -0.5785737 -0.61961925 
0.5908338 -0.51023173 -0.6249633 
0.36621395 -0.13333854 -0.92092794 
0.3991984 -0.012345343 -0.9167815 
0.24793206 0.037674773 -0.96804464 
-0.106852986 -0.35995743 -0.9268296 
0.51749617 -0.6762923 -0.52423906 
-0.5382474 -0.1649655 -0.82648426 
0.15769815 0.09166735 -0.98322356 
0.9256757 -0.012602721 -0.3781083 
0.5768635 0.60600245 -0.54771304 
0.5047348 0.1728768 -0.84578747 
0.041648597 -0.7322377 -0.6797746 
0.20474525 -0.87325543 -0.44215897 
-0.20370264 -0.97903126 0.0017418676 
-0.0072758757 -0.8765757 -0.48120892 
-0.39975363 -0.43230554 -0.8082754 
0.1863531 -0.1979291 -0.9623392 
-0.036730457 -0.10872321 -0.99339324 
0.19565552 -0.5856955 -0.78656197 
0.13247022 -0.93630725 -0.32523927 
-0.24315165 -0.8121535 -0.53036207 
-0.002247071 -0.25358072 -0.9673117 
0.049813274 -0.6235972 -0.78015715 
-0.080884136 -0.42640883 -0.9009069 
0.31229395 -0.90007055 -0.30388412 
-0.5047409 -0.72283435 -0.47196105 
-0.59547967 -0.7248655 -0.3463728 
-0.62212914 -0.17358464 -0.7634289 
0.5169392 -0.61621094 -0.5941868 
0.4091189 -0.16515265 -0.8974109 
0.4967745 -0.8582315 -0.12905014 
0.31333303 -0.772551 -0.55225676 
-0.07347729 0.02149425 -0.99706525 
-0.20209473 -0.2836696 -0.93738437 
0.16913666 0.42540872 -0.8890558 
-0.02509988 -0.25667158 -0.9661727 
-0.63099927 -0.19975385 -0.74962544 
-0.068017446 -0.045012325 -0.9966682 
0.19352934 0.6354696 -0.74747896 
-0.27561283 0.59560424 -0.75451523 
0.14937326 0.21359354 -0.9654354 
0.20417309 -0.21859583 -0.9542166 
-0.44333658 -0.39662424 -0.8038295 
-0.70439035 -0.04536865 -0.70836145 
-0.27600616 -0.3072745 -0.91071564 
0.0049507176 -0.613295 -0.78983843 
-0.59305906 -0.54159474 -0.59578204 
-0.5224279 -0.72970015 -0.44114274 
-0.14549245 0.2980608 -0.9433937 
0.51260173 0.13313682 -0.84824175 
0.56911814 -0.4660297 -0.677437 
0.9666259 -0.17800432 -0.18425214 
0.6591606 -0.6507248 -0.37691447 
0.02507384 -0.8317538 -0.5545781 
-0.7309111 -0.17187054 -0.6604768 
-0.6633285 -0.4659278 -0.5855823 
-0.4011174 -0.49535188 -0.77053976 
-0.37399876 0.17738391 -0.9103076 
-0.20713346 -0.57421505 -0.79206884 
0.041211426 -0.30853397 -0.9503202 
0.18285479 -0.259333 -0.94831985 
-0.05788402 -0.7547864 -0.6534118 
-0.1786424 -0.92376196 -0.33874905 
0.6763303 -0.7085468 0.2013426 
-0.78153574 -0.38971403 0.48716 
-0.7473354 -0.65799373 0.09238092 
-0.24002993 -0.65353614 -0.7178274 
-0.54268086 -0.39231282 -0.7426898 
-0.24058512 -0.34464967 -0.9073784 
-0.025907109 -0.76494455 -0.6435749 
-0.12878418 0.029831354 -0.99122393 
-0.12654372 -0.21136013 -0.96918195 
0.25178045 -0.42398 -0.86996984 
-0.46081758 -0.77742565 -0.42808482 
-0.7453358 -0.6535319 0.13179782 
-0.8631296 -0.48033893 -0.15582648 
-0.11387813 -0.5145954 -0.8498373 
-0.32334182 -0.28420126 -0.9025962 
-0.49360222 -0.20813617 -0.84441483 
0.27774885 -0.22932838 -0.9328795 
-0.17841865 -0.66302645 -0.7270232 
-0.18775772 -0.85077745 -0.49084088 
-0.6947724 -0.7177908 -0.045472562 
0.022980258 0.17256825 -0.98472947 
-0.6214994 0.04551945 -0.7820912 
0.75315094 -0.5858026 -0.29933113 
0.56178504 -0.79918754 0.21376853 
0.83634573 -0.5468923 0.03787889 
0.22400714 -0.97406197 0.032002944 
0.011134591 0.046947118 -0.9988353 
0.9388362 -0.27749804 -0.2039153 
0.6887905 -0.04980336 -0.7232477 
0.09306077 -0.104408145 -0.990171 
0.88455635 0.42897436 -0.18314216 
0.04733451 0.72560394 -0.68648267 
-0.7156538 -0.419946 -0.55810845 
0.16304581 0.18237498 -0.9696161 
-0.30951184 0.17932479 -0.9338335 
-0.29792145 -0.4271463 -0.8536914 
-0.5320528 -0.5855326 -0.6116138 
0.099857315 0.09828855 -0.99013525 
-0.8290747 -0.23048003 -0.5094252 
0.027264655 -0.25403616 -0.9668104 
0.27188146 -0.3133064 -0.90990084 
0.31727773 0.13593954 -0.93853897 
0.54018074 0.08455106 -0.8372908 
0.13795988 -0.2345763 -0.9622584 
0.64873356 -0.36225557 -0.6692651 
0.60383296 -0.09194805 -0.79179 
-0.12023245 0.20417581 -0.97152275 
0.2007871 -0.650486 -0.7324975 
-0.49559122 -0.32176042 -0.8067587 
0.24578871 0.055407103 -0.9677387 
0.49712247 0.23462158 -0.83535737 
0.25819477 -0.05706853 -0.96440595 
0.55326587 -0.38174373 -0.74038416 
0.4132763 -0.31451088 -0.85456747 
0.21704969 -0.6417886 -0.73552495 
0.26568684 -0.7552085 -0.599225 
0.768271 -0.5652361 -0.30044624 
-0.045639154 -0.9658573 -0.2550232 
-0.06522586 -0.9978692 0.0016525235 
0.41445893 -0.7819472 -0.46559903 
0.35711718 -0.79705495 -0.48700196 
0.14117448 -0.9783963 0.15103139 
-0.44850096 -0.79140323 -0.41536474 
-0.35350445 -0.6537765 -0.66903734 
-0.3847177 -0.8021724 -0.45663083 
-0.5707359 -0.33273712 -0.7506974 
-0.37387887 0.054157756 -0.92589504 
-0.1653964 -0.5057891 -0.84665304 
0.44210047 0.1519783 -0.8839965 
0.16488858 0.5837752 -0.7949957 
0.39545017 -0.38835222 -0.8323471 
0.7819222 -0.4278802 -0.45333892 
-0.94080055 0.31418815 -0.12720127 
-0.36272204 0.084347665 -0.9280723 
-0.27272904 0.24816069 -0.929535 
0.33800396 -0.1088487 -0.934829 
-0.13708277 -0.5455683 -0.82677907 
-0.31410724 -0.9174078 -0.24433495 
0.08741476 -0.3934593 -0.9151767 
-0.17308983 -0.21214975 -0.96178603 
-0.107863545 -0.5579009 -0.8228682 
-0.053691216 0.35507724 -0.9332938 
-0.5928563 0.39610294 -0.701159 
-0.53732955 0.6423244 -0.5465312 
-0.37553436 -0.085951075 -0.92281437 
-0.30157274 0.16800833 -0.9385239 
-0.06400142 -0.26732367 -0.96147907 
-0.24308726 0.65435535 -0.7160501 
0.30629632 0.28235826 -0.90909654 
0.08194667 0.7259494 -0.68284875 
-0.39051822 0.21071804 -0.8961549 
-0.13856095 -0.16233459 -0.97695875 
0.6150016 -0.41569465 -0.67005306 
-0.12512068 -0.91445184 -0.38486725 
-0.7041929 -0.6053393 -0.37104815 
-0.6314084 0.14925613 -0.76095086 
-0.18782124 -0.15141551 -0.9704621 
0.02904677 -0.08838172 -0.9956631 
-0.33647317 0.11667056 -0.9344377 
0.1427426 -0.014556794 -0.9896529 
0.7614272 0.014625653 -0.6480854 
0.571845 -0.6659035 -0.47913024 
-0.06628172 -0.25689054 -0.964165 
-0.34199077 0.3477509 -0.87299013 
-0.19095334 0.26358095 -0.94554853 
0.5288408 0.45005277 -0.71956927 
0.6537448 0.39345777 -0.6463813 
-0.14210437 0.4075946 -0.90203834 
-0.04743739 -0.29517096 -0.9542661 
0.15318325 -0.2256166 -0.9620977 
0.81489724 -0.10220499 -0.57052314 
0.44305366 -0.20741244 -0.87217176 
0.14110172 0.06629818 -0.9877727 
-0.17682235 0.8622553 -0.474605 
-0.29964796 0.37933397 -0.8753953 
-0.7477897 0.09214986 -0.6575098 
-0.90860945 -0.1529043 -0.3886505 
-0.60400134 0.19379666 -0.7730622 
-0.04090383 -0.73941976 -0.67200106 
-0.060292732 -0.10664557 -0.9924674 
0.13100323 -0.34754083 -0.9284684 
-0.29272026 -0.26785535 -0.9179152 
-0.31321934 0.47415325 -0.8228441 
-0.10177968 -0.40512186 -0.90857977 
0.040789444 -0.6333338 -0.77280307 
0.062286776 -0.7223783 -0.68868715 
-0.48271146 0.3568009 -0.7998017 
0.3745865 -0.565192 -0.73501223 
-0.07024492 -0.14969128 -0.98623437 
0.08723559 -0.17183325 -0.98125607 
-0.5720847 -0.57286423 -0.58698016 
-0.1666879 -0.7108062 -0.6833519 
-0.47807795 -0.83071834 -0.2852166 
-0.08957051 -0.9576522 0.2736414 
-0.21875693 -0.81878585 -0.5307873 
-0.25788972 -0.51502085 -0.81746346 
0.1966174 -0.13187408 -0.9715713 
-0.7239225 -0.11878939 -0.67957735 
0.077433966 -0.61687887 -0.7832398 
0.30515036 -0.39687186 -0.8656651 
0.17096087 -0.90101326 -0.39868224 
-0.3345174 -0.9027727 -0.27036953 
-0.3220934 -0.47201017 -0.8206474 
0.10665201 0.038318515 -0.9935579 
0.40245056 -0.18631144 -0.89628214 
0.5518475 -0.8224452 -0.13801542 
0.33000258 -0.8254422 -0.45797768 
0.05718102 -0.9624046 -0.26553315 
0.1195542 -0.96434796 -0.23609295 
-0.6320063 -0.39150745 -0.6687975 
-0.38961533 0.23718022 -0.88991326 
-0.027722113 -0.08228132 -0.99622357 
-0.16230454 -0.030063685 -0.98628265 
-0.3828828 0.48748448 -0.7847037 
-0.5052074 -0.14618057 -0.85052735 
0.24136615 0.3380676 -0.9096443 
0.98001677 -0.19721837 -0.02592675 
0.93639153 -0.22695753 0.26769614 
0.05462489 -0.5380365 -0.8411497 
0.17492995 -0.036856763 -0.9838908 
0.5690803 0.2535531 -0.78221387 
0.809682 -0.12189694 -0.57407 
0.23872219 -0.078852326 -0.9678812 
0.3135389 -0.20592193 -0.9269787 
0.37990752 0.20085849 -0.9029542 
0.08236097 -0.13953984 -0.9867854 
-0.44586855 -0.60203636 -0.66238475 
-0.07081822 -0.72205776 -0.68819875 
0.52834094 -0.4486933 -0.7207844 
0.5221665 -0.6546856 -0.546561 
0.86851895 -0.12342347 -0.48004326 
0.7704969 -0.01966403 -0.63714045 
0.8022747 0.06512731 -0.59339184 
0.46833357 -0.21291716 -0.85751384 
0.005877957 -0.1733484 -0.984843 
-0.14864002 -0.56493354 -0.811638 
-0.24694712 -0.46759775 -0.8487458 
-0.06483678 -0.5356016 -0.84197813 
-0.56844187 -0.17032403 -0.8048998 
-0.4371264 0.13821936 -0.8887159 
-0.22778967 -0.80872005 -0.542295 
-0.106521524 -0.40470576 -0.90822166 
-0.29588467 -0.085398056 -0.95139873 
-0.39544418 0.042411402 -0.9175104 
-0.76429266 0.25413245 -0.59268326 
-0.48317787 -0.14783527 -0.8629507 
0.29687956 0.18609776 -0.9366057 
0.11066656 -0.059954617 -0.9920476 
-0.3960421 -0.5551659 -0.73139703 
-0.23023397 -0.9715928 -0.054769207 
0.34754106 -0.76034755 0.54871386 
-0.76344264 -0.18998241 -0.61730236 
0.58395195 -0.47494262 -0.6583538 
0.5768481 0.24601093 -0.7789255 
0.6009675 0.11760117 -0.79057455 
-0.6567822 0.033377804 -0.7533414 
-0.06087886 -0.35295144 -0.93365896 
0.51414627 -0.39385203 -0.7619279 
0.004816087 -0.49538028 -0.86866295 
-0.12254341 0.05019822 -0.99119294 
-0.32697672 0.52520466 -0.7856502 
-0.06018153 0.31233412 -0.94806415 
0.1951993 0.41849124 -0.8869963 
-0.09649495 0.1791123 -0.979085 
0.41372845 -0.48842245 -0.76829183 
0.084119655 -0.653556 -0.7521891 
0.01926269 -0.84625286 -0.5324331 
-0.032126453 -0.5705379 -0.82064265 
-0.37076277 -0.56879294 -0.7341727 
0.008256144 -0.2001376 -0.97973305 
0.27028036 -0.36543497 -0.89073336 
0.1153735 -0.74193615 -0.6604695 
-0.31617448 -0.79906195 -0.5114037 
0.33103657 -0.53739053 -0.7756457 
-0.018249646 -0.6734891 -0.73897195 
-0.0024612602 -0.35485157 -0.9349195 
-0.15052508 -0.8707514 -0.4681179 
-0.37650636 -0.5832191 -0.7197906 
-0.2851181 -0.6146875 -0.7354366 
-0.63038623 -0.7048097 -0.32535592 
-0.3124047 -0.43474412 -0.84463066 
0.41410926 -0.27725753 -0.86697286 
0.49464428 -0.54732513 -0.67510164 
0.28630808 -0.55308867 -0.7823814 
-0.26212782 -0.9252282 -0.27430275 
-0.11238065 -0.03500965 -0.99304837 
-0.31911337 -0.1603651 -0.93405014 
-0.2763309 0.016776122 -0.96091616 
-0.11020416 0.022458268 -0.99365526 
0.5384571 0.32771218 -0.77631736 
0.66710883 0.34274244 -0.661433 
0.122820154 -0.1862815 -0.9747895 
-0.38972285 -0.16613422 -0.9058232 
0.02519594 -0.24138813 -0.97010154 
-0.22321966 -0.37179688 -0.90107715 
-0.21786168 -0.075983874 -0.97301733 
0.48510364 -0.2288262 -0.84398645 
-0.39617965 -0.20139642 -0.8958132 
-0.38496473 -0.8010433 -0.4584014 
-0.09386165 -0.9033454 -0.4185178 
-0.8449291 -0.3143805 -0.43273532 
-0.5264698 -0.13263424 -0.8397844 
-0.37015477 -0.51039016 -0.7762006 
-0.049756408 -0.48775405 -0.87156206 
0.6237068 -0.6802636 -0.3850083 
0.046891194 -0.8327613 -0.55164295 
0.050645698 -0.86809206 -0.493813 
-0.5627201 -0.072201476 -0.8234884 
0.26263505 0.14957716 -0.95323116 
-0.83790857 -0.5186679 -0.16997953 
-0.4334729 -0.10189698 -0.8953873 
-0.34149992 -0.094995044 -0.93506885 
-0.37638268 -0.59085333 -0.7136024 
-0.14826827 -0.33811846 -0.92935055 
0.41691676 -0.6029964 -0.68012923 
-0.027406262 -0.95820117 -0.2847799 
0.2735197 -0.7399849 -0.61449933 
0.3575201 -0.92639935 0.118167795 
0.22554134 -0.89908487 -0.3752034 
0.2506118 -0.20598112 -0.94592047 
0.0028753087 0.0055950177 -0.9999803 
0.08038192 0.1802522 -0.9803305 
-0.29594576 -0.1756351 -0.9389188 
-0.34076917 0.041605167 -0.93922603 
-0.6295409 0.0043547796 -0.7769552 
-0.5129503 0.36233038 -0.77820224 
0.10335153 -0.7308851 -0.67463 
-0.16286792 -0.5440029 -0.8231252 
-0.5843088 -0.43727675 -0.68364626 
-0.53166336 -0.62163746 -0.5752401 
-0.48719344 -0.45720777 -0.7440455 
-0.13034444 -0.66150135 -0.7385299 
-0.56633 -0.5449619 -0.6182936 
0.28986248 -0.2695656 -0.9183214 
0.11345621 0.04287215 -0.9926176 
-0.4110328 -0.24219242 -0.8788601 
-0.66180307 -0.10952464 -0.7416341 
0.20016135 -0.24091122 -0.9496828 
0.29484767 -0.67882025 -0.6725087 
0.35853216 -0.83965945 -0.40795442 
-0.017070528 -0.8793402 -0.4758881 
-0.19486044 -0.72429687 -0.66138 
0.2366018 -0.8156267 -0.5279893 
0.010077524 -0.78706783 -0.61678416 
-0.119501635 -0.4504868 -0.8847491 
0.6122736 0.27422783 -0.7415661 
0.36193117 0.32990465 -0.8718766 
-0.5358572 -0.08345731 -0.8401738 
-0.744283 -0.17205916 -0.6453205 
-0.2640608 -0.11141127 -0.9580499 
-0.30428994 -0.3990562 -0.8649636 
-0.5907701 0.33382913 -0.7345399 
0.13481636 -0.47508955 -0.86954844 
-0.42043692 -0.32512268 -0.8470703 
-0.89009696 -0.14434706 -0.43230936 
-0.5350357 -0.1157162 -0.8368671 
-0.12744047 -0.15888494 -0.9790376 
-0.3721702 -0.06648852 -0.92578006 
0.3211438 -0.41380042 -0.85184276 
0.4957393 0.23313643 -0.83659434 
0.9807999 0.18873443 -0.04910029 
-0.5335489 -0.28134948 -0.7976015 
0.033922784 -0.35723755 -0.9333974 
0.032624748 0.006863682 -0.9994442 
-0.07836578 -0.083394445 -0.99343055 
0.29701146 0.8812069 -0.36777517 
0.45213097 0.63471013 -0.6266743 
-0.14172333 0.5984246 -0.7885446 
0.36595595 0.09688945 -0.92557484 
0.3018383 0.09591849 -0.9485217 
-0.15608056 -0.7480125 -0.64507073 
0.40907314 -0.8376001 -0.362057 
0.1253631 -0.5502486 -0.82553655 
-0.1928005 -0.493784 -0.8479419 
-0.21551834 -0.7517189 -0.62327415 
-0.022009905 -0.61363286 -0.78928465 
0.13408855 -0.7722475 -0.62101054 
0.4279354 -0.72754616 -0.536235 
-0.5501291 -0.82855934 -0.10415067 
-0.7894219 -0.50900966 -0.3431067 
-0.27844903 0.45668784 -0.84492743 
-0.32808262 -0.02041017 -0.9444285 
-0.5299972 0.27505636 -0.80215144 
0.19551685 -0.02514483 -0.980378 
0.11350663 -0.295301 -0.94863784 
-0.35813826 0.060357653 -0.93171567 
0.12614147 -0.10631194 -0.9862992 
-0.26602945 -0.66144633 -0.7012254 
-0.7113696 0.3784551 0.5922204 
-0.8909249 0.08700344 -0.44573912 
-0.41196868 -0.27559972 -0.8685199 
-0.03914279 -0.28608143 -0.95740557 
-0.34741864 -0.54728013 -0.76143605 
-0.2997832 -0.51006764 -0.8062016 
0.24734007 -0.3712445 -0.8949864 
0.11781361 -0.20099702 -0.9724814 
-0.21755733 -0.5943225 -0.77424145 
0.21483067 0.41581267 -0.8837125 
0.65461236 0.3513298 -0.66936547 
0.032692537 0.49048018 -0.870839 
0.044457708 0.810918 -0.5834686 
-0.2865249 0.6857829 -0.6690331 
-0.44093361 0.23956963 -0.86497635 
-0.5521499 0.4374861 -0.709744 
-0.60897374 0.0009074958 -0.79318994 
-0.4371808 -0.1015888 -0.89361775 
-0.18153873 0.33856028 -0.9232663 
-0.24663813 0.17094673 -0.95391136 
0.28550327 0.02134053 -0.95814013 
0.40948108 -0.25621563 -0.87560195 
-0.62269 0.123430945 -0.77267194 
-0.5378121 0.35280246 -0.7656949 
-0.58004326 -0.28116608 -0.7645231 
-0.4592298 0.5340329 -0.7098711 
-0.3124523 0.553278 -0.7721769 
0.5817228 0.45403197 -0.6748731 
0.09752411 -0.45484495 -0.8852147 
0.3170057 -0.42312315 -0.8488076 
0.14699595 -0.56482166 -0.8120153 
-0.41494876 0.19847442 -0.8879332 
-0.057456724 0.5131453 -0.85637647 
0.08284102 0.23036908 -0.9695708 
0.13428943 0.07298179 -0.98825103 
-0.010659231 0.52128714 -0.8533149 
0.116903365 -0.25327104 -0.96030587 
0.29554194 -0.20850325 -0.9322991 
0.93414706 0.30035847 0.19275406 
0.58965796 0.69085234 -0.4183619 
0.7897307 0.61345357 0.0003993807 
-0.35823098 0.93098354 -0.07028778 
-0.6875308 0.482863 -0.5423512 
-0.8236317 0.41238463 -0.38931954 
-0.36705455 0.1377192 -0.9199481 
-0.17241283 0.31351417 -0.9338001 
-0.008888871 0.10090806 -0.9948561 
-0.44545487 -0.18397537 -0.8761982 
-0.3874398 -0.177156 -0.9047134 
-0.3795649 -0.62093365 -0.6858367 
-0.17264807 -0.6805304 -0.71208924 
-0.04355704 0.20433018 -0.9779326 
0.61020845 -0.020601004 -0.791973 
0.66927624 0.2814954 -0.6876261 
0.03545204 -0.15991774 -0.9864935 
-0.15815595 -0.4494731 -0.8791819 
0.08656801 -0.20321023 -0.9753008 
-0.2124886 0.20239335 -0.9559737 
-0.5382862 -0.20110981 -0.81841487 
-0.47070485 -0.29367498 -0.8319808 
-0.37048474 -0.92841166 -0.02815755 
-0.38503128 -0.5326069 -0.7537114 
0.054404218 -0.68859476 -0.7231027 
0.18977946 -0.14138822 -0.97159314 
-0.26529694 0.32192108 -0.90883684 
0.19152671 0.3710654 -0.90864074 
0.03751598 -0.4004864 -0.91553444 
-0.13179822 -0.78501606 -0.6052927 
0.1736589 -0.65984976 -0.7310547 
-0.360737 -0.25559253 -0.8969622 
-0.12049854 0.07985816 -0.9894963 
0.32984757 -0.3674746 -0.8695764 
0.014939813 -0.025469046 -0.99956405 
0.07573497 -0.804071 -0.5896897 
0.07109201 -0.6396098 -0.7654053 
0.02103903 -0.5753289 -0.8176516 
-0.13517684 -0.9494867 -0.28320038 
-0.55438983 -0.2988315 -0.7767572 
-0.05824097 0.5570123 -0.8284596 
0.034586664 -0.7197652 -0.69335556 
-0.46309122 -0.0086876005 -0.88626814 
-0.20586355 0.61117274 -0.76425654 
0.0075290236 0.42724606 -0.90410405 
0.25595042 0.29500824 -0.92057574 
0.5008459 -0.3556392 -0.7890972 
-0.09029721 -0.2836629 -0.9546632 
0.2627925 -0.44304165 -0.85711974 
-0.48532847 -0.13158162 -0.86437416 
-0.20120928 0.35413203 -0.91329366 
-0.10715056 0.36332572 -0.92548007 
-0.31742257 0.44929263 -0.8350923 
0.028709918 0.62147474 -0.7829081 
0.074692324 -0.8228902 -0.5632698 
0.16337508 -0.15064394 -0.97499496 
-0.01569072 -0.7733052 -0.6338399 
0.1249649 -0.2735057 -0.95371825 
-0.008478451 -0.70254743 -0.7115864 
-0.19246677 -0.7704699 -0.6077274 
-0.5476255 -0.3897826 -0.740389 
0.030165384 0.048647113 -0.9983604 
-0.24186298 -0.8538761 -0.4608667 
-0.08984243 -0.13486916 -0.986782 
-0.08662542 -0.092491925 -0.99193823 
0.25881073 -0.28682095 -0.92236155 
-0.544321 -0.6191354 -0.5660266 
-0.39168203 -0.51996326 -0.7590938 
-0.11204043 0.269707 -0.95640224 
-0.37187192 0.04398777 -0.92724127 
-0.17275853 -0.7617342 -0.62443215 
0.73108137 -0.24736735 -0.635869 
-0.75953466 -0.22301409 -0.61104167 
-0.43904892 0.18135253 -0.87997 
-0.1989579 0.45389143 -0.86856115 
-0.20169781 0.25149366 -0.9466092 
0.25969395 0.43322372 -0.86306214 
-0.07107857 -0.42762533 -0.9011573 
0.19240186 -0.2036423 -0.9599539 
0.506695 -0.030252233 -0.86159456 
-0.48962826 -0.50416267 -0.7113959 
-0.33084247 -0.10854878 -0.93742234 
0.5544281 0.1747561 -0.8136767 
0.08791351 -0.5822765 -0.8082235 
0.5781552 -0.118465 -0.807281 
0.21205398 -0.5500444 -0.80776507 
0.27779546 -0.20436104 -0.9386514 
0.32314536 -0.3752648 -0.8687654 
-0.13325487 -0.11956623 -0.9838431 
-0.5684098 -0.5296138 -0.62961864 
-0.7313867 0.004226412 -0.68194985 
0.6264149 0.30274516 -0.7182965 
0.3616465 0.2062204 -0.90922225 
0.23132363 -0.16189621 -0.9593117 
0.44329727 -0.59466773 -0.67071444 
-0.38274455 -0.61551714 -0.68894506 
-0.41622818 -0.78970087 -0.45069584 
-0.22363402 -0.6369864 -0.73772377 
0.23311947 -0.3307888 -0.9144584 
0.43124223 -0.46190247 -0.7750332 
-0.06566848 -0.26734567 -0.9613606 
-0.70220065 -0.70084757 -0.1254073 
-0.60408604 -0.41934392 -0.67766565 
-0.54111785 -0.63044673 -0.5565326 
-0.46721032 -0.78887737 -0.39923292 
0.4494877 -0.67662585 -0.58321387 
-0.110839374 -0.76539916 -0.6339391 
-0.27717367 -0.5519257 -0.78648126 
-0.4547402 -0.6864587 -0.56743795 
-0.4748288 -0.65514636 -0.5876401 
0.16622716 -0.36337203 -0.9166949 
-0.024455998 -0.6671317 -0.7445383 
-0.08970882 -0.9942466 0.05853265 
-0.2368663 -0.9287123 -0.28528556 
-0.5956503 -0.6109961 -0.52142555 
-0.13687937 0.124925554 -0.9826789 
-0.37708005 -0.6203711 -0.6877139 
0.12297035 0.49359 -0.86095715 
0.5177168 0.2862134 -0.80625767 
0.51992863 0.12765193 -0.84461784 
0.17479599 0.27728543 -0.9447535 
0.06255199 0.27066767 -0.96063846 
-0.43623823 0.48797527 -0.75602674 
-0.13279074 -0.14884731 -0.9799037 
-0.17477275 -0.5107435 -0.8417812 
0.0283751 -0.6600271 -0.75070584 
0.6166248 -0.2583102 -0.7436732 
-0.09817169 -0.90209854 -0.4202149 
-0.541483 -0.53743356 -0.6464994 
0.03954452 -0.88052964 -0.4723388 
0.10859984 -0.0722233 -0.9914585 
-0.18388507 0.19433296 -0.9635461 
-0.23346925 -0.26605737 -0.935257 
-0.92188376 -0.062609605 -0.38237464 
-0.4985336 -0.74280876 -0.44687754 
-0.30856577 -0.79379594 -0.52409464 
-0.36768755 -0.43581218 -0.82150704 
0.4066276 0.4798371 -0.7774383 
-0.22625057 0.25090218 -0.9412007 
-0.36177242 0.29156986 -0.8854986 
-0.7488031 0.35890526 -0.5572082 
-0.12721367 0.26843178 -0.9548618 
0.01948215 -0.62807983 -0.77790505 
-0.4227856 0.11091769 -0.8994163 
0.010723671 -0.18480012 -0.98271763 
0.7345551 -0.42223045 -0.53117824 
0.57226163 -0.12210597 -0.81092966 
0.21776466 -0.40639266 -0.887369 
0.16359289 -0.18609945 -0.968816 
0.59127474 0.15331773 -0.79176253 
0.032641765 0.51164544 -0.8585765 
-0.01880652 -0.5368068 -0.84349555 
0.77688444 -0.2226589 -0.5889599 
-0.2480591 0.47021922 -0.8469714 
-0.63701946 0.109545514 -0.76302433 
-0.29305553 -0.077323444 -0.95296365 
-0.13144675 -0.89859587 -0.41862565 
0.7636189 -0.58179885 -0.27999347 
0.11315149 -0.5742049 -0.8108548 
-0.0028083858 -0.15395305 -0.9880742 
-0.18297294 -0.29412806 -0.93808836 
-0.4610183 -0.20591302 -0.86316985 
-0.5737365 -0.5553375 -0.60201883 
-0.029064907 -0.15605736 -0.9873203 
-0.52144015 0.3276947 -0.78785557 
-0.5199415 0.25781012 -0.8143678 
-0.7713905 0.008387209 -0.63630676 
0.53964865 -0.28590333 -0.7918577 
-0.3645409 -0.532796 -0.7637005 
-0.6027816 -0.40843835 -0.68544334 
0.10850073 -0.65021706 -0.7519611 
0.41368192 -0.8669773 -0.27788088 
0.2618467 -0.9610748 -0.08815695 
0.001749219 -0.8465616 -0.53228796 
-0.5678793 -0.46739057 -0.6775391 
-0.33392033 -0.4987645 -0.799832 
-0.5419179 -0.4264554 -0.72419673 
-0.8135952 -0.15229638 -0.5611317 
-0.47972366 -0.017807903 -0.87723887 
0.08587126 0.5123555 -0.8544694 
0.112969376 -0.0053767688 -0.993584 
0.2852434 0.5260849 -0.80116856 
0.061532445 0.4406102 -0.89558727 
-0.5053008 -0.21942952 -0.8345789 
-0.27650493 -0.5599929 -0.7809949 
-0.26586375 -0.5613796 -0.78368956 
-0.43353763 -0.43253237 -0.7905447 
-0.230541 -0.4388244 -0.8684952 
0.038486578 -0.70244163 -0.7107001 
-0.11944621 -0.8455899 -0.5202983 
0.16893806 -0.3149945 -0.93393713 
-0.25116944 0.02888818 -0.967512 
-0.2555428 0.11225362 -0.9602589 
0.18660483 0.34878308 -0.9184384 
0.29982054 0.037458148 -0.95326 
0.3568816 -0.06321761 -0.93200815 
0.31726515 0.5126253 -0.7978461 
0.30149058 0.34717572 -0.8880161 
0.32904384 -0.08914885 -0.94009715 
0.4199335 0.24135408 -0.87487376 
-0.6997284 0.05023257 -0.71264076 
-0.20508252 -0.17517537 -0.96294075 
0.1968237 -0.13695988 -0.9708256 
-0.15527178 -0.64132446 -0.7513945 
0.13007051 -0.5930576 -0.7945845 
-0.32960653 -0.67238224 -0.6627682 
0.26580697 -0.4653484 -0.8442734 
0.5290473 -0.5362056 -0.65771765 
0.5760934 -0.016907113 -0.817209 
0.11791203 -0.005371093 -0.99300957 
0.44150788 0.19850512 -0.87502366 
0.62250566 0.02843832 -0.78209853 
-0.17713809 0.7044701 -0.6872729 
0.0978737 0.016014548 -0.99507 
0.34360474 -0.40760672 -0.8460453 
0.18918784 0.09512615 -0.97732246 
0.4725085 0.06886002 -0.8786319 
0.34431243 -0.14403082 -0.92774135 
-0.61362165 -0.39014447 -0.68648076 
-0.81777465 0.04563144 -0.57372683 
-0.716545 0.16016765 -0.67890334 
-0.37348866 0.02848353 -0.92719734 
-0.34470397 0.012415839 -0.9386293 
0.462729 -0.38243508 -0.7997658 
-0.49202928 -0.41510049 -0.76524425 
-0.33601877 0.4658439 -0.81858474 
-0.3576642 0.24432527 -0.9013222 
0.21687563 0.57661265 -0.7877073 
0.5053428 0.53161836 -0.6797137 
0.056436468 0.76074725 -0.6465899 
-0.03517151 0.3641393 -0.93068016 
-0.4848725 -0.045476843 -0.8734017 
-0.46673936 0.067106925 -0.8818453 
-0.4892151 -0.1670147 -0.8560226 
-0.20518716 -0.6110838 -0.7645095 
-0.38651353 -0.06101349 -0.9202634 
-0.3985841 0.17330126 -0.9006095 
-0.1864073 0.66215336 -0.7258135 
-0.15832394 0.40893546 -0.8987244 
-0.44698536 -0.13821268 -0.8837994 
0.15363729 -0.12441075 -0.980264 
0.011011322 -0.69178236 -0.7220221 
-0.49948686 -0.5846206 -0.63932127 
-0.29863855 0.64227796 -0.7058995 
-0.10189355 0.6664245 -0.73857707 
-0.3287552 0.85299814 -0.40535688 
-0.41691962 -0.071810074 -0.90610224 
-0.25475132 -0.36993602 -0.89344794 
-0.06967286 -0.49540636 -0.8658628 
-0.16520739 -0.15231325 -0.9744266 
0.090145975 -0.44669333 -0.8901342 
0.5101679 -0.30273077 -0.80503595 
-0.12373445 0.07299446 -0.989627 
-0.11621669 0.3283069 -0.9373944 
0.14325185 0.49075156 -0.8594428 
0.25799814 -0.124100864 -0.9581419 
0.77300644 0.43412894 -0.4625938 
0.028187992 0.79576963 -0.60494316 
0.23945749 0.6865823 -0.6864874 
-0.22119227 0.9460063 -0.23695196 
-0.1948599 0.6638065 -0.7220738 
-0.39272755 0.3876729 -0.83395135 
-0.8099051 -0.070742235 -0.5822794 
0.2964744 -0.12729265 -0.9465197 
0.14814389 0.4681794 -0.87112653 
-0.1272144 0.74559057 -0.65414923 
-0.64427894 0.74769753 -0.16078946 
-0.24536149 -0.1476278 -0.95812523 
0.26926637 -0.42445517 -0.86448455 
0.5426427 0.05298865 -0.8382906 
-0.004042579 -0.19353275 -0.98108554 
0.24967468 -0.025671592 -0.96798944 
-0.5009909 -0.056010194 -0.8636382 
0.23456785 -0.17496632 -0.9562242 
0.67473245 0.08230831 -0.7334586 
0.80499214 0.5081017 -0.30630118 
0.14821473 -0.48611698 -0.86123323 
-0.24434875 -0.89530617 -0.37245232 
-0.061507758 -0.95260715 -0.29792032 
-0.35443062 -0.75119275 -0.556856 
0.110662274 -0.42750943 -0.8972122 
0.6306409 -0.0062772287 -0.7760494 
0.1285332 -0.104950026 -0.9861363 
-0.2870818 -0.26661414 -0.9200549 
-0.18008836 0.3897446 -0.903143 
-0.067339845 -0.49033514 -0.8689286 
0.53167784 -0.3947073 -0.7493497 
0.055111732 0.055282917 -0.99694866 