# OOMMF: rectangular mesh v1.0
# Segment count: 1
# Begin: Segment
# Begin: Header
# Desc: Time (s) :  8.290000000000021e-07
# Title: m
# meshtype: rectangular
# meshunit: m
# xbase: 2e-09
# ybase: 2e-09
# zbase: 5e-10
# xstepsize: 4e-09
# ystepsize: 4e-09
# zstepsize: 1e-09
# xmin: 0
# ymin: 0
# zmin: 0
# xmax: 1.024e-06
# ymax: 1.024e-06
# zmax: 1e-09
# xnodes: 256
# ynodes: 256
# znodes: 1
# ValueRangeMinMag: 1e-08
# ValueRangeMaxMag: 1
# valueunit: 
# valuemultiplier: 1
# End: Header
# Begin: Data Text
0.4424024 -0.25494543 -0.8598157 
0.10529851 -0.28538764 -0.9526102 
-0.04941711 -0.33773464 -0.9399433 
-0.49287632 -0.50249135 -0.7103347 
-0.45585093 -0.6912034 -0.5607475 
-0.3127271 -0.29858685 -0.90169156 
0.03327709 0.1606443 -0.9864513 
0.17512062 -0.18036976 -0.96788406 
-0.03991914 -0.10846219 -0.9932988 
0.6568292 0.14981554 -0.7390067 
-0.01312839 -0.012764837 -0.9998324 
-0.21752816 -0.609381 -0.76245415 
0.17305812 -0.7944476 -0.5821545 
-0.23276399 -0.12525485 -0.96443367 
-0.10188868 -0.13096671 -0.9861371 
0.17704701 -0.3685086 -0.9126093 
-0.66517985 -0.71094686 -0.22823319 
-0.40235552 -0.24993464 -0.8807059 
0.07868636 -0.44193408 -0.89358985 
-0.49788797 0.07675807 -0.8638378 
-0.9540884 -0.0822911 -0.28799948 
-0.33324596 -0.33714935 -0.8804985 
0.30244067 -0.53978443 -0.7855969 
0.15072924 -0.16260093 -0.9751111 
-0.5540644 -0.24811202 -0.7946403 
-0.7359295 -0.62178576 -0.26793718 
-0.18811795 -0.75519514 -0.6279267 
-0.49617648 -0.85873127 -0.12802161 
-0.2318459 -0.19526267 -0.9529533 
0.48785606 -0.095567785 -0.867677 
0.9543051 -0.15529111 -0.25531647 
0.07400954 -0.8656466 -0.49515507 
-0.00016600941 -0.67724633 -0.73575634 
-0.17455211 -0.84972465 -0.4974933 
-0.44431663 -0.34552786 -0.8265551 
-0.3165417 -0.24473287 -0.9164645 
0.131223 -0.89706486 -0.42196575 
0.52985245 -0.3007287 -0.7929809 
0.40012574 0.4513421 -0.797615 
0.26574165 0.95837754 0.10437412 
-0.3613018 0.91043997 -0.20139547 
-0.055768438 0.47945935 -0.87579024 
-0.6827038 -0.032056097 -0.72999173 
0.3011772 -0.6003239 -0.74088025 
-0.101076216 0.12901796 -0.98647755 
0.4487836 -0.4586962 -0.76693624 
0.88562256 0.013839891 -0.4641997 
0.7489646 -0.24888687 -0.6140907 
-0.18902649 0.07052472 -0.9794362 
0.46791014 -0.3914369 -0.7923618 
0.21774395 -0.20911916 -0.9533398 
0.1332813 -0.1961648 -0.97147083 
-0.25349107 -0.18418534 -0.94964105 
-0.25949618 0.06412851 -0.9636127 
-0.10696096 0.3105907 -0.9445067 
0.05708335 0.083293125 -0.9948888 
-0.3759601 -0.64631295 -0.66402835 
0.4339597 -0.28767145 -0.85377055 
0.46175635 -0.2921684 -0.83750737 
0.3093997 -0.75882274 -0.5731142 
0.4032069 -0.6742117 -0.6187592 
-0.18945207 -0.7847876 -0.5900987 
-0.047000017 -0.788054 -0.6138094 
-0.015739702 0.0025923771 -0.9998728 
-0.27296743 -0.31841612 -0.9077995 
-0.4979854 -0.5095399 -0.70169777 
0.2919326 -0.27847284 -0.91500175 
0.5437217 0.3917913 -0.7422038 
0.8348986 -0.49498075 -0.240704 
0.1784335 -0.799754 0.57319725 
-0.3389955 -0.8335138 0.43627608 
0.3239998 -0.56723905 -0.757142 
-0.32573533 -0.57660395 -0.74928266 
0.62190896 -0.7434933 -0.24585956 
0.42769986 -0.5013167 -0.7521665 
0.38047114 0.13716158 -0.9145647 
0.529717 -0.13876519 -0.83674616 
0.65269965 0.017521523 -0.75741416 
0.53450656 0.2628503 -0.80325127 
-0.36569464 0.0072733723 -0.93070656 
-0.5400857 -0.3799048 -0.7509859 
-0.7417676 -0.51637185 -0.42794988 
-0.39462078 -0.5684465 -0.7219024 
-0.2734842 -0.55804324 -0.7834502 
-0.7704739 0.01634027 -0.6372621 
-0.8846958 -0.35785973 -0.2987472 
-0.7217038 -0.22805636 -0.65355486 
-0.399839 -0.3468161 -0.84843826 
-0.19488421 -0.25603852 -0.94681805 
-0.29229447 0.008554822 -0.9562901 
0.31328145 -0.29562917 -0.90247333 
0.016718127 -0.9404333 -0.33956686 
-0.33134905 -0.11192515 -0.9368461 
0.5858298 -0.55693537 -0.58875006 
0.05047758 -0.52733976 -0.8481539 
0.2506834 0.17183097 -0.9526972 
-0.5783552 0.26058048 -0.7730479 
-0.21961686 -0.4347471 -0.87336326 
-0.501113 -0.77454716 -0.38595656 
-0.6185611 -0.49313548 -0.6117186 
-0.3430257 -0.80847704 -0.47822404 
-0.6429265 -0.5791772 -0.5011978 
0.3426864 0.050631747 -0.9380845 
0.65795934 -0.3754126 -0.6528055 
-0.16538993 -0.7367975 -0.6555728 
0.45591462 -0.42733014 -0.7807246 
-0.71893233 -0.33091208 -0.6112557 
-0.6851336 -0.7184301 -0.12020901 
-0.27870107 -0.9401152 -0.19623771 
0.33840927 -0.9405893 0.027768191 
-0.06433594 -0.9693296 -0.23719405 
-0.38781118 -0.04772533 -0.92050254 
-0.051829305 -0.07357944 -0.9959417 
0.17830916 -0.14335474 -0.97347593 
0.14329208 -0.110034056 -0.98354465 
0.13943608 -0.05812998 -0.98852336 
0.20876996 0.53942 -0.8157458 
0.19213593 0.2635225 -0.9453252 
0.7193007 0.20005937 -0.66526896 
0.2542808 -0.24470317 -0.93566114 
0.38867077 0.09901363 -0.91604114 
-0.12412587 0.016622325 -0.99212724 
-0.28949255 0.11318291 -0.950465 
-0.011117181 -0.6040663 -0.7968565 
0.051609766 0.3528682 -0.9342487 
0.12773912 0.0842534 -0.98822266 
-0.049828324 -0.59656227 -0.8010185 
0.038502645 -0.27720615 -0.9600387 
-0.2254305 -0.76238555 -0.60658836 
0.1733288 -0.4085768 -0.89611506 
0.5692303 -0.37605208 -0.73113734 
0.26394668 -0.7056823 -0.65752935 
-0.042573478 -0.8273063 -0.56013566 
0.51326126 -0.7568543 -0.4046411 
0.41948608 -0.5510249 -0.7213896 
-0.09044154 -0.29459405 -0.9513331 
0.3448642 -0.76139 -0.5489573 
0.30294785 -0.38852167 -0.87021464 
0.8401791 -0.54228544 -0.0050785113 
0.26804867 -0.84976906 -0.45391923 
-0.6253303 -0.7802524 -0.012971789 
0.26762006 -0.82709265 -0.4942644 
-0.049691133 -0.702519 -0.70992815 
-0.62626284 -0.46075568 -0.62888724 
-0.820825 0.15331586 -0.5502187 
-0.29739088 0.072498985 -0.95199925 
-0.02245785 0.3190258 -0.94747996 
0.10056105 0.33768514 -0.9358719 
-0.3728419 -0.40282232 -0.8358967 
0.41463447 -0.52659184 -0.7421451 
0.0050740205 -0.83090514 -0.55639094 
-0.078600004 -0.96243376 -0.259891 
0.05564418 -0.98963434 0.13239202 
0.24360175 -0.6482088 -0.72144556 
0.44427902 -0.69854623 -0.5609362 
0.34407172 -0.5997167 -0.7224642 
0.4013004 0.12629782 -0.90719724 
-0.6948641 0.21226469 -0.6871009 
-0.15573281 -0.31517297 -0.93616956 
0.45335424 -0.127648 -0.8821429 
0.9840208 0.12285369 -0.12887947 
0.25132057 -0.813097 -0.5250823 
0.3217698 -0.48061293 -0.81576675 
0.6837628 -0.725745 0.07591281 
0.8815424 -0.15748769 -0.44506258 
0.4570928 -0.19691099 -0.8673479 
0.14365397 0.6196439 -0.77162486 
0.08205736 -0.32704684 -0.9414388 
0.20242752 -0.8594433 -0.46944687 
0.22454306 -0.97312385 0.051091928 
0.3325999 -0.93599033 0.115323186 
0.5469955 -0.83328694 0.08018066 
-0.0100513995 -0.65274304 -0.7575127 
-0.32970864 -0.17477012 -0.9277649 
-0.069352165 -0.37319177 -0.92515856 
-0.09122754 -0.46918502 -0.8783752 
-0.32575643 -0.09969351 -0.9401829 
-0.33326888 0.06258043 -0.9407527 
-0.5516582 -0.317666 -0.7712078 
-0.37073687 -0.5313971 -0.7616898 
-0.24453808 -0.22598305 -0.94293845 
-0.30335054 -0.40505585 -0.8625012 
-0.46539977 -0.2720806 -0.84224415 
0.26510075 -0.61706275 -0.7409152 
-0.375698 -0.6810218 -0.6285383 
-0.19340187 -0.93463117 -0.29842982 
-0.19810864 -0.6816892 -0.7043102 
-0.19781241 -0.54375756 -0.81559676 
-0.36269116 -0.2115602 -0.90757775 
-0.093933634 -0.9844797 -0.14824404 
-0.18642928 -0.9300558 -0.3166078 
-0.63439125 -0.73580086 0.23694907 
-0.8499816 -0.2209188 -0.47825313 
-0.40023515 -0.3096836 -0.8625009 
-0.28517386 -0.41182804 -0.86549044 
0.19067717 -0.43638137 -0.8793257 
0.25108096 -0.53982544 -0.80345935 
0.37217745 -0.7080222 -0.6001571 
0.44658184 -0.68431854 -0.5764311 
-0.35252059 -0.91902643 0.17640805 
-0.08721253 -0.6768979 -0.7308922 
0.29399598 -0.6297213 -0.7190393 
0.18391478 -0.87843233 -0.44105798 
-0.20814987 -0.6774025 -0.7055491 
0.49382794 -0.27236804 -0.82580245 
0.28588974 -0.26988864 -0.91947114 
0.9007369 0.0017463621 -0.43436155 
0.26229545 -0.67983204 -0.6848573 
0.1725429 0.025395693 -0.9846746 
0.028313775 -0.06544407 -0.9974545 
0.7675846 -0.10644735 -0.6320465 
0.72134876 -0.5194235 -0.45809966 
0.056332186 -0.55309045 -0.8312146 
-0.10925848 -0.63960254 -0.7609016 
0.8372058 -0.45662013 -0.30097273 
-0.2565765 -0.8968153 0.36040384 
-0.68825215 -0.7153202 0.12093823 
-0.53884596 -0.8019723 -0.25784773 
-0.31634444 -0.46478274 -0.8269844 
-0.74317664 -0.024585366 -0.6686435 
-0.5434852 0.2573493 -0.7989963 
0.37551335 0.1660271 -0.91182494 
0.07718868 -0.8692579 -0.4882958 
-0.17172994 -0.9829319 -0.065982975 
-0.76188046 -0.3802996 -0.524319 
-0.33502185 0.03842232 -0.94142663 
-0.59676397 -0.52617776 -0.6058133 
-0.6067523 0.35736707 -0.7100285 
-0.65598345 0.0020432973 -0.7547726 
-0.33231315 -0.27628654 -0.90179473 
-0.16332094 0.20788768 -0.9644216 
-0.16495004 -0.4281988 -0.88850284 
0.7078017 -0.42604202 -0.56347585 
0.1104504 -0.25616613 -0.96030194 
0.12700218 0.7276946 -0.6740409 
-0.42244402 -0.13142972 -0.8968096 
0.093818195 0.28893635 -0.95274025 
0.4695166 -0.37663004 -0.7985638 
0.96777064 -0.119237915 -0.22181599 
0.73644704 0.48557737 -0.47102073 
0.9979213 -0.059372213 0.025062244 
0.4015994 -0.82849824 0.39026734 
0.50065666 -0.8198002 0.27797619 
0.24539387 -0.92431647 0.2922685 
0.7244152 -0.68474394 -0.079677284 
0.36524776 -0.40837076 -0.8365569 
0.15682442 -0.97974986 0.12448474 
0.36064517 -0.91495556 -0.18108389 
0.022238258 -0.08988386 -0.99570394 
-0.052841764 -0.59880644 -0.7991488 
0.06039475 -0.059769846 -0.9963835 
-0.10551444 -0.2464777 -0.96338755 
-0.43086272 -0.834557 -0.3433248 
-0.27260432 0.5918176 -0.75857687 
0.07704028 0.77215177 -0.6307508 
0.42649537 0.90300083 -0.051878657 
0.54699713 -0.28841096 -0.7858837 
0.1996365 -0.81276274 -0.54732263 
-0.05693041 -0.26338932 -0.96300834 
-0.2785568 -0.23793636 -0.9304797 
-0.69415873 -0.5627805 -0.4488004 
-0.5088078 -0.676207 -0.53278404 
-0.42326146 -0.63850766 -0.64277357 
-0.23285593 -0.30369148 -0.9238776 
-0.40695053 -0.16799667 -0.8978689 
0.38720426 0.4136676 -0.82398546 
0.18549971 0.33483332 -0.9238379 
0.25430858 -0.29837853 -0.9199443 
0.30279312 -0.47158158 -0.82820714 
-0.24810477 0.15920325 -0.9555619 
0.072148845 -0.33164856 -0.94064015 
-0.26395088 -0.7749258 -0.5742995 
-0.66866106 -0.5884859 -0.45450714 
-0.080015115 -0.4604549 -0.88406956 
-0.41493833 -0.23926452 -0.8778261 
-0.40959775 -0.508803 -0.7571983 
-0.6856965 0.32304734 -0.6522736 
-0.8127285 0.15635933 -0.56127006 
-0.27708316 -0.6909506 -0.66769177 
-0.40224117 -0.37644085 -0.8345623 
-0.6508431 -0.4558588 -0.60712117 
-0.38108608 -0.5027889 -0.7758716 
-0.07159148 -0.6833084 -0.72661155 
-0.42237028 -0.6087591 -0.67157716 
-0.020981582 -0.10954039 -0.9937609 
-0.3855927 -0.54172957 -0.74689186 
0.019801432 0.2547275 -0.9668101 
0.33544278 -0.58960485 -0.73474103 
-0.056525033 -0.5615331 -0.82552135 
-0.5010151 -0.4988151 -0.70722514 
-0.25983444 -0.44381854 -0.85761946 
0.20268436 -0.22167176 -0.9538242 
-0.24489899 -0.41170934 -0.87779266 
0.02647473 0.13465682 -0.99053854 
0.58513486 0.31821382 -0.74589354 
0.15154023 0.8616211 -0.48440132 
-0.24966481 0.74580383 -0.6176117 
-0.13878307 0.81419796 -0.5637561 
-0.46003407 0.64071757 -0.6146948 
-0.46216944 0.2820834 -0.84073097 
0.043789696 -0.26590413 -0.96300447 
0.2703877 -0.23130378 -0.93455285 
-0.06315642 -0.3529658 -0.93350226 
0.28151706 -0.24617325 -0.927441 
-0.1945618 -0.8934089 -0.40492755 
0.17255573 -0.5276719 -0.8317373 
0.76425034 -0.17745301 -0.62002563 
0.7322269 -0.5352268 -0.4211604 
-0.013725728 -0.19308904 -0.98108524 
0.017155984 -0.4530706 -0.8913095 
0.056900725 -0.20095272 -0.977947 
-0.3114526 -0.3382517 -0.88802207 
-0.2215166 -0.5848954 -0.7802743 
-0.35692835 0.5274777 -0.7709537 
-0.045108713 -0.27449661 -0.96052945 
0.38985354 0.024953429 -0.9205388 
0.8631527 -0.3472854 -0.3665519 
0.4935774 0.029380502 -0.8692056 
0.13260488 -0.6161161 -0.77641296 
-0.06554921 -0.029326156 -0.99741834 
0.48338324 -0.13932958 -0.86425 
0.019411027 -0.12468261 -0.9920068 
0.4320294 0.22768961 -0.87264436 
0.43280658 0.089023724 -0.8970804 
0.20249733 -0.08738288 -0.9753764 
0.29557157 -0.40421185 -0.8655925 
0.36700538 -0.28865182 -0.8843004 
0.49035245 -0.8470986 0.20488644 
-0.16711213 -0.82503015 -0.53981364 
0.113461345 -0.7017687 -0.7033117 
0.21163858 -0.39768392 -0.89278036 
0.5150194 0.22835687 -0.826201 
0.5267184 0.17788273 -0.83121926 
0.11589763 0.20214407 -0.9724739 
0.7218773 0.33736405 -0.6042175 
-0.52649707 0.014659038 -0.8500505 
-0.11599977 0.11999842 -0.98597383 
-0.34727964 -0.40137592 -0.8475225 
-0.3933062 -0.19769184 -0.89790213 
-0.5114006 -0.13617118 -0.848485 
-0.044110276 -0.7137873 -0.6989721 
-0.19591162 0.04074252 -0.97977483 
0.3955809 0.17483613 -0.9016364 
0.0935099 -0.066425666 -0.9934 
0.58896095 0.3227323 -0.74092436 
-0.5603236 0.4543802 -0.69251436 
0.004489655 0.6928947 -0.7210249 
-0.53704464 -0.15785538 -0.8286524 
0.26827705 -0.5434012 -0.79545116 
0.1668773 -0.89134663 -0.42148915 
-0.37408715 0.445562 -0.813347 
-0.25324434 0.41467327 -0.8740215 
-0.23462872 -0.30310956 -0.92362005 
-0.06095612 -0.3163543 -0.9466807 
-0.40992773 -0.70778036 -0.57533145 
-0.46886244 -0.1663008 -0.86747456 
0.05689542 0.08533676 -0.9947264 
0.19111983 -0.46768406 -0.86298597 
0.6836138 -0.38483974 -0.6201377 
0.3622827 0.26044807 -0.8949403 
-0.45055422 -0.5595381 -0.6956422 
-0.226648 -0.65305656 -0.722598 
-0.4082896 -0.11918591 -0.90503836 
-0.273892 -0.20071791 -0.9405826 
0.21345623 -0.8175768 -0.5347939 
-0.38025182 -0.81543785 -0.43642816 
-0.39486432 -0.7408886 -0.54329216 
0.02271272 0.75936943 -0.6502633 
0.23661755 0.5267844 -0.8164008 
0.2045283 0.26110536 -0.943394 
-0.13113791 0.25218204 -0.9587529 
0.7131781 0.31563023 -0.6259031 
0.66920155 -0.308677 -0.67593485 
0.7047663 -0.21177424 -0.6770939 
0.5219707 0.2242252 -0.82296395 
0.2706714 -0.51451755 -0.8136392 
0.23118572 0.04743485 -0.97175264 
0.09260835 -0.14569901 -0.984985 
0.1708239 0.076122135 -0.98235667 
-0.08523256 0.99223864 -0.090541914 
-0.3168527 0.34322295 -0.884196 
-0.46973053 -0.7180132 -0.5136247 
-0.29497918 -0.47875783 -0.8269089 
-0.067573436 -0.22518685 -0.97196954 
-0.490099 -0.33341536 -0.8053802 
-0.2217033 -0.29843107 -0.9283246 
-0.08659852 -0.85275227 -0.51508665 
0.39668378 -0.74595493 -0.5349704 
0.54023707 -0.20264222 -0.81674963 
0.055181563 -0.8826776 -0.46672824 
-0.24572456 -0.22738086 -0.9422937 
-0.40724745 -0.2071585 -0.88951397 
0.13823125 -0.32454765 -0.93571424 
0.5377666 -0.23994742 -0.808228 
0.5741505 -0.2694471 -0.7731426 
0.32259285 -0.50175035 -0.80260855 
-0.083933055 -0.69986886 -0.7093228 
-0.30297443 -0.60507977 -0.7362643 
-0.42458305 -0.3119209 -0.8499616 
-0.700602 0.48275337 -0.5254581 
-0.7523775 0.34802112 -0.55929375 
-0.27577978 0.85614115 -0.43699858 
-0.6913608 0.33595735 -0.63965064 
-0.2809014 0.87986803 -0.38331008 
0.0012883301 0.19269553 -0.9812578 
0.45621324 0.34205696 -0.8215027 
0.7008262 -0.5635391 -0.43734023 
-0.007835296 -0.7654332 -0.6434678 
-0.12960908 -0.865827 -0.48326504 
0.56939614 -0.55072206 -0.6103223 
0.8855293 -0.3995546 -0.23705296 
-0.6698974 -0.10092039 -0.7355628 
0.06649426 0.48908553 -0.86969763 
-0.19684096 0.14814977 -0.96917766 
0.25949606 0.24030767 -0.9353684 
-0.19690543 -0.00459267 -0.98041177 
0.3066297 -0.5196475 -0.79746157 
-0.16769937 -0.43582267 -0.8842712 
0.46106216 -0.34608224 -0.8170978 
-0.036767147 -0.8191021 -0.5724684 
0.8821032 -0.46814594 -0.052280873 
0.8543453 -0.49566892 -0.15622537 
0.07967763 -0.28210604 -0.95606893 
0.19258542 -0.3614616 -0.91228086 
0.024727475 -0.31064174 -0.9502054 
-0.08564492 -0.6833196 -0.7250789 
0.15509036 -0.61228436 -0.77527726 
0.13154416 0.010695615 -0.99125266 
-0.060740888 -0.69094217 -0.7203537 
-0.24615301 -0.8878097 -0.38884813 
0.12391414 -0.53332686 -0.83678424 
-0.5597999 -0.27254158 -0.7825249 
-0.5162112 -0.5608617 -0.6472714 
0.54617876 0.45088735 -0.70596707 
0.26108125 0.57138604 -0.7780453 
-0.40562865 -0.08477543 -0.9100981 
-0.026959011 0.035231438 -0.99901557 
0.26533568 -0.39496604 -0.8795447 
-0.47928134 -0.47386602 -0.7387425 
0.03756744 -0.6832138 -0.72925144 
-0.45385578 -0.5238453 -0.72083354 
-0.24131353 -0.68529034 -0.6871281 
0.06249316 -0.86471426 -0.4983611 
0.23399886 -0.5840389 -0.7772665 
0.14590852 -0.42999455 -0.8909633 
-0.08530822 -0.84352845 -0.53026617 
-0.7725237 -0.6070103 -0.18640211 
-0.38496715 -0.71818763 -0.57966095 
-0.5431772 0.09821287 -0.8338542 
0.24879383 -0.36841422 -0.8957526 
0.16833737 0.05366782 -0.9842674 
0.1632208 -0.7509831 -0.6398309 
0.13975134 0.03404615 -0.98960114 
0.59086186 0.26856267 -0.7607605 
0.8464159 -0.2521197 -0.46905842 
-0.2980504 -0.9007691 -0.3158813 
-0.65932196 -0.38449678 -0.646109 
-0.69459546 -0.11084876 -0.71080923 
-0.09659985 -0.581797 -0.8075771 
0.4962263 -0.69422805 -0.52135104 
0.7950291 -0.09755777 -0.5986746 
0.011911191 -0.7802984 -0.6252941 
0.0073222355 -0.92152077 -0.38825995 
0.2634677 -0.3572988 -0.89605933 
0.3559709 -0.21045482 -0.9104908 
-0.1184124 -0.083748735 -0.98942643 
0.52494365 -0.21254742 -0.82417095 
0.6561596 -0.395172 -0.6428793 
0.25287303 -0.74769163 -0.61401343 
0.19236945 -0.5795439 -0.791911 
0.69620043 -0.439462 -0.56760746 
-0.2791734 -0.92069554 0.27273065 
-0.41693813 -0.8989981 0.13403384 
-0.3637887 -0.4963472 -0.78822416 
0.093690336 0.19017473 -0.9772696 
-0.44287777 -0.29200917 -0.8476969 
-0.44498828 -0.39765003 -0.80240875 
-0.49148378 0.76844907 -0.40979248 
-0.41981077 -0.11604144 -0.900163 
-0.48612443 -0.6136458 -0.6221913 
-0.664135 -0.2880801 -0.68988013 
-0.54922235 -0.063010104 -0.8332975 
-0.4204931 -0.57975197 -0.6979063 
-0.32612476 0.18842874 -0.926357 
-0.14553837 0.072175905 -0.9867164 
0.18104915 -0.042051848 -0.9825746 
-0.42923415 0.0891943 -0.8987784 
-0.14379165 0.36156815 -0.9211908 
-0.249243 0.074420124 -0.96557736 
-0.1795251 -0.11562843 -0.97693443 
0.18376124 0.119841434 -0.9756382 
0.16809353 -0.33745208 -0.92621315 
0.14190991 0.07266533 -0.98720884 
0.54051214 -0.56064314 -0.62731653 
0.9355181 -0.25318387 -0.24638152 
0.8692284 -0.24696885 -0.42830864 
0.8787871 -0.17640339 -0.4434132 
0.49024317 -0.87155354 -0.0074951407 
0.8827323 -0.46872488 0.032875217 
0.70042264 -0.70524246 -0.10973258 
0.4441091 -0.64017534 0.62685144 
0.02704455 -0.9275307 -0.37276736 
0.38620776 -0.91447514 -0.120743126 
0.29748347 -0.35217917 -0.887397 
0.16678105 -0.9837206 -0.06691714 
-0.047578234 -0.9718218 -0.23086545 
-0.3405464 -0.7580156 -0.5562738 
0.37650082 -0.019093227 -0.9262196 
0.12151724 0.1538123 -0.9805995 
0.023490295 0.82445437 -0.5654408 
0.27540427 0.82279325 -0.49715576 
0.684978 0.5605181 -0.46542963 
-0.18976513 0.5667431 -0.8017429 
-0.13059203 -0.048089217 -0.9902693 
-0.30660105 0.17645547 -0.93533915 
0.09740863 -0.099721424 -0.990236 
-0.07757236 -0.083760574 -0.993462 
-0.08911098 -0.0007269943 -0.9960215 
-0.8997617 -0.43206358 -0.061237995 
-0.86812055 -0.040887583 -0.4946664 
0.07587256 0.26319453 -0.9617547 
0.2515955 0.32044426 -0.9132444 
0.7466823 0.41892594 -0.51668817 
0.39010552 0.38700694 -0.83548987 
0.5017136 0.16629721 -0.8488986 
0.11635388 -0.14193317 -0.9830141 
-0.18859024 -0.31967294 -0.9285704 
-0.0044559697 -0.23523448 -0.9719284 
-0.53214383 -0.14789695 -0.8336362 
-0.25865677 0.0307839 -0.9654787 
0.025807515 -0.12099824 -0.9923172 
-0.013217119 -0.34495825 -0.93852496 
-0.47838807 0.23734719 -0.8454652 
-0.85726416 0.07844729 -0.50886565 
-0.2826364 -0.23550166 -0.92986864 
-0.42914453 -0.34520474 -0.83466685 
-0.12560724 -0.06566222 -0.9899047 
-0.5438538 -0.3330359 -0.77026635 
-0.530343 -0.6657625 -0.5248777 
0.10036573 -0.1425503 -0.98468584 
-0.83272994 0.4631871 -0.3033456 
-0.41546172 -0.7694583 -0.48510376 
-0.15951735 0.293819 -0.9424567 
0.47925985 -0.6713573 -0.56532246 
-0.065890335 0.047604654 -0.9966907 
0.14103992 -0.14694378 -0.97903794 
-0.5215854 -0.041926112 -0.8521683 
-0.053377874 -0.39836225 -0.9156737 
-0.53099215 -0.052612416 -0.84574187 
0.13944115 0.4684456 -0.8724191 
0.10997081 0.79398763 -0.59790474 
0.03410737 0.87097263 -0.49014643 
-0.15723218 0.9135937 -0.37499955 
0.24526629 0.77948123 -0.5764144 
0.0595884 0.3756809 -0.9248314 
-0.02405375 0.14184031 -0.9895973 
-0.018742228 0.11765623 -0.99287754 
0.17821825 -0.5927448 -0.78542465 
0.09847918 -0.28462878 -0.95356613 
-0.004464924 0.06261015 -0.9980281 
0.28272635 -0.31481585 -0.90606666 
-0.3498177 -0.497997 -0.7934901 
0.29444414 -0.1856636 -0.9374603 
-0.3178545 -0.3326888 -0.8878551 
0.3152926 -0.26068142 -0.9124889 
-0.2573351 -0.55457747 -0.79134226 
-0.13547274 0.046801288 -0.9896751 
0.4510204 -0.018368814 -0.8923246 
0.109998666 0.13206767 -0.9851185 
-0.2978109 -0.6282688 -0.7187399 
0.09111327 -0.01688776 -0.9956973 
0.7557177 0.50178 -0.42084163 
0.6996831 -0.56205696 -0.44106188 
0.15443967 0.40102917 -0.90295297 
0.003467712 0.10584974 -0.9943762 
0.30351394 0.012195381 -0.952749 
-0.45229587 -0.11826422 -0.8839921 
-0.14642537 0.17349936 -0.9738879 
0.8963016 -0.32825673 -0.29814604 
0.69529694 -0.21624646 -0.68541944 
0.33013928 -0.44989637 -0.82982004 
-0.005579937 -0.560817 -0.827921 
0.034427036 -0.46190226 -0.8862624 
0.36873245 -0.5232558 -0.7682706 
0.038207 -0.8652241 -0.49992743 
0.15167108 -0.64472497 -0.74921674 
0.5347067 0.46708736 -0.7042146 
0.2606977 0.3838298 -0.88583946 
0.47293648 0.23050612 -0.85041046 
0.91979516 -0.2508017 -0.3017872 
0.4708712 -0.15924688 -0.8677102 
-0.31349757 -0.14764261 -0.93804103 
-0.08397866 0.14776126 -0.9854513 
-0.25774056 0.26366234 -0.92954403 
-0.24775304 0.23091474 -0.9409021 
0.15123637 -0.36988163 -0.91668713 
0.2974207 -0.63066727 -0.7167983 
0.15218097 0.10849202 -0.98238 
0.2880979 0.2553561 -0.92292625 
-0.11220709 0.15681733 -0.98123294 
-0.13359499 0.14489982 -0.98038596 
-0.96453756 0.07871548 -0.25193512 
-0.3409211 0.7174377 -0.6074998 
-0.42768067 -0.13146701 -0.8943186 
0.87367827 -0.033420328 -0.48535505 
0.1517012 -0.32434517 -0.9336954 
0.77016824 0.034043714 -0.6369317 
-0.1334282 0.5297679 -0.83758163 
-0.41361237 0.48480907 -0.77063936 
0.20474774 -0.014679348 -0.9787047 
0.16987973 -0.8543283 -0.49118644 
0.5140927 -0.6802864 -0.5224168 
0.74378264 -0.38679737 -0.54513776 
0.23090439 -0.8296562 -0.5082852 
-0.097754896 -0.41816762 -0.90309465 
0.06931361 0.22935866 -0.9708709 
0.35049072 -0.56298125 -0.7484707 
-0.65842515 -0.52652556 -0.5378171 
-0.47941878 -0.5407049 -0.69122785 
-0.3023066 -0.34012726 -0.89046293 
0.28366116 -0.8094602 -0.5141115 
0.54958975 -0.52576536 -0.6492473 
-0.052455023 -0.3966491 -0.91647047 
-0.29667288 -0.49159756 -0.81872886 
0.21513054 -0.3362923 -0.9168568 
0.19386408 -0.028279975 -0.98062074 
0.625126 -0.5356232 -0.56773704 
0.5552323 -0.2459362 -0.7945015 
0.7294783 0.23013197 -0.6441279 
0.52531534 0.101485215 -0.844834 
-0.00987739 -0.21052864 -0.9775378 
0.14949693 -0.9061053 -0.39575726 
-0.09508049 -0.15127145 -0.9839089 
-0.0075725894 0.11448114 -0.99339664 
-0.066040196 0.29688984 -0.9526254 
-0.029674957 0.24736872 -0.9684669 
-0.253284 -0.7707828 -0.5845863 
-0.40343875 -0.33257398 -0.85242695 
-0.07049665 -0.5040805 -0.86077476 
-0.749798 -0.09875947 -0.65425503 
-0.36876908 -0.05951679 -0.92761374 
0.209694 -0.31327432 -0.92622226 
-0.17037222 -0.6729331 -0.71981555 
-0.10654971 0.079726644 -0.99110585 
0.010184054 -0.1937628 -0.9809956 
-0.17761324 -0.034355212 -0.9835006 
-0.43663907 0.07810745 -0.89623976 
-0.32192394 0.3283341 -0.8880101 
-0.46852362 0.023098372 -0.883149 
-0.35878316 0.3156256 -0.8784391 
0.34439984 0.6305826 -0.6955246 
0.59715277 -0.11671708 -0.79359037 
-0.18625787 -0.27011302 -0.9446412 
-0.30529216 -0.58412206 -0.7520627 
-0.8272894 -0.060899463 -0.5584655 
-0.5562787 -0.058845393 -0.8289097 
-0.6125538 -0.11760879 -0.7816304 
-0.5355831 -0.20649117 -0.818848 
-0.05375317 -0.08146495 -0.9952256 
-0.13723698 0.5412487 -0.8295879 
-0.23182213 0.5236947 -0.81975764 
0.45040748 0.13253029 -0.88293207 
0.5774978 -0.1763007 -0.79712886 
0.26315412 -0.7692651 -0.5822209 
-0.30504924 -0.6561106 -0.6902637 
0.010429365 0.16099492 -0.98690015 
-0.16536555 -0.3769687 -0.9113446 
-0.50200516 -0.53028995 -0.68321556 
-0.22893822 -0.5495407 -0.8034876 
-0.035959553 -0.025251936 -0.99903417 
-0.7896586 0.13674144 -0.59811467 
-0.27477995 0.586043 -0.76226616 
-0.26260924 0.10116544 -0.95958436 
-0.12456667 -0.2637153 -0.95652366 
0.24469222 -0.5453673 -0.8016859 
0.05926194 -0.94260347 -0.32861337 
-0.34133366 -0.696186 -0.6315192 
-0.3148953 0.059886836 -0.9472353 
-0.24466538 -0.15791042 -0.95666254 
-0.039523877 -0.50714684 -0.8609529 
-0.03722452 0.27133834 -0.9617639 
0.4474518 -0.002366084 -0.89430493 
0.6389853 -0.05583761 -0.7671897 
0.7202711 -0.4642754 -0.5154202 
0.6772779 -0.031524733 -0.7350517 
0.41345873 -0.15546866 -0.8971518 
-0.53493404 -0.3452157 -0.7711497 
-0.45831606 0.11630018 -0.8811474 
-0.37359113 -0.20426796 -0.9048229 
0.077478915 -0.38048518 -0.9215357 
-0.13423368 0.5515056 -0.8233 
-0.062114436 0.31160864 -0.9481782 
0.2142487 0.20339473 -0.95536804 
0.047383785 -0.08638415 -0.9951345 
0.17112122 -0.48176822 -0.85942835 
-0.4072278 -0.63407046 -0.65735847 
-0.579536 -0.5227961 -0.6251579 
-0.27833223 -0.44084594 -0.8533381 
-0.070539914 -0.2822287 -0.95675033 
-0.6008124 -0.46071464 -0.65327376 
-0.61809283 -0.17524803 -0.766322 
-0.050964188 0.21484382 -0.9753179 
-0.47827753 0.50111526 -0.7212033 
-0.39500192 -0.090924375 -0.91416967 
-0.35952625 0.16770187 -0.9179418 
0.34280062 0.13008562 -0.9303577 
0.16460325 0.13338196 -0.9772999 
0.26516455 -0.7313582 -0.6283336 
0.34124225 -0.3193942 -0.8840481 
0.73969954 0.5173376 -0.4303561 
0.7044607 0.11391018 -0.70054245 
-0.15596773 -0.26154858 -0.9525054 
0.20336622 0.23049767 -0.9515845 
-0.63427484 -0.24197303 -0.7342647 
-0.10342023 -0.22355257 -0.96918964 
0.075470515 -0.09695628 -0.99242324 
0.30735943 -0.6663435 -0.67935014 
0.08864606 -0.47178352 -0.87724704 
0.04641305 0.05332894 -0.9974978 
0.45911428 -0.26096022 -0.8491843 
0.111603595 0.507857 -0.8541814 
-0.20291972 -0.48634833 -0.8498758 
0.17119052 0.58335996 -0.7939679 
-0.12061292 -0.41790125 -0.9004506 
-0.0044532474 -0.62771994 -0.7784266 
-0.021695688 -0.5495923 -0.8351513 
0.9252361 -0.33044815 -0.18639292 
0.64817834 -0.7553406 0.096568026 
0.028600011 -0.9250049 -0.37887728 
-0.12688933 -0.17840193 -0.97574174 
-0.24671315 -0.04419864 -0.96808016 
-0.26429003 0.46427426 -0.84534025 
-0.05779505 -0.8346885 -0.5476814 
-0.5382285 -0.022100016 -0.8425091 
0.03842711 -0.65231967 -0.7569693 
-0.27746844 -0.89345366 -0.35320237 
-0.19808018 -0.7131106 -0.6724861 
-0.023719793 -0.32001123 -0.94711685 
-0.0067843385 0.014713153 -0.99986875 
0.39362755 0.033231594 -0.91866916 
0.3614128 -0.8817965 -0.3030114 
0.6025578 -0.5383912 -0.5891172 
0.3647856 -0.030344294 -0.930597 
-0.073177904 0.19260298 -0.9785444 
-0.20068201 -0.04289854 -0.97871673 
-0.32052663 -0.46605092 -0.824657 
-0.37054068 -0.2548276 -0.89317554 
-0.26551265 0.06934773 -0.96161014 
-0.29283968 -0.4195673 -0.8591905 
0.08210744 -0.47848538 -0.8742484 
-0.13174744 -0.71007293 -0.69169295 
0.20436959 -0.4852173 -0.85017484 
0.692769 -0.23329666 -0.68238103 
0.33684048 -0.40425202 -0.8503639 
0.6354489 -0.71392524 -0.29413512 
0.87323177 -0.47898614 0.08965769 
0.16103789 -0.7480382 0.6438212 
-0.00031984283 -0.98410994 0.17755982 
0.16672035 -0.8801557 -0.44444403 
0.2623581 -0.8737582 -0.4095303 
0.36613137 -0.608548 -0.7040009 
0.03848221 -0.71203977 -0.70108384 
-0.4537281 -0.51157284 -0.72967404 
-0.60526687 -0.067801155 -0.79313 
0.11171002 -0.08068961 -0.99045956 
-0.3763334 0.21680225 -0.9007608 
0.07487645 0.7842633 -0.6158933 
-0.008096059 0.020145776 -0.99976426 
-0.6537053 -0.11533873 -0.74790806 
-0.48442334 0.3035302 -0.8204899 
-0.02999923 0.4151776 -0.90924567 
0.49756938 0.19322622 -0.84562904 
-0.5401676 -0.2773001 -0.79455876 
0.09254892 -0.49437362 -0.8643087 
-0.7185944 -0.6424086 -0.26633313 
-0.8522139 -0.49323586 -0.17449905 
-0.43920386 -0.057135053 -0.8965688 
-0.23833005 0.2258558 -0.9445571 
0.11385672 0.0120113725 -0.9934246 
0.53644854 -0.45000562 -0.7139453 
0.22021787 0.21904874 -0.9505376 
0.57026774 -0.41581407 -0.7084444 
0.4574022 0.5149843 -0.7249651 
0.21577992 0.50418013 -0.8362066 
-0.22973634 0.25643408 -0.93886256 
-0.5086231 0.18908307 -0.83997035 
-0.1521864 -0.47834152 -0.8648865 
0.27056748 -0.045251068 -0.961637 
-0.41786346 0.0012098851 -0.908509 
0.43955135 -0.25732094 -0.86057 
-0.3305129 -0.1318334 -0.9345487 
-0.50027144 -0.68284184 -0.5324055 
-0.5038179 -0.662303 -0.5545471 
-0.20782688 -0.61129504 -0.7636271 
-0.11794489 -0.9879439 -0.10027967 
0.04291699 -0.5228417 -0.8513488 
-0.303822 -0.34356353 -0.8886261 
-0.6873658 -0.09931035 -0.71948993 
-0.47427514 -0.34985873 -0.8078749 
-0.30820212 -0.8868495 -0.34425193 
0.42208752 -0.049548276 -0.90520006 
0.01804463 -0.37193903 -0.9280818 
-0.24690486 0.24359469 -0.93792313 
0.006770165 -0.04982842 -0.99873483 
0.3372265 0.27247977 -0.90112877 
0.26732245 0.20872246 -0.94073045 
0.112663105 0.4391667 -0.89131343 
0.50662494 0.8005972 -0.3199615 
0.33262846 0.76514983 -0.551275 
0.22624516 0.7917912 -0.56734467 
-0.25610036 0.59213 -0.7640646 
0.045415908 0.6056249 -0.79445314 
-0.21382731 0.075294375 -0.9739654 
0.008225025 -0.5904336 -0.8070444 
0.58286464 -0.6311393 -0.511793 
0.108405545 0.38667974 -0.91582054 
0.19584823 -0.4815938 -0.85423124 
-0.0014205913 0.22902511 -0.9734195 
-0.30177975 0.37961996 -0.8745386 
0.14540495 -0.08105615 -0.9860463 
-0.10331652 -0.062499613 -0.99268305 
-0.6042924 -0.4581514 -0.65186507 
0.068948254 -0.013935363 -0.99752295 
0.7372379 -0.5239303 -0.42658803 
0.8882524 0.016595125 -0.45905608 
-0.12908117 -0.26015058 -0.95690113 
-0.008155623 -0.72166413 -0.69219536 
-0.39439273 0.32216695 -0.86061776 
0.5000614 -0.03495365 -0.8652843 
0.60637087 0.28034732 -0.7441236 
0.10674689 0.40798077 -0.9067287 
0.89781255 -0.1427644 -0.41659436 
0.13436922 -0.1383492 -0.98122597 
0.058610454 0.48880836 -0.8704201 
0.6447081 -0.19044767 -0.74032503 
-0.08211012 0.30145964 -0.9499369 
0.02833396 -0.38536122 -0.92233074 
0.014916991 -0.525584 -0.850611 