# OOMMF: rectangular mesh v1.0
# Segment count: 1
# Begin: Segment
# Begin: Header
# Desc: Time (s) :  8.320000000000022e-07
# Title: m
# meshtype: rectangular
# meshunit: m
# xbase: 2e-09
# ybase: 2e-09
# zbase: 5e-10
# xstepsize: 4e-09
# ystepsize: 4e-09
# zstepsize: 1e-09
# xmin: 0
# ymin: 0
# zmin: 0
# xmax: 1.024e-06
# ymax: 1.024e-06
# zmax: 1e-09
# xnodes: 256
# ynodes: 256
# znodes: 1
# ValueRangeMinMag: 1e-08
# ValueRangeMaxMag: 1
# valueunit: 
# valuemultiplier: 1
# End: Header
# Begin: Data Text
-0.56241053 0.693104 0.45088932 
-0.60028076 -0.27947652 -0.74937034 
-0.3118209 -0.33413076 -0.8894518 
-0.026677208 -0.17988168 -0.98332644 
-0.33183512 -0.5556279 -0.7623405 
0.085395046 0.5233446 -0.8478315 
0.28465226 0.1973117 -0.93810517 
0.38440764 -0.28499734 -0.8780703 
0.18182151 -0.5932631 -0.78420657 
0.67370987 -0.7340708 -0.08517746 
0.044061307 -0.9343897 0.35351762 
-0.31464824 -0.9279481 -0.19977222 
-0.59442866 -0.6794544 0.43011206 
0.0058134133 -0.9813842 0.19196674 
0.21809897 -0.9063571 -0.36186957 
-0.07121301 -0.8557977 -0.51238567 
0.2540253 -0.717935 -0.64810526 
0.31422392 -0.32713205 -0.8912059 
0.46977404 0.03895258 -0.881927 
-0.24461788 -0.30993384 -0.9187508 
-0.34593743 -0.16554195 -0.9235384 
-0.3502897 -0.011500923 -0.9365708 
-0.75323415 -0.2527071 -0.60727054 
0.52218384 -0.53206015 -0.66651046 
-0.05610512 -0.8948803 -0.44276583 
0.45212802 -0.31399566 -0.8348576 
0.9016056 -0.349832 -0.25441128 
0.3661444 -0.6083922 -0.70412874 
-0.0469809 -0.82645446 -0.56104004 
0.84249955 0.012897803 -0.53854275 
0.49066785 -0.5074335 -0.7083477 
-0.10209943 -0.35800648 -0.92812026 
-0.47235245 -0.7868397 -0.39719847 
-0.7530272 -0.038655907 -0.65685296 
-0.37022337 0.09556456 -0.92401415 
-0.27714574 -0.30219465 -0.9120684 
-0.09281055 -0.09256287 -0.9913719 
-0.3034621 -0.50051826 -0.81079733 
0.24130662 -0.24991213 -0.93771803 
0.09998461 -0.32224846 -0.94136024 
-0.6313494 -0.5403575 -0.55624807 
0.10121643 -0.88679135 -0.45095047 
-0.20216414 -0.29141277 -0.93499106 
0.13823496 -0.20540607 -0.96886504 
0.046545062 -0.78774095 -0.6142458 
-0.6234831 -0.10890205 -0.77421516 
-0.7068956 -0.20540567 -0.6768362 
-0.63181007 -0.30059245 -0.714465 
-0.1866427 -0.8130766 -0.5514264 
-0.8841963 -0.46617612 0.029608624 
-0.1632253 -0.58295476 -0.79594046 
-0.5688755 -0.78501445 -0.24522032 
-0.31039637 -0.32724282 -0.8925057 
0.31593245 -0.80570894 -0.50101876 
-0.2701525 -0.094818756 -0.95813733 
-0.366892 -0.18896922 -0.9108682 
-0.6305419 0.020140994 -0.77589387 
-0.16768314 0.5027155 -0.8480328 
-0.3722249 -0.37157443 -0.8505182 
0.35581845 0.47145253 -0.8069237 
0.07848054 -0.057363134 -0.99526393 
-0.058424696 0.7323879 -0.6783764 
-0.19711474 -0.55788285 -0.80617166 
-0.30820385 0.6376102 -0.70601964 
-0.539077 0.18870784 -0.8208443 
0.2915024 -0.11883157 -0.9491604 
0.64902675 0.17123288 -0.7412447 
0.48887601 -0.10550271 -0.86595 
0.40053383 -0.2830392 -0.8714709 
-0.36480865 -0.56427175 -0.740616 
-0.44934264 -0.7568444 -0.47463453 
-0.425273 -0.7548775 -0.49930224 
-0.33667952 -0.81868255 -0.4651945 
0.5482321 -0.5170617 -0.6573346 
-0.09416482 -0.7046726 -0.7032564 
0.14896579 0.642434 -0.7517233 
0.74585897 -0.23541136 -0.6231179 
0.53132033 -0.6385473 -0.55673707 
0.30254954 -0.04628072 -0.95200944 
0.51303005 0.034858786 -0.8576626 
-0.032198623 -0.021559002 -0.999249 
-0.65450686 -0.14998741 -0.74102944 
-0.29266506 0.13700281 -0.9463495 
-0.5341313 -0.64800453 -0.5429494 
-0.61156124 -0.26364538 -0.74597853 
-0.35557452 -0.5319926 -0.76847297 
0.30597383 -0.43890202 -0.8448344 
-0.05251236 -0.3282354 -0.94313526 
-0.40059996 -0.08364385 -0.91242725 
0.08560076 0.4070656 -0.90937907 
0.08174726 -0.24586584 -0.96585065 
-0.0064811762 -0.94761896 -0.31933722 
-0.43657282 -0.68748915 -0.5803127 
0.24548192 -0.8100249 -0.53253967 
-0.6125741 -0.7517734 -0.24410997 
-0.18128383 -0.14156212 -0.9731888 
0.6933307 -0.28563634 -0.6615924 
0.8447616 -0.2860423 -0.45228046 
0.8011632 -0.5142278 -0.30611655 
0.736032 -0.2575797 -0.62602687 
0.45642594 -0.5722782 -0.6813024 
-0.5975353 -0.5982537 -0.5338953 
-0.9727746 -0.20225641 -0.113146156 
-0.88251376 -0.20998421 -0.42080423 
-0.8246182 -0.53437066 -0.18561484 
-0.5945389 -0.58787256 -0.5485702 
-0.77580255 0.2496621 -0.57948196 
-0.85490906 -0.39423656 -0.33720648 
-0.7594823 -0.20813297 -0.6163338 
-0.73801607 -0.63926595 -0.21603554 
-0.5640587 -0.541314 -0.62355196 
0.036849804 -0.7241819 -0.68862385 
0.29068646 -0.2543591 -0.92238975 
-0.33153674 -0.7167246 -0.61350584 
-0.29927808 -0.5796122 -0.7579461 
-0.2435189 -0.94761515 -0.20669802 
-0.19331376 -0.5700167 -0.79856795 
-0.14973943 -0.20912895 -0.9663557 
-0.59087306 -0.5979422 -0.5416033 
0.06856345 -0.8181125 -0.5709562 
-0.18516132 -0.59955573 -0.77861947 
-0.4099817 -0.60118604 -0.6859231 
-0.03830245 -0.41607344 -0.908524 
-0.03458019 -0.8283539 -0.5591369 
-0.47473726 -0.68329024 -0.5547424 
0.47448826 -0.1652865 -0.86460483 
0.2133285 -0.6089826 -0.76395756 
-0.7307284 -0.1285036 -0.6704647 
-0.38912913 -0.5300582 -0.75340366 
0.1902524 -0.7010337 -0.6872814 
-0.09312931 -0.5268692 -0.8448289 
-0.31977057 -0.76008195 -0.56570506 
0.19706985 -0.3955685 -0.89704466 
0.28996098 0.07130304 -0.95437866 
0.4811676 -0.36993343 -0.7947497 
0.181008 -0.84053653 -0.5106216 
0.15037166 -0.7252824 -0.6718288 
-0.6423869 -0.6807442 -0.35203195 
-0.3424067 -0.90852976 -0.23943977 
-0.27808008 -0.36675048 -0.887787 
0.34095412 -0.12752958 -0.9313895 
0.7161614 -0.14015296 -0.68371785 
0.6850611 -0.6019158 -0.41035196 
0.7315604 -0.59393954 -0.33474642 
0.21006756 -0.9187334 -0.33436608 
-0.40086523 -0.91458124 0.053368997 
0.01645435 -0.8778155 0.4787165 
0.5693728 -0.7027875 -0.42650247 
0.004775207 -0.9498144 -0.31277782 
-0.009535809 -0.97047645 -0.24100728 
-0.2856794 -0.27524158 -0.91794854 
-0.39376295 0.45718533 -0.79745364 
-0.5175177 0.5365026 -0.6665887 
-0.5110363 0.18538056 -0.8393307 
-0.30731615 -0.6477774 -0.697095 
0.011595672 -0.21974346 -0.9754888 
-0.24554673 -0.20413546 -0.94764745 
0.08241634 0.09951386 -0.9916172 
-0.24381046 -0.08456219 -0.9661293 
-0.7921348 -0.34098557 -0.50621283 
-0.6112692 -0.67048955 -0.42046857 
-0.5139135 -0.5227055 -0.6801999 
-0.63954216 0.3089095 -0.7039609 
-0.19239426 -0.23218414 -0.9534543 
-0.14914833 -0.67776394 -0.7199937 
0.90468234 -0.016425848 -0.42577016 
0.99360955 -0.107428096 0.034629423 
0.4095232 -0.37527236 -0.83154166 
0.55129504 -0.23067589 -0.80178714 
0.32044208 -0.6256095 -0.7112874 
-0.20173131 -0.9792463 -0.019524273 
0.63840747 -0.76955914 0.014650776 
0.44284555 -0.56732625 -0.69428295 
0.596155 -0.487042 -0.6382707 
0.16341245 0.71778333 -0.6768187 
0.36771312 -0.04428703 -0.92888415 
0.16692533 -0.027638849 -0.9855821 
-0.032278575 -0.21298024 -0.9765232 
0.03800273 -0.83971804 -0.54169136 
0.63972044 -0.10834533 -0.7609331 
0.30587938 0.89108443 -0.3352707 
0.04346187 0.4564034 -0.88871086 
0.19071858 0.37655035 -0.9065519 
0.21313465 -0.3669584 -0.90549177 
0.7323484 -0.28585118 -0.61802506 
-0.2709594 0.6162388 -0.73948014 
-0.17948443 -0.44347268 -0.87813294 
-0.62117976 -0.6455706 -0.44426844 
-0.19455463 -0.81245077 -0.54961103 
0.5787626 -0.54502326 -0.60661656 
0.40340832 -0.57195836 -0.7142306 
0.3595491 -0.7330245 -0.5774077 
0.20723408 -0.9774689 -0.040108178 
-0.0044509186 -0.91013837 -0.4142806 
-0.4843144 -0.47910017 -0.7320537 
-0.37089697 0.20929383 -0.90478265 
0.15370275 0.16206166 -0.97473663 
0.6872166 0.37612933 -0.6214983 
0.4932471 -0.2525302 -0.8324276 
0.5803426 -0.22973348 -0.781297 
-0.031210259 -0.8032852 -0.5947764 
-0.04000438 -0.6176481 -0.78543645 
-0.14292331 -0.16451178 -0.97596556 
-0.23991793 -0.11631469 -0.96379995 
-0.3008652 -0.048900492 -0.9524121 
-0.021735772 -0.77984416 -0.62559634 
-0.44301072 -0.76317406 -0.47043252 
-0.27195045 -0.38487715 -0.8819936 
0.067022026 -0.205217 -0.9764191 
0.52798927 -0.77374744 -0.35006034 
-0.4127703 -0.89650327 -0.16094276 
0.4159745 -0.67449445 -0.6099365 
-0.5867776 -0.18422027 -0.7885144 
-0.5940033 -0.05306806 -0.8027103 
-0.56089205 -0.35593382 -0.7474699 
0.47185934 -0.26335326 -0.84142375 
0.31722328 -0.3092273 -0.8965199 
0.42311096 -0.04538596 -0.9049404 
0.76784503 0.03636571 -0.63960266 
0.9843609 -0.047551695 -0.16962498 
-0.6448705 0.4440341 -0.6220738 
-0.079424575 0.38418806 -0.91983217 
-0.16256644 -0.112143986 -0.98030406 
-0.02430132 -0.39976713 -0.9162946 
-0.22242388 -0.32019106 -0.9208721 
0.38819632 -0.43388695 -0.8130472 
-0.2562665 -0.5150851 -0.8179334 
0.47759253 -0.6510143 -0.58998793 
0.71338737 0.21832675 -0.6658919 
-0.8896898 -0.29639047 -0.34728208 
-0.21027902 -0.7135045 -0.66835177 
-0.2460036 -0.59132767 -0.76799345 
-0.22788225 -0.5762688 -0.7848466 
-0.045503356 -0.52205396 -0.85169786 
-0.15465814 -0.2545813 -0.9546043 
0.54447865 0.22240764 -0.8087508 
0.8202476 -0.009042039 -0.5719373 
0.5599134 0.25300682 -0.78897697 
-0.1562979 0.37212226 -0.91492957 
0.006953915 -0.17836283 -0.98394024 
0.46035373 -0.2837875 -0.84115344 
0.5943385 -0.1504616 -0.7900146 
-0.26206255 0.83374465 -0.48599705 
-0.31639904 0.43688762 -0.8420338 
0.2530223 -0.19438392 -0.9477313 
0.7082829 -0.36967653 -0.6013939 
0.5460058 -0.3441637 -0.7638253 
0.38420415 0.22347485 -0.8957937 
0.57753193 0.054946087 -0.8145169 
0.28903556 -0.17667969 -0.9408734 
0.33849007 -0.08250555 -0.93734586 
0.50577766 -0.18830138 -0.84186196 
0.1749256 -0.27499264 -0.9453995 
0.25394693 -0.40556926 -0.87808007 
-0.24799083 -0.76123923 -0.599179 
-0.44849917 -0.85787636 -0.2507922 
-0.8793754 -0.42655158 0.21154866 
-0.9331563 0.3467763 0.09468705 
-0.9805314 0.16011457 -0.11367332 
-0.797087 0.46672696 -0.38316885 
-0.39920625 -0.062832095 -0.91470575 
-0.5459494 -0.42039177 -0.7247138 
-0.0035318525 0.10562545 -0.9943998 
0.2896746 -0.3442821 -0.89306134 
0.27761468 -0.7424251 -0.6097009 
0.32234275 -0.7574833 -0.5677272 
-0.00026466965 -0.9265867 -0.37608117 
-0.70502454 -0.6985369 -0.12242045 
-0.6366462 -0.7706949 -0.026664779 
-0.048262518 -0.5180376 -0.85399526 
-0.42237395 -0.41412154 -0.80629015 
0.015517944 -0.20307656 -0.9790399 
0.28065002 -0.717708 -0.637284 
0.23880135 -0.29626116 -0.92477196 
-0.3351565 -0.3251129 -0.8842917 
-0.71550417 -0.16825117 -0.6780453 
-0.06476126 0.35365704 -0.9331307 
0.03886829 -0.046178613 -0.9981768 
-0.4729284 -0.3008261 -0.82815605 
-0.23936012 -0.35038662 -0.9055032 
-0.112864465 -0.41915724 -0.9008712 
0.60301536 -0.47652447 -0.6397633 
0.6183189 0.4627918 -0.6352209 
0.6812248 -0.5110122 -0.5242131 
0.9041734 0.4109917 -0.11643214 
0.47270226 -0.67916185 -0.5615086 
0.62688416 -0.65699357 -0.4187789 
0.18669215 -0.5383981 -0.8217504 
-0.43106169 -0.19320048 -0.8813963 
-0.8489441 0.10589036 -0.51776564 
-0.4651433 0.23963062 -0.85218483 
-0.40644172 0.16897537 -0.89791566 
-0.16735071 -0.13037868 -0.97723854 
0.36024037 -0.45617327 -0.8137155 
-0.4344365 -0.008401637 -0.9006633 
0.49055472 0.0367985 -0.8706331 
-0.04820552 0.31375003 -0.94828117 
0.39810964 0.37972662 -0.8350547 
0.17847396 -0.041616853 -0.9830641 
-0.24784544 0.2472333 -0.93672216 
-0.611427 -0.49057004 -0.62088495 
-0.5192112 -0.08527421 -0.85038114 
0.03231715 0.03831576 -0.998743 
-0.3792177 -0.24145257 -0.89324945 
-0.5977033 -0.18583591 -0.77988195 
-0.70864713 0.10741949 -0.6973381 
-0.41162896 -0.44648033 -0.79449165 
-0.33383432 -0.7733463 -0.5389714 
-0.17205678 -0.36307517 -0.91573626 
-0.327731 -0.27900404 -0.90263456 
0.28555697 0.24909794 -0.92542285 
-0.81589645 -0.084404625 -0.5720044 
-0.5041961 -0.17588004 -0.8454896 
0.27930146 -0.33752537 -0.8989257 
-0.23936519 -0.015116188 -0.970812 
0.05121769 0.06070549 -0.99684083 
0.52139634 -0.09025314 -0.8485283 
-0.09222693 0.31164765 -0.9457113 
-0.41115686 -0.656958 -0.63194644 
-0.13160954 -0.23057711 -0.9641127 
0.31686315 -0.23336285 -0.9193147 
0.57604885 -0.16910592 -0.79973173 
0.55133516 -0.017708559 -0.83409595 
0.42960906 0.14922917 -0.8905992 
0.35195082 -0.36548972 -0.86171216 
-0.58648676 0.13671677 -0.7983369 
-0.30120718 -0.13330601 -0.9441948 
0.005911311 -0.71491206 -0.6991895 
0.030367924 -0.5105211 -0.8593288 
-0.119408034 -0.40260386 -0.9075527 
0.3116329 -0.22106658 -0.9241291 
0.35922652 -0.059857387 -0.9313289 
0.6297766 -0.06481588 -0.7740675 
0.2514434 -0.5512747 -0.79553276 
0.21307646 0.2678792 -0.9395952 
0.23446813 0.062480792 -0.9701139 
-0.076541774 0.37375 -0.9243659 
0.019075636 -0.7810705 -0.6241514 
-0.33787292 -0.4399331 -0.83204615 
-0.8698946 -0.3928587 -0.29823735 
-0.59100294 -0.693796 -0.4115371 
-0.29954296 -0.4451354 -0.843877 
-0.3674657 -0.1547135 -0.91707844 
-0.16445038 -0.23790273 -0.9572661 
0.25711218 -0.12666523 -0.95804447 
0.042460702 0.6704414 -0.74074656 
-0.25589836 0.13642527 -0.9570289 
0.1642524 -0.5541485 -0.8160519 
0.11249609 -0.08625615 -0.9899013 
-0.19447994 -0.29982284 -0.93396145 
0.1641528 0.18011875 -0.96985114 
0.48162913 -0.80657744 -0.34273368 
0.52061564 -0.72256744 -0.45481396 
0.42952067 -0.37428415 -0.82184154 
0.6234379 -0.6120467 -0.48654303 
0.12050704 -0.22375272 -0.96716744 
0.12178728 -0.8073335 -0.5773912 
0.17162728 -0.38013285 -0.9088691 
-0.8131186 -0.18066712 -0.5533514 
-0.81979495 -0.43384457 -0.37378478 
-0.9855058 -0.1651294 -0.03886777 
-0.90236455 0.17371373 -0.39441344 
-0.9582537 0.10188282 -0.2671515 
-0.47567725 0.070659004 -0.8767774 
0.049227048 -0.20096698 -0.97836035 
-0.62109375 -0.7212206 -0.30673018 
-0.09370783 -0.38595897 -0.9177442 
-0.49299365 -0.19170246 -0.84865034 
0.41785145 0.21253243 -0.88330644 
0.18737437 -0.78192943 -0.59453946 
0.08635334 -0.45134044 -0.88816386 
-0.37481496 -0.916431 -0.1402428 
-0.3684859 -0.33844334 -0.8658373 
-0.41741687 -0.18173419 -0.89035726 
-0.35431817 -0.4241021 -0.8334243 
0.16392404 -0.4409479 -0.8824364 
-0.730214 0.45692524 -0.5079438 
0.12793757 0.00962186 -0.9917356 
-0.23821 -0.54774004 -0.80202055 
0.12944894 -0.35778075 -0.9247897 
-0.18034276 -0.74746644 -0.6393516 
0.05124868 -0.36440384 -0.9298298 
-0.36951336 -0.3101632 -0.8759331 
-0.41726643 -0.37447783 -0.828043 
-0.22121997 -0.48732165 -0.84473634 
0.25207114 -0.3051253 -0.91834563 
0.43322223 0.6526419 -0.62159234 
-0.24589676 -0.3304618 -0.91122437 
0.22051953 -0.022389274 -0.9751256 
0.090876155 -0.57595557 -0.81241417 
-0.29989198 -0.44370297 -0.8445072 
-0.44257578 -0.3655041 -0.81886107 
-0.017160326 -0.85097903 -0.52491915 
-0.32781237 -0.8766128 -0.3522627 
0.4470869 -0.27166888 -0.8522379 
0.19742402 -0.5413615 -0.817283 
-0.31663105 0.5108665 -0.7992247 
0.079420924 0.47084537 -0.87863356 
0.5065634 -0.15192424 -0.84871227 
0.33734602 -0.671094 -0.6601746 
-0.25554454 -0.46453306 -0.84788334 
0.18260081 -0.7860311 -0.59060305 
-0.0022676757 -0.8557451 -0.5173929 
-0.37425795 0.05435439 -0.92573035 
-0.22146277 -0.5637912 -0.7956719 
0.12766974 -0.67921257 -0.7227523 
0.29258987 -0.22706473 -0.9288879 
0.008391487 -0.51739067 -0.8557082 
-0.7400565 -0.003255883 -0.67253685 
-0.93520343 -0.1164088 -0.33443034 
0.16876967 -0.6462483 -0.74423116 
0.34448174 -0.50503516 -0.7913735 
0.75638 -0.64132166 -0.12882519 
0.54801697 -0.33970216 -0.764382 
0.28221107 -0.40196225 -0.8710817 
0.061375123 -0.20112272 -0.9776415 
-0.4849996 -0.5394808 -0.6882848 
-0.44715402 -0.47947007 -0.75509053 
-0.5913296 -0.30325115 -0.7472404 
-0.795328 -0.27903974 -0.5381359 
-0.31174332 -0.563324 -0.7651681 
0.13057338 0.09177041 -0.98718226 
0.5048463 0.588956 -0.6310793 
-0.105458826 -0.06669132 -0.9921848 
0.47464558 -0.25953013 -0.8410445 
0.7889584 -0.15287828 -0.59512424 
0.4037095 -0.57768476 -0.70943576 
0.58865285 -0.6701289 -0.45212293 
0.46581376 -0.2166987 -0.857939 
0.25376853 -0.46668035 -0.8472373 
-0.45093817 0.49242833 -0.7444254 
-0.17653325 -0.1120628 -0.9778947 
0.50071293 -0.5795168 -0.6429983 
0.5160286 -0.37047064 -0.7723121 
0.7160798 0.09559715 -0.69144124 
0.5218088 0.6528703 -0.5490683 
0.21242346 0.88675255 -0.41054368 
-0.3291361 0.43018386 -0.84060174 
0.18239743 0.33421642 -0.9246786 
0.48664537 0.29384345 -0.82269824 
0.7312704 0.43664572 -0.5240079 
0.42670673 0.67774117 -0.5988224 
0.6228377 0.39336124 -0.6762693 
-0.24899222 -0.42675567 -0.86941504 
-0.16443805 -0.19343567 -0.9672347 
0.22779137 0.1909407 -0.9548052 
0.08413805 0.06474211 -0.99434865 
-0.0304815 -0.38160104 -0.9238245 
0.19756395 -0.1634369 -0.96656966 
-0.005766737 -0.57641256 -0.8171385 
-0.56664145 -0.42823663 -0.7039396 
-0.9409385 -0.28173688 -0.18777458 
-0.011919428 -0.32926875 -0.944161 
0.34407845 0.28563094 -0.8944412 
-0.23001096 -0.026418893 -0.97282946 
-0.24162677 -0.21417992 -0.9464373 
-0.6046439 -0.75254047 -0.26093826 
-0.82506746 -0.21605906 -0.52209395 
0.030740583 -0.22415446 -0.9740687 
0.050705586 -0.64401025 -0.76333475 
-0.21866634 -0.5364507 -0.81511086 
0.03612862 -0.84999603 -0.52554876 
-0.26873386 -0.4163545 -0.86858 
-0.03998153 -0.35298008 -0.9347763 
-0.30742556 -0.7430898 -0.59439653 
0.41281033 -0.7911413 -0.4513128 
0.713523 -0.49305952 -0.49777234 
0.87171555 0.123615876 -0.47416356 
0.8947991 -0.3918257 -0.21402623 
-0.37979147 -0.5860037 -0.71579194 
-0.41716453 -0.21965875 -0.88188654 
-0.112213165 -0.46593526 -0.8776745 
-0.012757073 -0.6142686 -0.78899384 
0.41095796 -0.6877031 -0.5984798 
0.71183765 -0.63809466 -0.2934661 
0.4180301 -0.74130315 -0.525091 
-0.14165108 -0.33933833 -0.92993796 
-0.5285301 -0.77025074 -0.35688892 
-0.5515806 -0.28025866 -0.7856297 
-0.2994499 -0.44612235 -0.84338874 
-0.6438424 -0.48226082 -0.5940467 
0.35671657 0.05718403 -0.93246084 
-0.38182473 -0.88288814 -0.2733467 
0.061619014 -0.59733224 -0.79962325 
-0.45392048 -0.43456146 -0.7778898 
-0.53658694 -0.32799086 -0.77749383 
-0.3412922 -0.46589094 -0.8163733 
0.20583166 -0.24151923 -0.9483152 
-0.12823871 -0.31647462 -0.939893 
-0.03126114 -0.68684167 -0.7261345 
-0.17309345 -0.7001935 -0.69265276 
-0.15475036 -0.4378261 -0.88564146 
0.025590137 -0.4531829 -0.8910503 
-0.113866575 0.23009787 -0.966483 
-0.46055403 0.4108378 -0.7868305 
-0.31230292 0.22857507 -0.922074 
0.22377022 -0.07496448 -0.9717548 
0.3371051 0.8110731 -0.47803807 
-0.14346306 0.34013486 -0.92936903 
-0.17436667 0.62515473 -0.76077455 
-0.20456064 0.463452 -0.8621874 
0.04933752 -0.04721408 -0.9976656 
0.38385236 0.43818027 -0.8128071 
0.023898106 -0.08639628 -0.99597424 
0.61496735 -0.25034645 -0.7477579 
-0.47169644 -0.5867946 -0.6581601 
-0.12805279 -0.81525105 -0.56477267 
0.16035749 -0.794732 -0.5853944 
0.07494354 -0.20303291 -0.97629976 
0.40343726 -0.9117829 -0.07674874 
0.33319816 -0.93708545 0.10416282 
0.044568114 -0.87283427 -0.48597747 
-0.7112463 -0.6968116 0.09264052 
-0.71967643 -0.39295018 0.5724125 
-0.8356834 -0.50475436 0.21646349 
-0.73566353 -0.3754557 -0.56376606 
0.10298237 -0.3066238 -0.94624346 
-0.2099061 0.019221075 -0.97753257 
0.17769016 0.046956316 -0.9829656 
0.22757813 -0.2695816 -0.9356997 
0.19437382 0.15173765 -0.96912056 
-0.5051384 0.26265547 -0.8220993 
-0.6779653 -0.73429877 0.034181528 
-0.5738273 -0.81733304 -0.051854648 
-0.24866526 -0.5367472 -0.806268 
0.52483845 -0.3618184 -0.7704752 
0.4091531 -0.7660398 -0.49575892 
-0.34649724 -0.38232306 -0.856603 
0.14562814 -0.799414 -0.5828634 
0.24946976 -0.54854804 -0.79803497 
0.49105465 -0.101306744 -0.8652181 
0.44948304 -0.16161157 -0.8785481 
0.031530436 0.11471471 -0.992898 
0.35983172 -0.3407621 -0.8685634 
0.08627454 -0.7027434 -0.706193 
0.549734 -0.30681178 -0.776955 
0.11178595 -0.35167304 -0.9294246 
0.63893276 -0.44429412 -0.627987 
0.7896749 -0.20111977 -0.5796245 
0.23895912 -0.87184083 -0.42754197 
0.26277736 -0.9643814 0.030277696 
-0.072040856 -0.8523829 -0.51793194 
0.50925624 -0.8447036 -0.1647244 
0.43402475 -0.3958341 -0.8092825 
0.031096676 0.46044758 -0.8871421 
-0.5011675 0.13219742 -0.85519296 
-0.7374176 0.23906595 -0.6317142 
0.35898626 -0.34180897 -0.8685019 
0.72630376 -0.14747511 -0.67136735 
0.6161838 -0.5509644 -0.5628106 
0.3609437 0.2649884 -0.8941481 
0.46168405 0.1122555 -0.87991285 
-0.45457357 -0.50491387 -0.7337745 
-0.52494997 -0.0063595856 -0.85110945 
0.15577403 0.60524416 -0.78064966 
0.3660364 0.050417572 -0.9292338 
-0.14597699 -0.24141844 -0.9593789 
-0.60039455 0.1731284 -0.78073883 
-0.16845599 -0.39441687 -0.9033593 
-0.39017197 -0.12296179 -0.9124945 
-0.90416205 -0.18449283 -0.38529652 
-0.679865 -0.116363265 -0.72404647 
-0.5687703 -0.5429962 -0.6177827 
-0.31962195 -0.7380362 -0.5942595 
-0.49041572 0.46397844 -0.73771024 
-0.25905862 0.39883724 -0.879669 
-0.106183484 -0.13134898 -0.98563313 
-0.25549865 -0.48049113 -0.838957 
-0.42352393 -0.24862339 -0.87109923 
0.10520535 0.1375543 -0.9848912 
0.33583358 -0.32839835 -0.88281953 
0.6082559 0.44560054 -0.65686 
0.0061850664 0.5091106 -0.86067885 
0.41783312 0.60265964 -0.6798654 
-0.03510471 0.054588698 -0.99789166 
0.105212025 -0.5131042 -0.85185367 
0.3688782 -0.7426119 -0.5589781 
-0.021273624 -0.19377978 -0.98081434 
-0.023679245 -0.40333208 -0.91474736 
0.26829147 0.008092114 -0.96330386 
0.27772874 0.021592785 -0.9604169 
-0.19718768 0.23351821 -0.9521483 
0.10998968 0.08923184 -0.9899192 
-0.23552552 -0.36604565 -0.9002991 
-0.13645594 -0.2277513 -0.96411055 
0.2734167 -0.2882298 -0.9176966 
-0.08998555 -0.5813924 -0.8086319 
0.14062697 0.15714052 -0.9775126 
0.61789846 -0.308224 -0.7233253 
-0.13730301 0.016820543 -0.9903863 
0.47237334 0.5972736 -0.6481726 
0.362489 0.36748752 -0.85647804 
-0.00659079 0.057951324 -0.99829775 
-0.100052625 -0.34012768 -0.93504155 
-0.4683084 0.14317553 -0.8718877 
-0.14127514 -0.8329651 -0.5349867 
-0.5933782 -0.59409475 -0.54309654 
-0.5193181 -0.36997408 -0.77034277 
-0.7493551 -0.48161066 -0.45444286 
-0.117038116 -0.7373769 -0.66526496 
0.13505587 -0.022170598 -0.9905899 
-0.00961586 0.5266805 -0.85000896 
0.32148236 -0.05332638 -0.9454129 
-0.016288245 -0.1886942 -0.9819008 
0.13014762 -0.37590963 -0.91747123 
-0.628421 0.028883709 -0.7773371 
-0.120400496 -0.22749025 -0.9663085 
0.37724736 -0.6103494 -0.69653296 
0.8300203 -0.105986804 -0.54757035 
0.29956615 -0.0025483794 -0.9540721 
0.29085785 -0.74526536 -0.5999844 
0.15855384 -0.38897395 -0.90750206 
-0.27045342 -0.5957962 -0.7562288 
-0.48401734 -0.120804965 -0.8666796 
-0.08567878 -0.81095207 -0.5788056 
-0.45589674 -0.33560342 -0.8243352 
-0.9304858 0.15505445 -0.3318953 
-0.9676908 0.14330785 0.2074545 
-0.94190663 0.030662738 -0.3344724 
-0.31203425 0.62074983 -0.7192387 
-0.07353106 -0.11009544 -0.99119735 
0.30455878 -0.94609195 -0.1102453 
-0.18694876 -0.13321838 -0.97329503 
0.17928886 -0.1784313 -0.9674802 
-0.22488195 -0.4949107 -0.83934 
-0.14594871 -0.14663464 -0.9783646 
-0.49347103 -0.24017228 -0.8359448 
-0.27723658 -0.5053865 -0.8171441 
0.046866387 -0.1922142 -0.98023325 
-0.42939436 -0.2914293 -0.8548038 
-0.13912097 0.42884228 -0.89260286 
0.56239516 0.6535561 -0.5065335 
-0.18932898 0.42193428 -0.88663757 
0.18911415 0.6637846 -0.72362 
-0.19257568 0.21469253 -0.9575081 
-0.027328718 -0.699618 -0.71399426 
-0.1246698 -0.85773236 -0.49875128 
-0.14101014 -0.4062967 -0.90279514 
-0.07715343 -0.41759706 -0.90535074 
-0.2857382 -0.0743129 -0.95542204 
-0.78980637 -0.04963389 -0.6113449 
-0.6367262 -0.09833098 -0.76479465 
-0.27742726 -0.028172677 -0.9603336 
0.19474873 -0.60712665 -0.7703702 
-0.14728093 -0.33344966 -0.93119264 
-0.5616156 -0.09649592 -0.82175213 
0.18254605 -0.5239954 -0.831929 
0.35808238 -0.16686682 -0.91865796 
0.2652956 -0.49791786 -0.82564896 
0.05379197 -0.60425586 -0.7949726 
-0.52485895 0.42169985 -0.7393865 
0.05868424 0.42740026 -0.9021559 
0.38510367 0.12757978 -0.9140123 
0.29385188 0.18598388 -0.93758255 
0.7324249 -0.10910018 -0.6720499 
0.81950897 -0.41560006 -0.3945651 
-0.15412156 -0.40196112 -0.90259284 
-0.91357416 -0.14249633 -0.3808899 
-0.061856087 0.055220954 -0.99655634 
-0.006746959 -0.19278386 -0.98121804 
-0.37366313 -0.404762 -0.8345919 
-0.18160819 -0.46313274 -0.86748296 
-0.22479135 -0.314029 -0.92241794 
-0.357376 -0.49558944 -0.79162717 
-0.2569188 0.14971924 -0.9547654 
-0.22276764 -0.5755747 -0.7868217 
-0.09985231 -0.29507402 -0.9502426 
0.22667013 -0.1811798 -0.9569715 
0.31043094 -0.12210186 -0.94272155 
-0.12584785 -0.5774013 -0.8067032 
0.050149716 -0.32447222 -0.94456494 
-0.3676116 -0.35733244 -0.8585891 
-0.45198944 -0.5975576 -0.6622919 
-0.30829695 -0.52827054 -0.7911279 
-0.57168204 -0.10069169 -0.81427324 
-0.7858987 0.114129946 -0.60773164 
-0.71609896 -0.4775198 -0.5090944 
-0.71599233 -0.26173154 -0.64718753 
-0.2936853 0.25750032 -0.92056644 
0.15281597 0.26654187 -0.9516316 
0.24159665 0.059695598 -0.9685389 
0.21621421 -0.05605112 -0.97473574 
-0.03560611 -0.3768527 -0.92558867 
0.1824259 0.31493008 -0.9314182 
-0.16693069 -0.22355886 -0.96028936 
-0.0039810673 -0.017708119 -0.9998353 
-0.4055003 0.4410031 -0.80067825 
0.2922155 -0.092206426 -0.9518971 
0.68972963 -0.170998 -0.70358574 
-0.08285451 -0.3051917 -0.9486798 
0.39005592 -0.34364605 -0.8542622 
0.5233134 0.46027997 -0.7171371 
0.20233856 0.8919396 -0.40435514 
0.0042238864 0.6214104 -0.7834739 
0.49451968 -0.03645497 -0.8684016 
0.37811708 -0.29405895 -0.87781376 
0.5517179 0.2174548 -0.8051838 
0.4384343 0.4067557 -0.8014519 
0.6225287 0.5717229 -0.53440714 
0.42624208 -0.048454106 -0.90331054 
0.09828359 -0.54132795 -0.83504754 
-0.12510295 -0.15260562 -0.9803371 
0.17918698 0.14107779 -0.97364736 
0.19756442 0.20595689 -0.9584102 
-0.29101694 0.23628059 -0.92708176 
0.03690174 0.11413569 -0.9927796 
-0.5755787 -0.039463602 -0.8167937 
-0.39123863 0.15446755 -0.90723324 
-0.32585317 0.13086481 -0.9363195 
-0.3869728 0.25215894 -0.8869431 
-0.31419444 0.14803812 -0.9377455 
-0.6566864 -0.7018859 -0.27589726 
-0.6684517 -0.11051999 -0.73549825 
-0.23655015 -0.20708953 -0.9492934 
0.030613052 0.18117233 -0.9829749 
-0.39170703 0.14262384 -0.9089687 
0.5235826 -0.4816669 -0.70275056 
-0.61452335 -0.26140225 -0.7443319 
-0.5204504 -0.14780246 -0.8410029 
-0.03453846 -0.44572592 -0.89450306 
-0.28732526 -0.13353357 -0.94847935 
0.33165184 -0.6304741 -0.7017902 
0.7250377 -0.4996408 -0.47400376 
0.7145077 0.11645266 -0.6898678 
0.41957763 0.5947576 -0.68572444 
-0.7316966 -0.37614417 -0.5684503 
-0.22492182 -0.36997962 -0.9014019 
-0.10167309 -0.17061354 -0.98007846 
-0.11906211 -0.55712986 -0.8218459 
0.8427134 -0.12144126 -0.5244866 
0.56934565 -0.77234375 -0.2816573 
0.20343994 -0.64913964 -0.73295975 
-0.26153135 -0.2875033 -0.92138124 
-0.17138256 -0.69141346 -0.70183724 
-0.064271554 -0.36057478 -0.9305133 
-0.5155103 0.12772837 -0.8473103 
0.43716973 -0.6366435 -0.63526976 
-0.39313462 -0.90369064 0.16967118 
-0.97547317 -0.17509235 -0.1333978 
-0.1933178 0.26029122 -0.9459793 
-0.103189446 -0.13752238 -0.985109 
-0.4697617 -0.45823207 -0.7545512 
-0.6791208 0.4226772 -0.60011584 
0.13809365 0.5064915 -0.8511149 
0.6201206 -0.3833744 -0.68445206 
0.13171595 -0.8504502 -0.509299 
-0.8116324 -0.5010087 -0.30040503 
-0.64889187 -0.5714541 -0.50237393 
-0.64297456 -0.21082616 -0.736299 
0.050854474 0.1327145 -0.98984885 
-0.01277687 0.55373544 -0.83259463 
0.026957711 0.33165264 -0.9430164 
0.27201352 0.19691879 -0.94192976 
0.17161782 0.32698345 -0.92931646 
-0.2534565 0.17799416 -0.95083016 
0.7847516 0.11812975 -0.60844916 
0.5174832 0.76680493 -0.37976512 
0.32052195 -0.20417057 -0.9249758 
0.50101256 0.07565948 -0.8621266 
-0.27279782 0.10952452 -0.9558168 
-0.24767734 0.044732653 -0.9678094 
0.1723276 -0.24636813 -0.95373267 
0.43798774 -0.74617845 0.5013825 
0.0022436874 -0.9973945 0.07210657 
0.0033282829 0.0097540235 -0.99994695 
0.02434482 -0.24394049 -0.9694846 
-0.24846277 -0.18801162 -0.9502199 
0.22585744 -0.36416665 -0.9035326 
-0.022340523 -0.9528688 0.30255926 
-0.6833957 -0.5355708 0.49611932 
-0.866646 -0.35132867 -0.3542499 
-0.7880165 0.42309594 -0.44723585 
-0.11521813 0.20278583 -0.9724211 
0.33089197 0.025424566 -0.9433262 
0.2098269 0.05454246 -0.97621614 
0.101268895 -0.0895422 -0.9908213 
0.58675474 -0.4086822 -0.6990692 
0.39945367 -0.3254504 -0.8570407 
-0.14875072 -0.56497824 -0.8115867 
0.11400574 -0.43634176 -0.89252925 
0.06030405 -0.026047505 -0.99784017 
0.38931978 0.083409816 -0.9173183 
0.6859263 -0.30156484 -0.6622415 
-0.09739913 -0.13221379 -0.9864244 
0.2292381 0.2081149 -0.95086175 
-0.21290323 -0.46189815 -0.8610009 
-0.26535714 0.48425615 -0.8337155 
-0.21890494 -0.004136667 -0.9757375 
0.3178695 0.51849955 -0.7937992 
-0.13943069 -0.14533517 -0.9795085 
-0.54066557 -0.3096959 -0.7821567 
-0.26948926 -0.5843652 -0.7654364 
-0.017622257 -0.30283454 -0.9528802 
0.5400532 0.25491259 -0.8020987 
0.54189616 0.19216016 -0.81818277 
0.033959135 -0.41364375 -0.90980536 
0.17887792 -0.22453116 -0.95790845 
0.8391999 -0.3662094 -0.4020376 
-0.044224903 -0.9576341 -0.2845719 
0.31513396 -0.06718594 -0.94666606 
-0.16180733 -0.25467426 -0.9533937 
-0.14050736 -0.10218955 -0.98479193 
-0.1433285 -0.7462562 -0.65004516 
0.19441302 0.21663044 -0.9567 
0.6221883 0.15184498 -0.7680005 
0.0036421977 -0.46868202 -0.8833595 
0.4271008 -0.15677278 -0.89050955 
0.1684676 -0.2784633 -0.94555634 
0.64589316 -0.5292405 -0.55020607 
0.0034556033 -0.26839373 -0.9633031 
0.4072407 -0.4481738 -0.7957986 
0.21691126 0.0005335833 -0.9761912 
0.6088423 0.2409041 -0.7558283 
0.27699295 0.084584996 -0.9571418 
-0.6046338 -0.0351297 -0.7957285 
-0.26901153 0.16063803 -0.94964635 
-0.16050142 0.22489253 -0.96107376 
-0.005328045 -0.13124649 -0.9913355 
0.3168493 0.66030866 -0.68088114 
0.20679285 0.13032927 -0.9696654 
-0.4687032 0.15949874 -0.8688368 
-0.13591601 0.30847412 -0.9414726 
0.4050765 0.3849182 -0.82930756 
-0.6243149 0.5101478 -0.5915913 
-0.77965975 0.07779754 -0.6213521 
0.31857845 -0.051047307 -0.946521 
0.28625807 -0.12107922 -0.9504716 
0.30906227 -0.00060953095 -0.95104164 
0.2583832 0.22641832 -0.9391341 
0.5010093 0.123575546 -0.856574 
0.04389257 0.53477854 -0.8438516 
0.41988727 -0.103539675 -0.9016509 
0.2126041 -0.6798197 -0.70188653 
0.29238757 -0.6051424 -0.740481 
0.44116575 -0.18521929 -0.878104 
0.53292966 0.08038034 -0.8423332 
-0.39264363 0.23761195 -0.8884658 