# OOMMF: rectangular mesh v1.0
# Segment count: 1
# Begin: Segment
# Begin: Header
# Desc: Time (s) :  8.560000000000023e-07
# Title: m
# meshtype: rectangular
# meshunit: m
# xbase: 2e-09
# ybase: 2e-09
# zbase: 5e-10
# xstepsize: 4e-09
# ystepsize: 4e-09
# zstepsize: 1e-09
# xmin: 0
# ymin: 0
# zmin: 0
# xmax: 1.024e-06
# ymax: 1.024e-06
# zmax: 1e-09
# xnodes: 256
# ynodes: 256
# znodes: 1
# ValueRangeMinMag: 1e-08
# ValueRangeMaxMag: 1
# valueunit: 
# valuemultiplier: 1
# End: Header
# Begin: Data Text
-0.6165343 -0.7784764 -0.11772848 
-0.92855704 -0.2188094 -0.29984033 
-0.5214866 -0.6421885 -0.5618236 
-0.32527283 -0.42762443 -0.84340686 
0.06369424 -0.8538828 -0.5165533 
0.057648666 -0.02208061 -0.9980927 
0.5921794 -0.67244536 -0.44400555 
-0.12392997 -0.67003435 -0.73191214 
-0.103095844 -0.034492884 -0.9940733 
0.55370235 0.49929166 -0.6664246 
0.9279962 0.12809601 -0.34987786 
0.0790714 -0.1082614 -0.99097294 
0.72390604 -0.6618008 0.194884 
0.6769218 -0.56651413 -0.46993485 
0.14792867 -0.5161539 -0.84362453 
0.22965805 0.4437934 -0.8662013 
-0.02690055 -0.65217465 -0.75759137 
-0.2867011 -0.54056495 -0.79094386 
-0.075359896 -0.730411 -0.6788377 
0.28140748 -0.5791274 -0.7651284 
0.37919718 -0.67462134 -0.6333211 
0.86587745 -0.3404432 -0.36654425 
0.38805038 -0.91781884 -0.08381845 
0.0018614997 -0.98627776 -0.16508417 
0.2807554 -0.78065056 -0.5583558 
0.66177225 0.12536693 -0.7391487 
0.4496117 -0.78925633 0.41823888 
0.046857297 -0.5795738 -0.8135715 
-0.47045866 -0.7672585 -0.4358705 
0.036867924 -0.528579 -0.8480832 
0.6099847 -0.09930584 -0.78616613 
0.92323196 -0.2701837 -0.27320972 
0.12977768 -0.7309858 -0.6699385 
-0.014123636 -0.70856136 -0.70550793 
-0.41431808 -0.27639088 -0.86714965 
-0.4283193 -0.33258903 -0.8401947 
-0.58492064 -0.8018035 -0.122388706 
-0.885964 0.15083365 -0.4385397 
-0.46254164 -0.16393803 -0.8713091 
-0.040855486 0.6058724 -0.7945121 
0.87539935 0.20366344 -0.43840316 
0.47600654 -0.17947768 -0.860933 
-0.034512118 -0.4708281 -0.8815498 
-0.2130004 -0.94712996 -0.23994945 
-0.11573619 -0.62859666 -0.76907176 
-0.51216966 -0.82291126 -0.245966 
-0.33966947 -0.79864746 -0.49677655 
-0.4052473 -0.029045578 -0.9137456 
-0.03681625 -0.46219346 -0.88601464 
0.53339314 -0.48515624 -0.69290346 
0.77433985 -0.33048007 -0.5396117 
0.15485543 -0.6064444 -0.77990067 
-0.010106607 -0.9354858 -0.35321984 
-0.88493687 -0.44917068 0.12301408 
-0.56858015 -0.6258554 -0.5338742 
-0.41936138 -0.7546528 -0.504614 
-0.052388266 -0.5377086 -0.8415017 
0.49388978 -0.77008873 -0.40377745 
0.5162609 -0.79475605 -0.3191201 
0.32787037 -0.6752978 -0.6606617 
0.15137893 -0.8062844 -0.5718302 
-0.70058304 -0.36311007 -0.61427563 
-0.5732267 -0.3966871 -0.7169732 
-0.28686053 -0.4026654 -0.86923623 
-0.15425694 -0.30457675 -0.93991375 
-0.31091568 -0.5080397 -0.8032604 
0.051047184 -0.03289733 -0.9981543 
-0.08243251 0.36381772 -0.92781556 
0.38910416 0.16624863 -0.90606815 
0.25482163 -0.27272305 -0.92773277 
0.16488463 -0.3482273 -0.9227952 
0.6207274 -0.09605081 -0.77812076 
0.48099634 -0.6526148 -0.58543706 
0.25351927 -0.84702843 -0.46719474 
0.28192884 -0.548461 -0.78721446 
0.6350942 -0.7343003 -0.23970488 
0.3634712 -0.8587491 -0.36116293 
0.6902667 -0.58042 -0.4320237 
0.30882794 -0.9500769 -0.044489965 
-0.20642129 -0.8643313 0.45860845 
-0.69671685 -0.32867908 -0.63761723 
-0.46557426 -0.69226354 -0.55137277 
0.20313673 -0.40773857 -0.8902162 
0.010185808 -0.99664617 -0.081195444 
-0.09410795 -0.8721857 -0.48003727 
0.22232284 -0.35911354 -0.90642715 
0.031888038 -0.5127636 -0.8579374 
0.24954343 -0.22330402 -0.9422651 
-0.38068864 -0.05195878 -0.9232424 
-0.5369578 -0.25540993 -0.80401635 
0.5565359 -0.825403 0.09475085 
0.32778823 -0.85337687 -0.4053429 
-0.052833978 -0.52978736 -0.84648323 
-0.52008605 -0.5763768 -0.6303177 
-0.08083286 -0.566688 -0.81995773 
-0.08641928 0.2758463 -0.957309 
-0.048282478 -0.3022707 -0.95199865 
-0.21841991 -0.3922131 -0.8935668 
-0.050397124 -0.34646332 -0.9367088 
0.032265116 0.45217675 -0.8913446 
-0.043132734 -0.683745 -0.7284452 
0.19177093 -0.8284207 -0.5262539 
0.36457 -0.84499764 -0.39123857 
-0.5124289 -0.44725367 -0.7330626 
-0.34446362 0.07765736 -0.9355823 
0.089744344 -0.60040045 -0.79464793 
0.514116 -0.81765604 -0.25908184 
0.43870205 -0.8893839 -0.12859583 
0.049979832 -0.16811123 -0.98450017 
-0.31928107 0.19054039 -0.9283071 
0.5107927 -0.042491876 -0.8586532 
0.4721716 -0.8045193 -0.36028165 
-0.0406173 -0.9895083 -0.1386496 
0.42822796 -0.76376647 -0.4829924 
0.04699056 -0.5960314 -0.80158496 
-0.022767603 -0.99671775 0.07768839 
0.6424449 -0.53359926 -0.5500332 
0.5481234 -0.2285058 -0.80457807 
0.3102197 0.058625292 -0.9488555 
0.5321212 -0.19189666 -0.82463497 
0.12650289 -0.4623575 -0.8776233 
0.5815983 -0.45840544 -0.6720179 
0.18666686 -0.5249102 -0.83043647 
-0.40918094 -0.2152306 -0.88670564 
0.47098893 -0.4327681 -0.768688 
0.55781454 -0.68120486 -0.47413388 
0.4304161 -0.20803623 -0.8783296 
0.74029976 0.09001291 -0.66622365 
-0.26945713 0.78790927 -0.5537074 
0.3171192 0.041915074 -0.94745904 
-0.024668366 -0.22658812 -0.9736783 
0.25597915 -0.6796222 -0.6874507 
-0.0016200506 -0.4382858 -0.8988343 
0.22587365 0.09920927 -0.96909165 
0.0051458604 -0.33357748 -0.94270873 
0.59023684 -0.44612524 -0.6727501 
0.5431766 -0.667298 -0.50958073 
-0.77353966 -0.5600224 -0.2966669 
0.15943994 -0.20433912 -0.96582836 
-0.15448786 0.10097863 -0.9828209 
0.003018298 -0.49422896 -0.8693266 
-0.072135925 -0.4132851 -0.90774 
0.23084134 -0.2279863 -0.94590414 
0.34911588 0.27219415 -0.8966763 
0.076367 -0.21173221 -0.97433954 
0.1833913 -0.12672229 -0.974838 
0.17018536 -0.55165756 -0.81652373 
0.78737336 -0.19774617 -0.58390045 
-0.052208494 -0.9966946 -0.062243234 
0.039686218 -0.92118907 -0.38708633 
0.04347546 -0.9795815 -0.19629043 
0.39200556 -0.7248801 -0.56646323 
0.1979093 -0.7597937 -0.6193105 
-0.24811538 -0.9131922 -0.32329363 
-0.56232786 0.119812265 -0.81818855 
-0.89441824 0.089710705 -0.43814173 
-0.05263552 -0.66653544 -0.7436128 
-0.078734115 -0.64938873 -0.75636977 
0.75909716 -0.64739764 -0.0681764 
0.5336945 -0.4876484 -0.6909192 
-0.14891015 -0.28842568 -0.9458522 
-0.084786125 -0.22328095 -0.97105974 
-0.13872871 0.042502087 -0.989418 
0.55779815 0.049927033 -0.8284736 
0.4896416 -0.17067252 -0.8550567 
0.5822928 0.23092817 -0.7794917 
0.62796444 0.27235228 -0.72903013 
0.040529184 -0.6979064 -0.7150414 
-0.14875625 -0.36429256 -0.9193272 
-0.0032363816 -0.7755076 -0.6313299 
0.33128986 -0.57791346 -0.74583054 
0.065481804 -0.87974286 -0.470919 
-0.39336395 -0.7607401 0.5162744 
-0.6230394 -0.7488509 -0.22592972 
-0.71508205 -0.41662326 -0.56132233 
-0.21573417 -0.68073606 -0.7000409 
0.5446066 -0.82860494 0.12968251 
-0.26025212 -0.5635219 0.7840356 
0.053223345 -0.66029793 -0.7491155 
0.4109029 -0.5749277 -0.7075429 
0.62021697 -0.6695765 -0.40865412 
0.025691677 -0.9922419 -0.12163862 
0.23302366 -0.9298639 -0.28469825 
0.5585213 0.15086086 -0.8156563 
0.7256572 -0.5039011 -0.46851397 
0.7749634 -0.39013475 -0.49721885 
0.36275756 -0.7150364 -0.5976035 
-0.115213335 -0.13678737 -0.9838776 
0.48923877 -0.45201516 -0.7458738 
-0.041003622 -0.096149206 -0.99452204 
-0.5799775 -0.18141258 -0.79417604 
0.42914426 -0.18485084 -0.88411844 
0.58605987 -0.6460104 -0.4890853 
0.4430614 -0.6364008 -0.6314196 
0.69290656 -0.46923858 -0.54744464 
-0.70807004 0.15564223 -0.68877596 
-0.45156083 0.043967202 -0.89115644 
-0.16519246 -0.31059754 -0.93607724 
-0.7415483 -0.65679914 -0.13682507 
-0.5122792 -0.40811133 -0.7556555 
-0.25311312 -0.44909617 -0.85688174 
-0.34182626 0.250191 -0.90584725 
0.39009884 -0.47435826 -0.78918123 
-0.16023377 -0.82413244 -0.54325944 
-0.7501199 -0.10608339 -0.6527376 
-0.3478831 0.30017793 -0.88818395 
-0.59528726 -0.02773343 -0.8030342 
-0.44647542 -0.50644416 -0.73768157 
0.026612148 -0.27262536 -0.9617522 
-0.1480507 -0.9874521 -0.05494795 
0.21403186 -0.96731585 -0.13597982 
-0.3911351 -0.5208207 -0.758788 
0.036194816 -0.46361586 -0.88529676 
0.4214677 -0.37872753 -0.8239724 
-0.04452501 -0.85695 -0.51347286 
0.13437925 -0.47882584 -0.8675645 
-0.6556334 -0.6766283 -0.33514032 
-0.19023943 -0.98054487 0.048381075 
-0.7652915 -0.6267081 0.14685334 
-0.48623845 -0.6649274 -0.5669601 
0.012089676 -0.66494304 -0.7467963 
-0.49046406 -0.40381512 -0.7722553 
0.031709243 -0.5041743 -0.8630196 
0.30948156 -0.49910098 -0.8093945 
0.64209604 -0.75906074 -0.10742245 
0.6263598 -0.6970783 -0.34893468 
-0.3005013 0.1571538 -0.9407453 
-0.38123527 -0.187364 -0.90529245 
0.35220814 -0.51262766 -0.78304684 
0.4111312 -0.84111315 -0.35142565 
0.11987206 -0.5236902 -0.8434331 
0.8350252 0.26393795 -0.48277298 
-0.13143769 -0.2101858 -0.96878594 
-0.2176141 -0.88440216 -0.41288856 
0.12517828 -0.72641456 -0.6757606 
-0.16005582 -0.48371005 -0.8604689 
-0.37864378 -0.80129397 -0.46320298 
0.20766327 -0.020425366 -0.9779871 
-0.09966996 0.7150548 -0.6919268 
-0.43070483 0.5049082 -0.74803823 
-0.59745455 0.12322009 -0.79237926 
-0.5769111 -0.6481928 -0.49701083 
-0.11126492 -0.80224985 -0.58652836 
-0.4213751 -0.74689853 -0.51437896 
0.3607486 -0.65111196 -0.66776776 
0.018994382 -0.7650137 -0.6437339 
0.58429265 -0.7542278 -0.2995705 
-0.096076734 -0.83666587 -0.5392211 
-0.34171695 -0.9226702 0.17863175 
0.018625716 -0.9392749 -0.34266004 
0.4465824 -0.7423379 -0.49949858 
0.4571208 -0.88634515 -0.07370891 
0.39456633 -0.75102913 -0.529408 
0.7837716 -0.115104295 -0.61028945 
0.4425078 0.8944726 -0.064075984 
0.66950375 0.08354814 -0.7380952 
-0.6983085 -0.682918 -0.214449 
-0.518182 -0.73504436 -0.4372612 
-0.83258003 -0.5228624 0.1828267 
-0.1013557 -0.36568215 -0.9252047 
0.21638404 -0.5417454 -0.812213 
0.37252587 0.14660785 -0.91636825 
0.6911082 0.020812474 -0.7224516 
0.67079437 -0.06427222 -0.7388533 
0.105871186 0.051847655 -0.99302727 
-0.008255473 -0.29638168 -0.9550339 
0.27160656 -0.48808518 -0.8294594 
0.19264315 -0.8425798 -0.5029394 
0.23279631 -0.7574856 -0.6099356 
0.40621638 -0.4253535 -0.80874145 
0.14736831 -0.11885085 -0.98191506 
0.04388629 0.024444304 -0.99873745 
-0.12454928 -0.6942221 -0.7089029 
-0.17552325 -0.7987304 -0.5755185 
-0.19353753 0.27768347 -0.94097567 
0.16395155 0.4664138 -0.86924 
0.45853284 -0.43490174 -0.7749892 
0.7526622 -0.60236377 -0.26581475 
0.7150591 -0.4744427 -0.5134146 
0.39609116 -0.86714923 -0.30193377 
0.26023096 -0.66501325 -0.7000267 
0.37683386 0.24779421 -0.8925213 
0.1667153 -0.22767691 -0.95935875 
-0.6072869 -0.6126692 -0.5058055 
-0.2666858 -0.86144745 -0.43218875 
-0.61165 -0.5595407 -0.559284 
0.22616649 -0.084229715 -0.9704402 
0.46920347 -0.72321385 -0.5067642 
0.20472103 -0.2122387 -0.95553344 
-0.17308557 -0.87261593 -0.45670882 
-0.64640814 -0.6633262 -0.37703437 
0.43616885 -0.118385054 -0.8920436 
-0.08084391 0.115563825 -0.9900047 
-0.2080204 0.12229801 -0.97044873 
-0.35782814 0.08062052 -0.9303007 
0.3380201 0.00092330284 -0.94113845 
0.36915427 -0.02476882 -0.9290381 
0.5004159 -0.281343 -0.81879795 
-0.17205997 -0.31668255 -0.9327955 
-0.112733476 -0.9244571 -0.36423957 
-0.25730434 -0.9541713 0.15281232 
-0.3656285 -0.9297178 0.044054102 
-0.45336258 -0.47122112 -0.7565798 
-0.056919508 -0.20032011 -0.97807574 
-0.65112495 -0.49578834 -0.5746566 
-0.021238886 -0.17654869 -0.9840628 
0.39302132 -0.28421447 -0.8745035 
0.11641379 -0.23079678 -0.96601284 
-0.027840674 -0.4264695 -0.90407336 
-0.5098625 -0.7456357 -0.42903107 
-0.13867757 -0.13972965 -0.9804306 
-0.03706632 -0.13923745 -0.98956513 
0.030119244 -0.2721814 -0.96177447 
0.08643597 -0.8084143 -0.5822329 
-0.380832 -0.557086 -0.7379853 
0.08555227 -0.3561257 -0.93051356 
0.4995328 0.0071356655 -0.86626565 
-0.44395918 -0.4584576 -0.76988125 
-0.7988942 -0.26944232 -0.53774446 
-0.60668635 -0.09033592 -0.7897918 
-0.20863868 -0.03633749 -0.9773176 
0.18617526 -0.015457335 -0.98239505 
-0.28224215 0.1442355 -0.94843847 
0.06296545 0.011263312 -0.9979522 
0.05718824 -0.03842286 -0.99762374 
-0.4625008 -0.04374522 -0.8855391 
-0.18902914 -0.013450807 -0.9818794 
0.7796404 -0.0011624191 -0.62622654 
-0.34266052 -0.42284784 -0.83891803 
0.69131017 -0.07956424 -0.7181642 
0.30827692 -0.28797883 -0.90666074 
-0.0966121 -0.6158782 -0.7818953 
0.20999157 -0.77898353 -0.5908368 
0.5594661 -0.42440534 -0.7119535 
0.4166562 -0.90035725 -0.1255168 
-0.553167 -0.83297586 -0.012549887 
-0.7522545 -0.43689322 -0.49319118 
-0.58091754 -0.11652976 -0.80557793 
0.085124 -0.4234741 -0.9019 
0.48413667 -0.7904407 -0.37525377 
-0.32374242 -0.6817776 -0.65602607 
0.0068521095 0.36276704 -0.9318547 
-0.6721289 0.16841419 -0.7210266 
-0.043078545 0.33546922 -0.9410658 
-0.2754692 -0.3829138 -0.8817561 
0.007282554 -0.24603462 -0.96923375 
0.17913972 -0.68342876 -0.7076964 
0.25092405 -0.53673387 -0.8055768 
-0.39188907 0.2188734 -0.89359796 
-0.28868762 -0.1306853 -0.94846237 
0.17258961 -0.39480144 -0.90241057 
-0.23142348 -0.8081061 -0.5416713 
-0.122538194 0.07122108 -0.98990506 
0.31279945 -0.25450227 -0.9150875 
0.11558463 0.22494009 -0.9674928 
0.5781854 0.38559973 -0.7190373 
0.6023989 -0.5301948 -0.59666497 
0.5797274 -0.8109988 0.07872155 
0.33441997 -0.40713134 -0.8499456 
-0.29711807 -0.40991753 -0.86237377 
-0.32470366 -0.40939605 -0.852621 
0.28782344 -0.8098652 -0.5111519 
0.47013408 -0.8204948 -0.3252113 
-0.036701277 -0.5423128 -0.83937466 
-0.048172895 0.19115858 -0.98037636 
0.53328216 0.2998311 -0.79101926 
0.45949203 0.09571279 -0.88300973 
-0.059696946 -0.3466982 -0.9360751 
-0.1964786 -0.47633138 -0.8570325 
-0.17068349 -0.6790558 -0.71396816 
-0.49674448 -0.2634973 -0.8269306 
-0.25831494 -0.264081 -0.92926574 
0.36717382 -0.4030778 -0.8382791 
0.403081 -0.5055845 -0.7628303 
0.18486358 -0.8823003 -0.43286443 
0.51065296 -0.38895026 -0.76677984 
0.927586 -0.093580365 -0.3617001 
0.8938486 -0.2645631 -0.36199605 
0.8146511 -0.08236703 -0.57407266 
0.4281524 0.07571952 -0.90052885 
0.7112037 0.17694955 -0.6803515 
0.049091134 -0.72035146 -0.6918698 
0.5310806 0.35232508 -0.7705974 
0.8003696 0.3627319 -0.47731963 
0.09018759 0.7158359 -0.6924198 
0.030609872 0.18124878 -0.9829609 
0.012818414 0.02990522 -0.99947053 
-0.07217543 -0.22738749 -0.97112596 
0.1383217 -0.3294147 -0.93399847 
-0.0060213264 -0.17405112 -0.9847182 
-0.08877437 -0.7416112 -0.6649301 
-0.048293613 -0.32726264 -0.9436985 
0.6144675 0.24693958 -0.74930006 
-0.12132243 0.058557864 -0.99088436 
0.10126902 -0.64510715 -0.75735164 
0.006636021 -0.21755964 -0.97602445 
0.2676624 -0.15501896 -0.9509606 
-0.079190865 -0.14129198 -0.98679554 
0.027116375 -0.21870047 -0.9754153 
0.3123261 0.40276414 -0.86036825 
-0.20369866 -0.4380317 -0.875577 
-0.40843886 -0.6682282 -0.621811 
0.10968267 -0.1482786 -0.98284453 
0.16452911 -0.45965454 -0.8727245 
-0.03434305 -0.52381176 -0.8511416 
0.36912748 -0.29704162 -0.8806312 
0.26412314 -0.043666992 -0.9635 
0.24636236 -0.0472015 -0.9680278 
0.2608756 -0.4221672 -0.86816984 
0.24583441 -0.91326606 -0.32482392 
-0.15690732 -0.9547525 -0.25264195 
-0.13722716 -0.941577 -0.30757365 
0.47404587 -0.7318361 -0.4895882 
0.32577837 -0.36627966 -0.8716121 
0.82574654 -0.48863995 -0.28173327 
0.34635502 -0.31832552 -0.8824438 
-0.4994065 -0.3990118 -0.7690141 
-0.1343458 -0.117047355 -0.9839976 
-0.013376018 -0.021121524 -0.99968743 
0.2347909 -0.25439113 -0.93816763 
0.43609485 0.43340322 -0.788659 
0.0961573 -0.23917486 -0.9662036 
0.7108594 -0.21765575 -0.6688086 
0.2981212 -0.18577585 -0.9362752 
0.24533638 -0.8273389 -0.5052925 
-0.18936165 -0.95382994 -0.23313242 
-0.1871336 -0.6422944 -0.74326235 
-0.1338949 -0.866784 -0.48037243 
-0.45918477 -0.5878884 -0.66598547 
-0.570265 -0.41511863 -0.7088543 
-0.381497 -0.8261424 -0.41466707 
0.06808611 -0.6830171 -0.7272221 
0.15220566 -0.74975514 -0.6439726 
-0.4392118 -0.83416206 -0.33356678 
-0.15265726 -0.59162664 -0.7916273 
-0.25416198 -0.056768015 -0.9654942 
0.081118934 -0.99315953 -0.08398748 
-0.46635354 -0.7114499 -0.5256934 
-0.3265154 -0.7722191 -0.5450372 
0.29916775 -0.30109927 -0.905449 
0.4165563 -0.4050302 -0.8138989 
0.43933862 -0.785128 -0.43652672 
0.55795604 -0.2779334 -0.7819452 
0.77671665 -0.5181158 -0.35814437 
0.27265164 0.40677541 -0.8718915 
-0.094019935 -0.17046125 -0.9808687 
-0.056522425 -0.5510117 -0.8325811 
0.0043231244 -0.26856256 -0.9632526 
0.06630807 -0.08606577 -0.9940804 
0.0973964 -0.63352185 -0.7675703 
0.50325954 -0.27152792 -0.82036734 
-0.1624214 0.2978381 -0.9406975 
0.38371494 -0.15041453 -0.9111192 
0.6062903 -0.6755474 -0.41958064 
-0.6619436 -0.6464688 -0.3793531 
-0.3003847 -0.44134036 -0.84556955 
-0.114331365 -0.18405797 -0.9762433 
-0.13925625 -0.004417142 -0.99024653 
-0.25780806 -0.35099265 -0.90018845 
-0.6061004 -0.50293195 -0.61619955 
-0.20240527 -0.6209438 -0.75727206 
-0.81343025 -0.3244152 -0.48278987 
-0.40748894 -0.012881546 -0.9131194 
-0.08044654 -0.40177244 -0.91219914 
0.36861917 -0.5245291 -0.76745623 
-0.15067664 -0.96638465 0.2083203 
-0.036692075 -0.85048455 -0.5247188 
0.7578878 -0.35939276 -0.54446584 
-0.43435022 -0.17842476 -0.88289565 
-0.6094626 -0.13257144 -0.78165233 
-0.74802905 -0.2968677 -0.59356725 
0.33672515 -0.49629116 -0.8001946 
-0.29480743 0.1683267 -0.94061404 
-0.09630109 -0.6813138 -0.7256291 
0.074425854 -0.9153381 -0.39574873 
-0.24169369 -0.81746894 -0.5228085 
-0.5242044 -0.769385 -0.36504304 
-0.2991834 -0.49381116 -0.8164802 
-0.37448758 -0.12970525 -0.91811526 
0.019009119 0.014511544 -0.999714 
0.060946345 -0.6781616 -0.7323814 
0.36291087 -0.115963705 -0.92458004 
-0.66564214 0.06609075 -0.7433388 
-0.54133946 0.062159456 -0.8385033 
0.3179842 -0.49571836 -0.8081765 
0.7519899 -0.40473872 -0.52028614 
0.060375378 -0.18173686 -0.981492 
0.51627284 -0.086703815 -0.8520241 
0.4549038 -0.084250785 -0.88654625 
-0.45325837 -0.8083815 -0.37560114 
-0.3662681 -0.54928726 -0.7510867 
-0.6500652 -0.15757017 -0.7433619 
-0.49699572 -0.30499998 -0.8123856 
-0.26526397 0.4899098 -0.8304357 
-0.15272443 0.022372244 -0.9880156 
-0.40706062 0.42240968 -0.80985916 
-0.37228605 0.33889097 -0.8640347 
-0.061619565 -0.42226654 -0.90437496 
-0.5590587 -0.11963447 -0.8204517 
0.16085239 -0.07594397 -0.9840524 
0.4934105 -0.6352179 -0.59417534 
0.22684047 -0.4996776 -0.8359819 
0.03535476 -0.85704625 -0.5140253 
-0.7169893 -0.5490951 -0.4294426 
-0.41388494 -0.753066 -0.5114596 
-0.03362973 -0.25277534 -0.9669404 
0.35306358 -0.57620203 -0.73711425 
0.5581412 -0.038489133 -0.8288529 
0.07318524 0.4522312 -0.8888931 
0.1924618 0.42639276 -0.88382566 
0.79427713 0.315037 -0.5194955 
0.46252453 0.6456735 -0.60759926 
-0.6998994 -0.23868324 -0.67318 
-0.57292056 -0.31937963 -0.75482357 
-0.7693226 -0.59495294 -0.23275258 
-0.09042509 -0.5173502 -0.85098314 
0.6814691 -0.0068580187 -0.73181486 
0.59323317 -0.011267945 -0.80495197 
0.16502298 0.09727908 -0.98148066 
0.4040644 0.30669302 -0.8617839 
0.4096712 -0.11533182 -0.9049134 
-0.24728185 -0.7362572 -0.6299025 
-0.10880036 -0.633171 -0.7663269 
-0.12021425 -0.06768682 -0.9904378 
-0.014197981 -0.19112788 -0.98146254 
0.4679658 -0.44338465 -0.7644725 
-0.21120462 -0.61621815 -0.7587279 
0.2629638 -0.6136737 -0.7444828 
-0.14289092 -0.5220226 -0.8408773 
-0.5731133 -0.07129378 -0.816369 
-0.7907136 -0.010575983 -0.612095 
0.68105525 -0.02782333 -0.73170334 
0.7013836 -0.17676795 -0.69051737 
0.32673222 -0.2618103 -0.90813076 
0.52145207 -0.5369409 -0.6631608 
0.4418677 -0.8723833 -0.20904602 
0.5425259 0.17392643 -0.8218366 
0.69437677 0.6370704 -0.33463743 
0.116938636 -0.018864095 -0.99296004 
-0.13863826 -0.34634382 -0.9278068 
0.18746163 -0.34253243 -0.92061377 
-0.15304336 -0.5935798 -0.7900891 
0.4238479 -0.60005206 -0.67844725 
-0.16764191 -0.51188684 -0.8425368 
0.072997354 -0.11449605 -0.9907382 
-0.3667657 -0.92268324 -0.11890553 
-0.15921287 -0.5780815 -0.8002956 
-0.27219543 0.065470934 -0.9600121 
-0.07613177 -0.22949748 -0.97032726 
0.21528591 -0.23241745 -0.94849044 
-0.045255706 -0.51650566 -0.8550871 
0.37159443 -0.42756483 -0.82407886 
-0.12551345 0.0011730122 -0.9920913 
0.4387244 -0.4964904 -0.7490116 
0.5145243 -0.7570996 -0.40257293 
0.32552165 -0.6003954 -0.73045266 
-0.100105286 -0.7195154 -0.68722385 
-0.47232485 -0.43059278 -0.7690898 
-0.545067 -0.1355844 -0.8273566 
-0.62354404 -0.110479034 -0.7739427 
-0.61068064 -0.46280223 -0.64256 
-0.524498 0.18346214 -0.8314105 
0.36868426 0.5057359 -0.779938 
0.118741505 0.19175176 -0.9742339 
-0.53434604 -0.57659113 -0.6180752 
-0.45929545 -0.41345233 -0.7861965 
-0.41617504 -0.33161578 -0.8466579 
-0.53152835 -0.46493015 -0.70803785 
-0.5147136 -0.3523819 -0.7815991 
-0.8151288 -0.46910974 -0.33985478 
-0.58938813 0.20542786 -0.7812945 
-0.47754085 0.2029634 -0.85484535 
-0.32892868 0.49495628 -0.8042538 
-0.6689178 0.43233758 -0.60467625 
-0.37965247 -0.24776703 -0.89133364 
-0.961522 0.040863954 -0.27167186 
-0.32599708 0.37481153 -0.86789525 
-0.756517 0.28580955 -0.5882134 
-0.26493043 0.0974759 -0.95932806 
-0.06554137 0.1942384 -0.9787624 
-0.14968547 0.479672 -0.86458606 
-0.12694241 -0.15331566 -0.9799898 
0.2232875 -0.6498387 -0.7265346 
0.49632987 -0.28670463 -0.81942487 
-0.13876532 -0.67531 -0.72436225 
0.568582 0.020486413 -0.8223715 
0.71056885 -7.670091e-06 -0.7036277 
0.007190291 -0.78592986 -0.618274 
0.1522649 -0.10444219 -0.98280585 
0.15017377 -0.300865 -0.94176865 
-0.1057735 -0.76092833 -0.6401563 
-0.8635897 -0.46229753 -0.201231 
-0.7199088 -0.59989023 -0.34908903 
-0.44932896 -0.5939127 -0.66736144 
-0.36667436 -0.6163746 -0.6968733 
-0.30797482 -0.8893801 -0.33786774 
-0.55569327 -0.17597517 -0.81255025 
-0.19841275 -0.36778668 -0.90849626 
-0.14022277 -0.103302784 -0.9847163 
0.012211549 0.11724113 -0.99302846 
-0.27326736 -0.06592746 -0.95967627 
-0.034810852 -0.020804878 -0.9991774 
-0.31423184 -0.31217834 -0.89655066 
-0.42295977 -0.5534722 -0.7174773 
-0.6706309 -0.6992663 -0.24754967 
-0.8224598 -0.37268755 -0.42972535 
-0.1300247 -0.7048122 -0.6973761 
-0.06436842 -0.5622307 -0.82447165 
0.56322527 0.20718732 -0.79990673 
0.24123582 -0.12905303 -0.9618475 
0.41500792 0.21681209 -0.8836068 
0.26371732 -0.15847488 -0.95149297 
0.27623802 -0.26313925 -0.9243648 
0.38034865 -0.5926478 -0.71000254 
0.27880734 -0.78893703 -0.5475809 
0.3391418 -0.15800163 -0.9273718 
0.4649618 -0.0960123 -0.8801092 
0.6002562 -0.23550425 -0.7643496 
-0.1465151 -0.39963242 -0.9048908 
-0.18297438 -0.37739688 -0.9077952 
-0.014177167 0.47167635 -0.88165784 
0.2647705 0.5888768 -0.7636234 
-0.2435295 0.2525255 -0.93644243 
-0.3815503 0.17777096 -0.9070926 
0.020456247 -0.09693295 -0.9950807 
0.1438074 -0.45059717 -0.8810685 
0.34870237 -0.29426023 -0.88984144 
0.35153958 -0.33203727 -0.87531203 
0.5850788 -0.5812802 -0.56550527 
0.87818456 -0.23846921 -0.4146375 
0.7350255 -0.607134 -0.30187055 
0.23928913 -0.58513105 -0.7748305 
0.7177537 -0.22508998 -0.65891135 
0.6086357 -0.07458199 -0.78993684 
0.17997412 0.42524126 -0.88700575 
0.28514534 0.31479132 -0.90531695 
-0.07888685 0.39630517 -0.91472346 
-0.07756476 -0.26695776 -0.9605817 
0.05465381 0.21221094 -0.9756944 
0.4226941 0.21434061 -0.8805611 
0.023350783 -0.3020797 -0.9529967 
-0.48414382 -0.12739058 -0.86566526 
0.03358155 -0.5046476 -0.8626721 
-0.06651415 -0.72185165 -0.6888441 
0.0943641 -0.25581774 -0.9621085 
-0.297091 -0.6572086 -0.6926859 
0.32453945 -0.78820485 -0.5228836 
0.5032539 -0.6238532 -0.59794885 
0.8132257 -0.37129447 -0.44811198 
0.7567897 -0.27591702 -0.59257007 
0.070296414 -0.40059194 -0.9135561 
-0.5235848 -0.04608522 -0.8507262 
0.21401012 -0.29039142 -0.93266964 
0.19151078 -0.5180406 -0.83364123 
-0.2746907 -0.36491215 -0.88959783 
0.007855753 0.1700974 -0.985396 
0.24016657 -0.2766575 -0.9304734 
-0.2817396 -0.20333129 -0.9376989 
-0.5763124 -0.6697192 -0.4683378 
-0.085439526 0.22970389 -0.96950316 
0.046277057 -0.23142558 -0.9717514 
-0.39912683 -0.06620892 -0.91450214 
-0.031473648 -0.10717144 -0.9937423 
0.213883 -0.11071847 -0.9705645 
0.52424234 -0.698262 -0.48744255 
0.13659404 -0.46671304 -0.8737969 
0.120940305 -0.4826513 -0.86742216 
-0.04407146 -0.3696421 -0.92812854 
0.11054812 -0.46591786 -0.87789506 
0.1619292 -0.45075932 -0.87783545 
0.5068413 -0.5977934 -0.6210918 
-0.32930458 -0.61660486 -0.71509236 
-0.05905596 -0.4262808 -0.90266114 
0.20554191 0.14115891 -0.96841455 
-0.33530363 -0.59036136 -0.73419684 
-0.17604256 -0.6092465 -0.7731932 
0.38732448 0.54929894 -0.74043936 
0.44742164 0.08396279 -0.8903731 
-0.43744075 -0.42428046 -0.7928631 
0.43939188 -0.23087159 -0.8681205 
0.3484857 -0.84396285 -0.40777993 
0.5144039 -0.76344556 -0.39056322 
-0.32940853 -0.08465168 -0.94038516 
-0.51215774 -0.29650098 -0.80609035 
-0.30912146 -0.4278084 -0.8493667 
-0.4260969 -0.8721171 -0.2405271 
-0.72361124 -0.68064374 -0.114502795 
-0.72397375 -0.66309816 -0.1901657 
-0.12061897 -0.7865726 -0.60560274 
0.046168678 -0.65877557 -0.75092155 
-0.26415977 -0.4147678 -0.8707396 
-0.3323094 0.5366545 -0.77561104 
0.056463458 -0.4210457 -0.90528035 
0.3131858 0.010846559 -0.94962996 
-0.44648218 -0.5782454 -0.6828514 
-0.020601183 -0.352611 -0.93554324 
-0.35051513 0.07881079 -0.9332352 
0.3711573 -0.5155892 -0.772276 
0.65438133 0.13349338 -0.744288 
0.616014 0.17098318 -0.7689548 
0.89118385 0.18396124 -0.4146683 
-0.20054232 0.34127745 -0.9183205 
-0.3340839 -0.19333066 -0.92250276 
-0.1776056 0.19605947 -0.96437395 
0.27586994 -0.082391225 -0.95765734 
0.17022005 -0.50030965 -0.8489496 
0.44632903 -0.89486885 0.00031727686 
-0.21401857 -0.82223356 -0.5273785 
-0.532604 0.1348541 -0.8355522 
-0.40591964 -0.478154 -0.77884406 
-0.59222573 -0.5504668 -0.58843446 
-0.57803756 -0.45147446 -0.6797378 
-0.43248814 -0.0881238 -0.89732283 
-0.08745709 -0.26682046 -0.9597698 
-0.256138 -0.25011635 -0.9337211 
0.033070844 -0.23181137 -0.9721985 
-0.2103111 -0.118556105 -0.97041935 
-0.40295416 -0.6139637 -0.6787316 
-0.3401144 0.17762013 -0.9234573 
0.06632764 -0.86701906 -0.49384066 
0.35789147 -0.5442358 -0.758763 
0.08036307 -0.97316986 -0.21559758 
-0.5958419 -0.73992413 -0.31222537 
-0.6466137 -0.09657148 -0.75668013 
-0.5888488 -0.23926106 -0.7720177 
-0.65249056 0.4218809 -0.6295019 
-0.019429978 0.27820322 -0.9603258 
-0.2586966 -0.6318285 -0.7306633 
-0.5757411 -0.4934216 -0.65196425 
-0.1047778 -0.2550307 -0.96123934 
-0.57623434 -0.6623699 -0.47876945 
-0.49741092 -0.18517584 -0.84752136 
-0.8155894 -0.27513683 -0.509032 
-0.44343057 -0.23115996 -0.86598754 
-0.30358064 0.005580981 -0.9527894 
-0.12988208 -0.09303262 -0.9871553 
0.33677676 -0.33230582 -0.8809962 
-0.8029337 -0.013006079 -0.5959266 
0.25143033 0.28908452 -0.9236953 
0.8274997 -0.27421772 -0.48994792 
0.4287988 0.2636425 -0.8640743 
0.45062888 0.106950544 -0.8862817 
0.81438243 0.14426152 -0.5621121 
-0.11573651 -0.7267831 -0.6770461 
-0.23481148 -0.54700565 -0.80352247 
-0.4772982 -0.35251173 -0.80493605 
-0.43176916 -0.6985812 -0.5705784 
-0.004399508 -0.70284295 -0.7113315 
-0.23990884 0.04323629 -0.9698322 
-0.3384756 -0.26908317 -0.90168095 
-0.06272593 0.12051483 -0.9907279 
-0.19959962 0.13623668 -0.9703606 
-0.431857 -0.0071617146 -0.9019137 
-0.2678646 0.13120893 -0.95448035 
-0.6326326 -0.1468761 -0.76039696 
0.057814 -0.42724875 -0.9022839 
-0.513656 -0.20784879 -0.83244 
-0.48270684 -0.24439503 -0.84099066 
0.24422678 -0.638632 -0.7297277 
-0.5115271 -0.51073253 -0.69100815 
-0.22181743 -0.60751945 -0.76270384 
-0.1687963 0.467126 -0.86792916 
0.116534464 -0.2372037 -0.96444505 
0.24819696 -0.10748902 -0.96272767 
0.36536166 0.27751324 -0.8885367 
0.80637 -0.0083059985 -0.5913531 
0.8834046 0.38620228 -0.2654129 
-0.44088614 0.7855875 -0.43413338 
-0.6481462 -0.10760543 -0.7538751 
-0.4373429 -0.080712266 -0.8956656 
-0.19601272 0.4626431 -0.86460423 
-0.0051812218 0.29372975 -0.9558745 
-0.37716073 -0.026305452 -0.9257742 
-0.6056332 0.352941 -0.71319085 
-0.2739545 0.6662575 -0.69357765 
-0.21679363 0.8460576 -0.48701864 
-0.5665295 0.06368478 -0.82157695 
-0.2943695 0.02339772 -0.95540524 
0.17892644 0.27730215 -0.94397503 
0.16370197 0.5651449 -0.8085871 
-0.14494376 -0.07768298 -0.98638564 
-0.47292724 -0.098508656 -0.8755775 
-0.24645223 -0.49545774 -0.8329363 
-0.07518914 -0.5655271 -0.82129514 
-0.17371836 -0.27329263 -0.9461147 
0.49254146 -0.4531145 -0.7430277 
-0.21618274 0.1044481 -0.9707501 
0.52755964 -0.18749379 -0.8285692 
0.89941835 -0.43633342 0.025690837 
0.9920921 -0.030231152 -0.12181758 
0.921429 -0.08720753 -0.37863377 
0.24533693 -0.3605376 -0.89990133 
0.7238569 -0.354274 -0.5920483 
0.36687258 0.12912491 -0.92126614 
0.08456402 -0.17061435 -0.98170245 
-0.31518853 -0.101801254 -0.9435532 
-0.25974166 0.21911177 -0.9404915 
-0.21937747 -0.050060514 -0.974355 
0.5739053 -0.39695683 -0.7162807 
-0.17569803 -0.085009776 -0.9807669 
-0.102525584 -0.17343917 -0.97949344 
-0.4084704 -0.56983316 -0.7130513 
-0.44978586 -0.84343797 -0.29377738 
-0.7903365 -0.29741395 -0.5356429 
-0.19827588 0.15683684 -0.96751696 
-0.7434851 -0.09549009 -0.6619 
-0.014111961 -0.6783719 -0.73458326 
0.11398201 -0.38473305 -0.91596323 
0.37855795 0.12522148 -0.9170679 
0.37921572 -0.18808803 -0.90599024 
0.029419295 -0.710187 -0.7033981 
0.34885323 -0.720062 -0.5998435 
0.008141327 -0.53088343 -0.84740573 
-0.70110595 -0.12396904 -0.70219815 
-0.2662484 -0.3619407 -0.8933705 
-0.25084707 -0.19908759 -0.94733304 
-0.70471513 -0.44518712 -0.5524357 
0.005726695 0.01675742 -0.99984324 
0.30172434 0.49357307 -0.8156887 
-0.48736742 0.43201813 -0.7588369 
-0.68108505 0.4533037 -0.5750122 
0.095863655 0.038397457 -0.99465364 
-0.2714544 -0.080630116 -0.95906794 
0.1341592 -0.7104286 -0.6908636 
0.23063743 -0.6670377 -0.7084258 
-0.64085585 0.32614452 -0.6949343 
-0.6299716 -0.3672175 -0.684315 
0.036057483 -0.10979191 -0.99330044 
-0.107791595 0.6510395 -0.75135124 
-0.0020723115 0.5578951 -0.82990885 
-0.045995623 0.23988241 -0.9697118 
-0.3269355 0.49497995 -0.80505157 
-0.35455826 -0.027381657 -0.93463296 
-0.7384384 0.33741832 -0.5838301 
-0.105405875 0.8373472 -0.53641343 
-0.27062276 0.6210744 -0.73554736 
-0.18150726 0.630891 -0.75434196 