# OOMMF: rectangular mesh v1.0
# Segment count: 1
# Begin: Segment
# Begin: Header
# Desc: Time (s) :  8.590000000000023e-07
# Title: m
# meshtype: rectangular
# meshunit: m
# xbase: 2e-09
# ybase: 2e-09
# zbase: 5e-10
# xstepsize: 4e-09
# ystepsize: 4e-09
# zstepsize: 1e-09
# xmin: 0
# ymin: 0
# zmin: 0
# xmax: 1.024e-06
# ymax: 1.024e-06
# zmax: 1e-09
# xnodes: 256
# ynodes: 256
# znodes: 1
# ValueRangeMinMag: 1e-08
# ValueRangeMaxMag: 1
# valueunit: 
# valuemultiplier: 1
# End: Header
# Begin: Data Text
-0.9929097 0.11629131 -0.024632236 
-0.68224126 -0.7083402 -0.18111056 
-0.37764606 -0.4362291 -0.81675434 
0.57333 -0.5279464 -0.6265504 
0.36450645 -0.57163376 -0.7350986 
0.19415629 -0.8656206 -0.46152404 
0.34134555 0.1239116 -0.9317345 
-0.33089668 -0.5906504 -0.7359617 
0.1535083 -0.79545957 -0.58624166 
0.5813705 -0.54401124 -0.60502917 
0.29996136 -0.3799165 -0.8750352 
0.04882298 -0.106729455 -0.9930887 
0.20878775 -0.06845379 -0.97556233 
-0.26981136 0.18595698 -0.9447867 
0.7948159 -0.20489623 -0.57121396 
0.6736951 -0.065046035 -0.73614126 
0.98403823 0.13232057 -0.118996456 
0.35282946 -0.11243934 -0.9289074 
0.48190144 -0.73721063 -0.47359434 
0.35217315 -0.9346673 -0.04869577 
0.22451551 -0.37789324 -0.89821464 
0.12366494 -0.28829685 -0.949522 
-0.1498501 -0.011563165 -0.98864114 
0.23414488 0.3418712 -0.91011006 
0.3403705 -0.12795782 -0.93154436 
0.36650234 -0.74905604 -0.55189776 
0.23849414 -0.24378015 -0.9400489 
0.660301 -0.7277891 -0.18527214 
0.9769559 -0.20637594 0.054462332 
-0.16174851 -0.9745432 0.15525183 
-0.7845476 -0.17637336 -0.5944558 
-0.53671664 -0.43863764 -0.720786 
-0.5006942 -0.3434694 -0.7945653 
-0.17031935 0.25287876 -0.9523884 
0.14300345 0.047377642 -0.9885876 
0.60641974 -0.5659257 -0.5585546 
0.61194164 -0.23154634 -0.7562498 
-0.0083498955 -0.5478225 -0.83655304 
0.08628819 -0.23072033 -0.9691865 
-0.39164808 -0.274316 -0.8782725 
-0.40073615 -0.18610086 -0.8970937 
-0.38859907 0.023568118 -0.9211055 
-0.009445714 -0.44473428 -0.8956128 
0.44726172 -0.42337894 -0.78784984 
0.12629929 -0.91028994 -0.39423433 
-0.10057624 -0.44634166 -0.88919264 
0.25606692 -0.10594277 -0.9608361 
0.64015496 -0.7681351 -0.01304273 
0.50215864 -0.80771875 -0.30891284 
-0.05464695 -0.9550984 -0.291206 
0.19902991 -0.5757312 -0.7930452 
0.22354946 -0.1920223 -0.9555904 
-0.3368274 0.24874622 -0.9081149 
0.12598613 -0.20049016 -0.9715612 
-0.16674194 -0.2925456 -0.941602 
0.12466415 -0.5077733 -0.8524232 
-0.24870388 -0.7452782 -0.6186331 
0.0584016 -0.976206 -0.20883282 
0.5135981 -0.7995208 -0.3114216 
0.2594399 -0.7623855 -0.5928402 
0.267275 -0.7705519 -0.578631 
0.04599955 -0.59611183 -0.80158263 
0.2858103 -0.7413506 -0.60721654 
-0.06276217 -0.70913666 -0.7022721 
-0.34170872 -0.6551987 -0.67375803 
-0.306371 -0.011886843 -0.95183796 
0.027011584 0.18834628 -0.98173124 
0.1237504 -0.60072786 -0.7898177 
0.8018475 0.09501322 -0.5899264 
0.2911846 0.793868 -0.5338402 
0.48790964 0.53641576 -0.6886236 
0.855367 0.19419001 -0.4802473 
0.15874799 -0.59590936 -0.7872047 
-0.26155314 -0.6931562 -0.67165804 
-0.22802337 -0.96606606 -0.12133333 
-0.532564 -0.5591207 -0.635421 
-0.5322836 -0.25560173 -0.8070576 
-0.52484936 -0.52273786 -0.67177254 
-0.6956632 -0.22485305 -0.68227106 
0.078543566 -0.7491546 -0.6577221 
0.6025159 -0.20744883 -0.77067477 
-0.12608626 -0.51910704 -0.845358 
-0.1766156 -0.13661672 -0.9747527 
-0.23954368 -0.39837828 -0.88538903 
-0.36302495 -0.6757574 -0.64153326 
0.26595294 -0.4230927 -0.8661764 
0.6758935 0.09487679 -0.7308669 
0.4168097 0.25729373 -0.87181973 
-0.29892242 -0.029050104 -0.9538352 
-0.16127276 -0.5224446 -0.837283 
-0.13113055 -0.8569251 -0.498482 
0.14787494 -0.95712245 -0.2490977 
0.36847773 -0.6090867 -0.70230883 
-0.022569092 -0.03485066 -0.99913764 
-0.3758576 -0.1631765 -0.9121977 
-0.17701809 -0.034010276 -0.98361987 
0.1473094 0.11419676 -0.98247606 
0.6658327 0.7246617 -0.17757331 
0.2958888 0.17234685 -0.9395459 
0.5392713 -0.5279355 -0.6561026 
0.28206745 -0.6426955 -0.7123065 
0.032166045 -0.20515597 -0.97820055 
-0.32587907 0.21762696 -0.92002255 
0.012790549 -0.95654064 -0.29131863 
0.34440267 -0.73976266 -0.57804674 
0.57321435 -0.6952411 -0.4336648 
0.35126898 -0.6227597 -0.69912845 
0.49118108 -0.32365152 -0.80869704 
0.14207307 -0.527816 -0.8373922 
-0.1834855 -0.28155205 -0.9418395 
-0.43611327 0.012738759 -0.8998017 
-0.26691964 -0.6016737 -0.7528232 
0.7491225 -0.43989736 -0.49528357 
-0.60948926 -0.63110304 -0.47982478 
-0.23874724 -0.6379333 -0.7321481 
0.0014828193 -0.39071962 -0.9205086 
-0.8952085 -0.3757384 -0.23962992 
-0.51486206 -0.48265636 -0.7084914 
0.18747461 0.19630077 -0.96245486 
0.43291208 0.30191672 -0.8493725 
0.9028138 -0.25675005 -0.34497344 
0.25826326 0.014927208 -0.96595925 
0.076025 -0.13389952 -0.9880744 
-0.34275195 -0.825865 -0.44773674 
-0.8572179 -0.36347753 0.36477605 
-0.58988905 0.011827495 -0.8073978 
-0.14624026 -0.6191145 -0.77156395 
0.23646379 -0.093475364 -0.9671335 
0.36820054 0.20081282 -0.907801 
0.22593383 -0.35636392 -0.90661937 
0.113594286 -0.9551983 -0.2732995 
-0.637225 -0.77062404 0.009103617 
-0.7420822 -0.6514148 -0.15802814 
-0.48579276 -0.39456308 -0.77995217 
0.021255344 -0.063963324 -0.9977259 
0.65870166 -0.579237 -0.4802048 
-0.055386286 -0.6584702 -0.750566 
0.2903967 -0.6059145 -0.74063325 
0.33315334 -0.73682714 -0.58829814 
0.058664642 -0.9961183 -0.0656259 
0.47710302 -0.86414564 -0.16007851 
-0.1805068 -0.96000946 -0.21400765 
-0.60456747 -0.2803536 -0.7455871 
-0.106899686 -0.01470475 -0.99416107 
-0.5473463 -0.47458777 -0.6893319 
-0.37904403 0.48843294 -0.78597647 
-0.01629874 -0.01733894 -0.9997169 
0.22042681 -0.04908274 -0.9741678 
0.10935519 -0.4899125 -0.8648857 
-0.2389538 0.095997036 -0.96627414 
-0.036516514 -0.42150682 -0.90608966 
0.24043123 -0.213843 -0.9468179 
0.50969225 0.35501942 -0.7836933 
0.9015047 -0.22878203 -0.36735278 
0.28910774 -0.90217966 -0.32013848 
0.28891328 -0.92410684 -0.25011173 
0.8587135 -0.4038963 -0.31540275 
0.50828576 -0.85232246 0.12325618 
0.2724763 -0.88017344 0.38865334 
-0.51829445 -0.84533244 0.12955365 
-0.20326148 -0.9421086 -0.2666762 
0.5332452 -0.8287473 -0.1697866 
0.6076961 0.29457283 -0.7375178 
-0.011056591 0.6992423 -0.71479934 
-0.010364978 0.17989458 -0.9836314 
0.3876198 0.26853836 -0.8818379 
0.85725373 -0.44060272 -0.266431 
0.8411725 -0.48273197 -0.24371813 
0.19475898 -0.9121829 -0.3605429 
-0.87898403 -0.16768503 0.44639543 
-0.8843324 -0.42467856 -0.19391832 
-0.5243126 -0.31109983 -0.79266214 
0.1730833 -0.17047311 -0.9700419 
-0.10111867 -0.83757704 -0.53687954 
-0.34464657 -0.66817415 -0.65936494 
0.44229484 -0.2429968 -0.86332375 
-0.20309968 -0.6116515 -0.7646131 
-0.76444155 -0.41506994 -0.49330118 
-0.07094036 -0.519195 -0.8517065 
0.18252444 -0.88773257 -0.42262948 
0.03986343 -0.58390784 -0.81084067 
0.31349936 -0.51690143 -0.7965746 
0.52385104 -0.581951 -0.6220234 
0.43615818 0.22409426 -0.87152046 
-0.33869672 0.1796743 -0.92358094 
-0.70194167 0.7072572 -0.08405442 
-0.6419755 0.3962101 -0.65641826 
-0.5866311 0.19371237 -0.78634566 
-0.0065938714 -0.6097644 -0.7925553 
0.301638 0.108447 -0.94723487 
-0.6264732 -0.5940449 -0.5046207 
-0.3655753 -0.89807224 -0.24458331 
0.13570169 -0.9711613 -0.196038 
-0.561387 -0.70106715 -0.43971533 
0.09055951 -0.51712364 -0.8511065 
-0.56470907 -0.33863768 -0.7526143 
-0.39214492 -0.4554784 -0.7992258 
-0.4723513 -0.45375332 -0.7556403 
0.10892642 -0.19203517 -0.97532433 
0.84407043 -0.17428698 -0.5071185 
-0.027499102 -0.44381073 -0.89569855 
0.11377902 -0.48241198 -0.8685236 
-0.017403455 -0.25116038 -0.96778905 
-0.48056415 -0.65097624 -0.5876123 
0.19953997 -0.6220169 -0.75715184 
0.06838672 -0.98129576 0.17994954 
-0.040693756 -0.9271025 0.37259224 
0.19424674 -0.9700617 -0.14576906 
-0.71544445 -0.47711632 -0.5103914 
-0.3003523 -0.30226633 -0.90466774 
-0.25019825 -0.5157535 -0.81938964 
-0.16992538 -0.4809318 -0.8601337 
-0.70134586 -0.46248418 -0.5424228 
-0.55285233 -0.83174485 -0.05054716 
0.26201048 -0.59875524 -0.7568638 
0.28768617 -0.525227 -0.80085784 
-0.40613928 -0.3650462 -0.83773035 
-0.112561405 -0.1584487 -0.9809302 
-0.73117214 -0.4560556 -0.50734675 
0.01939593 -0.8278911 -0.5605535 
0.03768811 -0.5757819 -0.8167342 
0.12629065 -0.36158004 -0.92374814 
0.19033226 -0.8833407 -0.42834914 
0.7609315 -0.28045037 -0.58509064 
0.71231055 0.19402033 -0.6745146 
-0.27713782 0.32352677 -0.9047238 
0.22304241 -0.13347691 -0.96562725 
-0.34275588 -0.16441947 -0.92492414 
-0.106159784 -0.97991425 -0.16881423 
0.4738672 -0.78456324 -0.39988783 
-0.15204605 -0.96195495 -0.22699042 
-0.6447144 -0.64072996 -0.41690356 
-0.076684274 -0.8928361 -0.44380563 
-0.12731004 -0.35961175 -0.92437637 
0.30941373 -0.0069714366 -0.950902 
0.726909 -0.44594577 -0.5222412 
0.3026828 -0.40468493 -0.86290973 
0.2600149 -0.28431612 -0.9227983 
-0.44343218 -0.56221634 -0.698055 
-0.2305161 -0.609081 -0.75886935 
-0.37547916 -0.81183726 -0.44714174 
0.1045867 -0.1956387 -0.97508323 
0.4893044 -0.3599289 -0.79437554 
-0.6523941 -0.44198427 -0.6156557 
-0.3790688 -0.47441018 -0.7945073 
0.061210234 -0.9754786 0.21141183 
-0.6684806 -0.32542992 -0.6687519 
0.099146575 0.17543481 -0.97948587 
-0.80967385 -0.29227793 -0.5089222 
-0.3767854 -0.44386977 -0.8130268 
-0.08556827 0.06257299 -0.99436545 
0.31568882 -0.41283807 -0.85434496 
-0.581989 -0.13085552 -0.80259943 
0.10132427 -0.1075407 -0.98902404 
0.5057639 -0.10160019 -0.85666823 
0.86825377 -0.311529 -0.38611534 
-0.7290732 -0.26201582 -0.63229746 
-0.13877708 -0.6136482 -0.7772882 
-0.19471103 -0.29962552 -0.9339766 
0.41741982 -0.13579205 -0.8985105 
-0.0060762526 -0.38713548 -0.9220028 
-0.43137753 -0.5451556 -0.7188316 
-0.35565785 -0.17209125 -0.9186361 
-0.24081492 0.06304281 -0.96852154 
-0.6028725 -0.48762694 -0.6314783 
0.37334284 -0.16083856 -0.91364443 
-0.099956125 0.015061193 -0.9948779 
0.29294777 -0.40620014 -0.86555374 
0.39610797 -0.4068396 -0.8231524 
0.49925047 0.044320513 -0.8653235 
0.6334289 -0.10366552 -0.76682544 
0.61383283 -0.21736561 -0.75892127 
0.9216215 0.31705666 -0.22380577 
0.43127546 0.13989608 -0.89130837 
0.61292607 -0.74237955 -0.27054435 
-0.4518985 -0.8240774 -0.34159073 
-0.30201256 -0.19719876 -0.93268484 
0.13649191 -0.78257626 -0.60740787 
-0.13532904 -0.19826493 -0.97076106 
0.04031598 0.0043617045 -0.99917746 
0.003783334 -0.18742004 -0.9822726 
0.18241027 -0.89803123 -0.40033296 
0.21264856 -0.4210424 -0.8817619 
0.4273178 -0.7932883 -0.43369704 
0.13390927 -0.9872868 0.085633256 
-0.31912723 -0.8671337 -0.38240975 
0.033241875 0.10670679 -0.9937348 
0.0449416 -0.122241326 -0.9914824 
-0.41305614 0.16023794 -0.89649785 
-0.29693472 0.5544965 -0.7774081 
0.07206108 0.1488214 -0.986235 
0.1481373 -0.56345093 -0.8127597 
0.009987965 -0.5380331 -0.8428645 
0.23572242 -0.31527847 -0.9192575 
-0.04060343 -0.6088138 -0.7922734 
0.019181682 -0.6420589 -0.7664154 
-0.28976685 -0.47826993 -0.8290314 
-0.20998816 -0.8318904 -0.51367635 
0.026925612 -0.5594416 -0.82843226 
0.6027818 -0.58422697 -0.5434455 
0.99444073 0.024742836 -0.102349654 
0.34908193 -0.20402795 -0.9146117 
0.3926993 -0.5036086 -0.7695231 
0.4200185 -0.6520687 -0.6311822 
0.008568744 -0.80287796 -0.596082 
0.32851017 -0.52754945 -0.78343654 
0.33935478 -0.26504287 -0.9025467 
0.49415132 -0.1908661 -0.8481654 
0.34948662 0.8390749 -0.41690832 
0.46056786 0.6509355 -0.6034569 
0.40883872 -0.11029335 -0.90591747 
-0.30971497 -0.42388186 -0.85111743 
-0.22895183 -0.44489992 -0.86582047 
0.011412367 -0.8148367 -0.57957834 
-0.5954501 -0.72471225 -0.34674385 
-0.23920035 -0.64296085 -0.72758824 
0.4230163 -0.106129944 -0.8998854 
0.6418301 -0.46509618 -0.60970473 
0.773347 -0.20245178 -0.6007892 
0.2523999 -0.96522397 -0.06809655 
-0.18016309 -0.57372326 -0.7989887 
-0.024180925 0.45227885 -0.8915488 
0.11234797 0.30534023 -0.9455926 
-0.17234766 0.084980674 -0.98136365 
0.7936349 0.16375795 -0.5859412 
0.25882214 0.30931208 -0.91506135 
0.21131071 0.23030286 -0.94989926 
0.22133765 0.011983566 -0.97512364 
0.12994918 -0.73169965 -0.66912544 
-0.28668302 -0.09759364 -0.9530417 
-0.011920751 -0.6092795 -0.79286593 
-0.19668648 -0.2819974 -0.9390378 
-0.6639416 -0.64480567 -0.37869155 
-0.7919859 -0.28074315 -0.54216397 
-0.35840133 -0.5795867 -0.7318659 
-0.06316477 -0.6910728 -0.72001994 
-0.17159265 -0.8331489 -0.5257555 
-0.83888704 0.21464701 -0.50019526 
-0.010353621 -0.080088355 -0.9967341 
-0.08861278 0.28693008 -0.95384437 
-0.3188278 0.07410653 -0.94491124 
-0.11950414 0.23911849 -0.9636084 
-0.9115592 0.16549367 -0.37639302 
-0.2529669 0.2834374 -0.92502487 
-0.3370995 0.042623278 -0.9405038 
-0.0319597 0.20912156 -0.9773673 
0.24597834 -0.635753 -0.7316508 
0.06976517 -0.3846004 -0.92044306 
-0.22802068 0.111268334 -0.9672776 
0.13947423 -0.24972044 -0.95822054 
-0.3853396 0.2461404 -0.88934153 
0.31771788 -0.11011642 -0.94176954 
-0.65215904 0.55887693 -0.5121965 
0.49893266 0.8118813 -0.30317506 
0.5014175 0.5039133 -0.703315 
0.46175304 0.27386332 -0.8436724 
0.2981231 -0.14861205 -0.9428876 
-0.41864142 0.0028195041 -0.90814734 
0.04421209 0.1949975 -0.97980684 
0.36943 -0.6596189 -0.6545413 
0.50840825 -0.36865637 -0.7782118 
0.7258273 0.026143001 -0.68737996 
0.73272693 -0.23206043 -0.6397337 
0.7857602 -0.31969222 -0.5295072 
0.27383637 -0.47912192 -0.83393997 
-0.49235222 -0.064442486 -0.86800724 
-0.44906098 0.65288025 -0.6099933 
-0.56377906 0.16558711 -0.8091564 
0.084325284 -0.03365146 -0.9958699 
0.2592941 -0.6252778 -0.73606676 
0.35824504 -0.50135976 -0.78759056 
-0.14946955 -0.09494132 -0.9841977 
-0.6017113 0.044513453 -0.7974724 
-0.35450703 -0.5232045 -0.7749722 
-0.42722806 -0.3405681 -0.83754975 
0.023439866 0.146284 -0.9889649 
-0.031820305 0.18869953 -0.9815193 
-0.06407953 -0.31068543 -0.94835037 
-0.2181144 -0.060575474 -0.9740414 
-0.5869634 -0.2507084 -0.76981765 
-0.2751142 -0.95481366 -0.11244185 
-0.23107575 -0.27814218 -0.932331 
-0.6201649 -0.44048202 -0.6491311 
0.12774067 -0.27963483 -0.95157075 
0.6390799 0.08137936 -0.7648231 
-0.0078043416 0.07099563 -0.9974462 
-0.5125818 -0.3634444 -0.7779255 
-0.52292424 -0.36674753 -0.7694457 
-0.035981894 -0.8550108 -0.5173606 
-0.23567446 -0.31905493 -0.91796607 
0.39863098 0.0555082 -0.91543007 
0.64579606 -0.03810676 -0.7625584 
0.101422906 -0.3207088 -0.94173205 
0.059785333 -0.6283643 -0.7756185 
0.7505561 -0.6312073 -0.1955582 
0.13979793 -0.9690511 0.20346154 
-0.16123666 -0.975256 -0.15125619 
-0.5610914 -0.6188936 -0.5496792 
0.15119205 0.13758436 -0.9788828 
-0.22523299 -0.0254714 -0.9739719 
-0.11732712 0.084067896 -0.9895287 
-0.40887517 0.04605702 -0.91142744 
-0.6527721 0.108754426 -0.74970734 
-0.79046875 0.1523068 -0.5932636 
-0.11378308 -0.07903477 -0.99035704 
-0.09390985 -0.2748939 -0.9568774 
0.45536768 -0.47865286 -0.75068754 
-0.22702116 -0.37418407 -0.89913726 
0.32285243 -0.20614175 -0.9237272 
0.22841838 -0.5993722 -0.7671885 
0.7617425 -0.18549436 -0.62075794 
0.9534452 -0.24267235 0.17903216 
0.8503658 -0.06312693 -0.52239174 
0.49512786 -0.8262036 -0.2687677 
-0.0037477138 -0.97450274 -0.22434457 
0.014007508 -0.9731834 -0.2296036 
0.3169776 -0.85567015 -0.4090892 
0.5836935 -0.5301605 -0.6150055 
0.3798403 -0.17384681 -0.90856963 
-0.11340647 0.42160487 -0.8996601 
-0.33138603 0.09614611 -0.9385836 
-0.66182244 0.05630849 -0.747543 
-0.16436711 -0.7466435 -0.6445984 
0.3686355 -0.7294173 -0.57624495 
-0.20505303 -0.8799976 -0.42843622 
-0.5255312 -0.50042295 -0.6880363 
-0.9360227 -0.22544184 -0.2702545 
-0.48794904 -0.5529807 -0.67536515 
0.58651835 -0.47178042 -0.65834606 
-0.11593317 -0.31441313 -0.94218045 
-0.50124973 -0.628428 -0.5948337 
-0.04136872 -0.35932076 -0.9322968 
-0.6353028 -0.7391729 -0.2236378 
-0.1893216 -0.73219 -0.65425926 
0.1634718 -0.43132725 -0.887262 
0.21161167 -0.765467 -0.60768485 
-0.041438 -0.447392 -0.8933776 
-0.17672783 -0.44648924 -0.8771628 
0.3546689 -0.23133579 -0.9059215 
0.16195883 -0.029709859 -0.98635024 
-0.12416771 0.16931437 -0.9777092 
-0.4433489 0.84737235 -0.2922359 
-0.50228477 0.4561577 -0.73459524 
-0.49344555 0.24516489 -0.8345093 
0.07157308 -0.35021764 -0.93392986 
-0.22135209 0.30870408 -0.92504334 
-0.6089354 -0.27813604 -0.74285805 
-0.23007424 -0.5903618 -0.773653 
-0.45670912 -0.83792555 -0.298827 
0.217136 -0.2297766 -0.94871217 
-0.30716974 -0.32654908 -0.893875 
-0.5210388 -0.4839854 -0.7030482 
-0.066897415 0.061589383 -0.99585724 
-0.35863128 -0.23817709 -0.90258265 
0.23814127 0.13882953 -0.96125704 
-0.07697429 -0.024255425 -0.9967381 
0.4248555 -0.41922227 -0.8023408 
0.15169364 -0.31294546 -0.9375789 
-0.69360656 -0.4446 -0.56678116 
-0.79784054 -0.15130563 -0.5835728 
0.4340548 -0.4943224 -0.75315475 
0.63763267 -0.43251112 -0.6374628 
0.22315034 -0.7378836 -0.63697076 
-0.24371536 -0.45393956 -0.8570542 
-0.4122465 -0.61527354 -0.6719311 
0.013348344 -0.21128343 -0.9773337 
-0.5741128 -0.40363804 -0.71237 
-0.1589083 0.23280865 -0.95945215 
-0.23903944 -0.92303693 -0.3014352 
0.06477963 -0.7163828 -0.6946937 
-0.13265489 -0.6042044 -0.78570974 
-0.3275796 -0.7259381 -0.6047359 
-0.0052852537 -0.8840129 -0.46743265 
-0.6058936 -0.40799674 -0.68295795 
-0.713484 0.043276105 -0.6993339 
-0.39133096 -0.12888806 -0.9111795 
-0.14493446 -0.3715386 -0.917035 
0.307362 -0.32231462 -0.8953447 
0.6418617 -0.76675713 -0.009860461 
0.9222563 -0.0964015 -0.37436634 
0.72648436 0.18663196 -0.661354 
-0.19133419 0.04626295 -0.9804341 
0.18758385 -0.10040832 -0.9771031 
0.55058515 0.11359431 -0.8270141 
-0.0927759 -0.87832576 -0.4689739 
-0.10142568 -0.6864333 -0.7200849 
0.26347625 -0.92672807 -0.26787218 
0.108161435 -0.8846679 -0.45350197 
-0.14895901 -0.50950915 -0.84747374 
0.035178725 0.13309468 -0.9904789 
0.24125563 0.31042096 -0.91947514 
0.14012133 -0.74277854 -0.65471077 
-0.33474752 -0.041164316 -0.9414084 
0.3914815 0.51908606 -0.7597973 
-0.30117884 -0.03783964 -0.95281667 
-0.15163016 0.040083904 -0.9876242 
-0.26794514 -0.32889974 -0.90555525 
0.10807888 -0.76546013 -0.634342 
-0.15229616 0.3857918 -0.9099289 
-0.7370827 -0.3635752 -0.5696685 
0.0124589605 -0.8423296 -0.5388189 
0.052277613 -0.45976776 -0.8864991 
-0.18838501 -0.7062973 -0.6823894 
-0.4188428 -0.4735169 -0.77482414 
-0.58438957 -0.01206687 -0.81138355 
-0.34696788 -0.5867426 -0.7316737 
-0.041040238 -0.6933071 -0.7194727 
0.22307181 -0.7121635 -0.66562915 
0.34637123 -0.6641701 -0.6624992 
0.010521957 -0.47171757 -0.88168705 
0.5541056 -0.09628708 -0.826859 
0.50524706 0.25625023 -0.8240518 
0.06268303 -0.051881343 -0.99668413 
-0.015572841 -0.35424733 -0.9350222 
-0.5893614 0.09481368 -0.8022865 
0.4460361 0.33565527 -0.8296911 
0.29160714 -0.18116261 -0.93922603 
0.041185614 -0.010599958 -0.99909526 
-0.2594212 -0.11134995 -0.95932364 
-0.45071957 -0.22404532 -0.8640924 
-0.14503081 -0.4220165 -0.8949125 
-0.59975034 -0.1299391 -0.7895666 
-0.22249012 -0.17419426 -0.9592469 
0.24389184 -0.32866132 -0.91241366 
0.34990937 -0.21857384 -0.91092753 
-0.13667421 -0.38992068 -0.9106493 
-0.53664726 -0.2876507 -0.7932634 
-0.14889228 -0.59213424 -0.7919647 
-0.18800455 0.16359927 -0.96844697 
0.49922317 0.09230743 -0.8615425 
0.6063909 -0.45509145 -0.65205973 
-0.14091602 -0.0143445125 -0.98991764 
-0.36924237 -0.079696424 -0.92590964 
-0.10101013 -0.38306814 -0.91818076 
-0.14008385 -0.0747366 -0.9873151 
0.16804434 -0.20399942 -0.96444046 
0.6180743 -0.29637504 -0.72811127 
0.05496151 -0.89358324 -0.4455201 
0.014653841 -0.8472635 -0.5309706 
0.42448708 -0.8970699 -0.12278611 
0.028010491 -0.96997124 -0.2416014 
0.6390555 -0.50526357 -0.5799284 
0.28521332 -0.68552047 -0.669862 
-0.3891956 -0.88304234 -0.26222724 
-0.6930676 -0.3732072 -0.61674446 
-0.20110127 -0.5165475 -0.83230823 
0.39222774 0.31236055 -0.86521006 
0.27383494 -0.6030753 -0.74920934 
-0.38381755 0.056440238 -0.9216825 
0.1263816 -0.06401472 -0.98991406 
0.20500976 -0.63213795 -0.7472434 
-0.5676692 -0.6344461 -0.52462363 
0.21100035 -0.7369436 -0.64217836 
-0.40701443 -0.23561323 -0.88251114 
0.13585503 -0.54371965 -0.8281983 
0.47376588 -0.42532235 -0.7711335 
0.38925654 -0.64052725 -0.66197 
0.5349267 -0.7239694 -0.4355707 
0.13027622 -0.88816136 -0.4406784 
-0.26086944 -0.4501107 -0.8540185 
0.34719798 -0.315649 -0.88307387 
0.41966188 -0.61183256 -0.6704811 
0.3390314 0.2085446 -0.91736954 
0.05383857 0.104291946 -0.9930884 
0.7614054 0.3360148 -0.554397 
0.35920984 0.22664346 -0.90531826 
0.1983195 -0.08967764 -0.97602636 
-0.041866783 0.069041744 -0.996735 
0.16107142 -0.72348523 -0.67128617 
-0.325546 -0.24514234 -0.9131951 
-0.16355816 -0.90885353 -0.3837109 
-0.51739776 -0.15792784 -0.84104604 
-0.29468393 0.27729312 -0.91447794 
-0.082510054 -0.37404993 -0.9237309 
0.118882194 -0.6105757 -0.7829843 
-0.21253322 -0.6196294 -0.755572 
-0.38179094 -0.0022314473 -0.9242461 
0.29465425 0.04736159 -0.9544296 
0.027399201 -0.27245054 -0.9617796 
-0.005545377 -0.50964224 -0.8603685 
0.5974661 0.6320521 -0.4935023 
-0.6802974 0.066007495 -0.7299579 
-0.094743825 -0.25787765 -0.96152115 
0.37283096 -0.030416382 -0.9274007 
0.15555498 0.31238282 -0.9371338 
0.3338443 -0.5599248 -0.7583088 
-0.26236704 0.056261376 -0.96332663 
-0.16790792 -0.16408606 -0.97205085 
-0.218254 -0.3371256 -0.915812 
-0.2626684 -0.24231659 -0.9339636 
-0.15865204 0.19856198 -0.9671622 
-0.1245404 -0.16598427 -0.9782326 
-0.5129603 0.17479596 -0.8404274 
-0.8121855 -0.055493873 -0.5807539 
-0.19943239 -0.07403521 -0.97711086 
-0.3895475 -0.24544765 -0.88769835 
-0.2955895 0.030023605 -0.95484316 
-0.20463513 0.76565886 -0.60982865 
0.061583504 -0.055512242 -0.996557 
-0.524013 -0.20396885 -0.8269263 
-0.14828439 -0.0889873 -0.984933 
-0.2339135 0.20627841 -0.95012295 
0.25665787 -0.78490275 -0.5639631 
-0.68265563 -0.4151297 -0.6013723 
-0.5557857 -0.31274918 -0.7702534 
0.02253342 -0.7306513 -0.68237895 
0.5079869 0.22531544 -0.8313739 
0.055089246 0.18101099 -0.981937 
0.5271286 0.16765435 -0.83308315 
0.41942576 0.44748142 -0.7898369 
0.04848798 -0.3288098 -0.94315064 
-0.2643054 0.16823827 -0.94965184 
0.1277919 0.22791797 -0.9652578 
0.22603604 -0.47714904 -0.8492564 
0.114377484 -0.13431284 -0.984316 
0.35347086 0.12726381 -0.9267483 
0.35950792 0.15250866 -0.92059505 
0.70152617 -0.45635134 -0.5473614 
0.7847989 -0.055614483 -0.6172502 
-0.02959394 0.19896765 -0.9795592 
0.33096406 -0.15209848 -0.931305 
-0.28257224 -0.6882748 -0.6681547 
-0.051132213 -0.35708392 -0.9326718 
-0.32306957 -0.31027493 -0.8940669 
0.26573125 -0.29964676 -0.91629624 
-0.07509193 -0.17574589 -0.98156744 
-0.022348225 -0.75000674 -0.6610526 
-0.50465274 -0.22270733 -0.8341027 
-0.69517374 0.18102401 -0.69567513 
-0.6456604 0.40932894 -0.64464915 
0.111956865 0.0022360159 -0.99371064 
-0.14590046 0.18963307 -0.97095436 
-0.4168933 -0.11508093 -0.901641 
-0.045005117 -0.09997721 -0.9939714 
-0.35244012 -0.2354059 -0.9057429 
0.12178038 -0.4140403 -0.9020755 
-0.2913651 -0.31730914 -0.902453 
-0.4267327 -0.5296628 -0.7330462 
-0.68948174 -0.37616855 -0.6189606 
-0.7564104 -0.08708219 -0.6482747 
-0.6034895 -0.452832 -0.6563107 
0.19065098 -0.50031495 -0.8445929 
-0.19521558 -0.47306252 -0.8591291 
-0.18542328 -0.5241649 -0.8311856 
-0.31354594 -0.5299945 -0.78790534 
-0.38073665 -0.18877435 -0.90520924 
-0.16789636 -0.8666583 -0.46980238 
0.16534524 -0.2755592 -0.9469573 
0.073088765 -0.53997016 -0.8385048 
-0.04744571 -0.3716452 -0.92716175 
0.36973533 -0.5447989 -0.7526553 
-0.16500016 -0.74721503 -0.6437738 
-0.5154095 -0.29123914 -0.805936 
0.18384723 0.24783228 -0.95119894 
0.46837825 -0.13414353 -0.87328535 
0.18891504 0.08067044 -0.97867435 
-0.0921734 0.5004783 -0.86082846 
-0.17238714 0.113507845 -0.9784676 
-0.46541524 0.2670821 -0.843834 
-0.35905752 -0.6779629 -0.641439 
-0.5140521 0.3349504 -0.78965735 
-0.079001844 0.02073378 -0.99665886 
0.36087766 0.0041831317 -0.9326038 
0.17088418 0.0976741 -0.9804379 
-0.5274566 -0.6180498 -0.58292717 
-0.2300504 0.26823375 -0.93548256 
0.57885146 -0.14969176 -0.80157554 
0.80533373 -0.041819118 -0.59134495 
0.5765328 0.17960101 -0.79709065 
0.4375086 -0.12338303 -0.8907093 
0.5761787 -0.6594068 -0.48290867 
0.6028385 -0.77386147 0.19422731 
-0.18855162 -0.41690588 -0.88917816 
-0.13593242 0.03748402 -0.99000883 
0.48935482 0.107385986 -0.865448 
-0.22455053 -0.05098911 -0.97312754 
-0.620368 0.34061936 -0.7064857 
-0.10236825 -0.37690005 -0.9205798 
0.14998558 -0.37946114 -0.9129697 
-0.14916955 -0.7081358 -0.69013935 
-0.24228083 -0.46430206 -0.8518941 
-0.8558302 -0.11828212 -0.50355136 
-0.604575 -0.17832255 -0.77633125 
-0.23334932 0.20599367 -0.95032346 
-0.19209212 0.19015767 -0.9627776 
-0.3150588 -0.34359023 -0.88469416 
-0.28121176 -0.68343174 -0.67367727 
0.25481874 -0.090508 -0.9627439 
-0.095734015 -0.092045076 -0.99114215 
-0.87549853 -0.3675025 -0.31375828 
-0.6138048 -0.113293886 -0.78128624 
-0.16532116 -0.04044916 -0.98541 
-0.36862594 -0.7956041 -0.48075885 
-0.08248672 -0.8297841 -0.551955 
0.09307937 -0.48126495 -0.87161934 
-0.4001109 -0.3150833 -0.86060095 
-0.3859994 -0.4880785 -0.78280526 
-0.30198857 0.46227905 -0.8337273 
-0.06185934 0.5208446 -0.85140735 
0.42899802 0.41937768 -0.800052 
0.29101992 -0.027531626 -0.9563208 
-0.17684335 0.65714383 -0.73272675 
-0.11732172 0.04196415 -0.992207 
-0.69882864 -0.5588743 -0.4464283 
-0.09490091 -0.6920616 -0.71557295 
-0.26259142 -0.6133511 -0.74487996 
-0.49695244 -0.8153259 -0.2971229 
-0.26126143 -0.44174826 -0.85825455 
-0.04844164 -0.66374886 -0.7463853 
-0.6868274 -0.45134366 -0.5696991 
-0.7832377 -0.047471225 -0.6199075 
-0.24296841 -0.055031024 -0.968472 
-0.36346307 -0.6786829 -0.6381882 
0.17119339 0.17827722 -0.96897376 
-0.39453351 -0.54734117 -0.73807925 
-0.413061 -0.73925143 -0.53187215 
0.006041395 0.28648636 -0.9580653 
0.072639525 -0.9415949 -0.32881993 
-0.6533895 -0.40928513 -0.6368422 
-0.8217172 0.099215634 -0.56119263 
-0.73179775 -0.6638716 -0.15409939 
-0.26797497 -0.8458011 -0.4613132 
-0.40333438 0.07084986 -0.9123058 
-0.6966614 0.33396664 -0.63492453 
-0.7383474 0.092718154 -0.6680168 
-0.7433287 -0.3568289 -0.5658054 
-0.18166903 -0.17575774 -0.96752554 
-0.1860894 -0.39969125 -0.89756215 
-0.49332443 -0.55092406 -0.6731372 
-0.5692628 0.011187711 -0.8220795 
-0.48918882 -0.49703264 -0.7166958 
0.14827712 -0.13350558 -0.97989297 
0.23884693 -0.17384662 -0.9553688 
0.31861144 -0.8160349 -0.48225912 
-0.060350016 -0.9428559 -0.32769 
0.71921206 -0.5290975 -0.4503219 
0.44926947 0.38481572 -0.8062716 
-0.008204422 0.49985537 -0.86607015 
0.84695804 -0.19076383 -0.4962573 
0.38420102 0.3575909 -0.8511865 
0.34518388 -0.84169006 -0.41521806 
0.60850346 -0.77012616 -0.19138774 
-0.23081934 -0.7145114 -0.6604514 
0.16948651 -0.42120567 -0.8909884 
0.19714735 0.67148036 -0.7143158 
0.1125758 0.22188306 -0.9685528 
0.29375464 -0.07957272 -0.95256317 
-0.07897794 -0.047827125 -0.9957284 
-0.49854386 -0.19952863 -0.843589 
-0.05100666 0.05754207 -0.9970393 
-0.2755729 0.02498389 -0.96095544 
0.2503319 -0.48172495 -0.83980656 
-0.072053626 -0.30589828 -0.9493337 
-0.2366761 -0.069970265 -0.96906585 
-0.014035016 0.1633166 -0.986474 
-0.36795187 0.5405031 -0.75661606 
-0.50629663 -0.5535806 -0.6612204 
-0.25246516 -0.3724567 -0.8930495 
-0.3354004 0.3393218 -0.8788444 
-0.6659664 -0.22655663 -0.71074677 
-0.14457741 0.08540312 -0.98580104 
-0.1407722 -0.096504465 -0.9853275 
0.07200317 -0.16085358 -0.9843484 
0.053678364 -0.4078824 -0.91145533 
-0.40043235 -0.8851236 -0.23708671 
-0.08464471 0.34371352 -0.935252 
0.42880663 0.6002869 -0.6751153 
0.73591727 0.51864904 -0.43523437 
0.87678844 -0.47844008 -0.048345182 
0.3136935 -0.619062 -0.7199713 
0.0860215 -0.6589417 -0.7472592 
0.39243734 -0.41257316 -0.8220563 
0.53418976 -0.23042086 -0.8133557 
0.022357007 -0.39884788 -0.91674453 
-0.017582202 0.27798223 -0.9604253 
0.36894286 -0.44763017 -0.8145603 
-0.16614309 -0.51190466 -0.84282273 
0.38616446 -0.5380498 -0.7492527 
-0.7206334 -0.29153284 -0.6290438 
-0.02365575 -0.55983984 -0.8282632 
-0.18441238 0.11038981 -0.9766301 
0.29487687 -0.5724423 -0.7650866 
0.036687866 -0.55353844 -0.8320152 
0.09006853 -0.97456855 -0.2051922 
-0.38615665 0.09138632 -0.91789526 
0.043047972 -0.44812652 -0.89293313 
0.13203293 -0.48921853 -0.86210936 
-0.54183143 0.021151537 -0.84022105 
0.06630578 0.14841278 -0.98670024 
-0.27193877 0.10277531 -0.95681065 
-0.11342905 -0.46161276 -0.8797997 
0.21486457 -0.4428644 -0.87046224 
-0.28254506 -0.51664275 -0.808238 
-0.37676582 -0.919641 -0.11094139 
0.64768696 -0.6771364 -0.34926778 
0.6922054 -0.53693926 -0.4822322 
-0.22742018 -0.36346078 -0.90342474 
-0.4505158 -0.36059108 -0.81670654 
-0.546697 -0.25596187 -0.7972489 
-0.38246092 -0.6908634 -0.6135401 
-0.14168136 -0.5222563 -0.84093684 
0.21603324 0.15172654 -0.9645252 
0.7869266 -0.0051190704 -0.61702543 
0.42077965 -0.7322308 -0.53552085 
0.07431294 0.027215835 -0.9968636 
0.34496066 -0.018965485 -0.93842554 
0.101306364 -0.10411373 -0.98939246 
-0.15742803 -0.42355523 -0.892086 
0.3606598 -0.3440744 -0.8669126 
0.2377005 -0.33189473 -0.91287696 
0.6931219 0.17904012 -0.69823116 
0.44175655 -0.3446924 -0.82827425 
0.42151493 -0.3640502 -0.83053756 
0.5690783 0.24023427 -0.7864079 
0.25658777 -0.6832435 -0.6836235 
0.2776546 -0.67153907 -0.6869813 
0.5056817 -0.34631857 -0.7901579 
0.23229028 -0.5153511 -0.8248967 
-0.18463421 -0.2154689 -0.958897 
0.026387399 -0.11697726 -0.99278396 
-0.2020314 0.35428098 -0.9130544 
-0.24140142 0.14284489 -0.9598545 
0.4450878 -0.42899373 -0.78604156 
-0.0003590131 0.15744604 -0.98752755 
0.3693729 0.18489811 -0.91070104 
-0.118553594 -0.050834928 -0.9916456 
0.6817879 -0.25330102 -0.6862972 
-0.22357723 -0.23538397 -0.945837 
0.21073334 -0.13880777 -0.9676384 
0.11263694 -0.19840625 -0.97362614 
0.83189815 -0.55092436 -0.06654293 
0.42642236 -0.5194722 -0.74048144 
-0.24536091 0.17278694 -0.9539092 
-0.26084453 0.2625481 -0.9289934 
0.25365642 0.573204 -0.7791635 
-0.5207455 0.09097987 -0.84885037 
-0.4963652 0.22094919 -0.83952546 
-0.07932421 0.18617322 -0.9793096 