# OOMMF: rectangular mesh v1.0
# Segment count: 1
# Begin: Segment
# Begin: Header
# Desc: Time (s) :  8.620000000000023e-07
# Title: m
# meshtype: rectangular
# meshunit: m
# xbase: 2e-09
# ybase: 2e-09
# zbase: 5e-10
# xstepsize: 4e-09
# ystepsize: 4e-09
# zstepsize: 1e-09
# xmin: 0
# ymin: 0
# zmin: 0
# xmax: 1.024e-06
# ymax: 1.024e-06
# zmax: 1e-09
# xnodes: 256
# ynodes: 256
# znodes: 1
# ValueRangeMinMag: 1e-08
# ValueRangeMaxMag: 1
# valueunit: 
# valuemultiplier: 1
# End: Header
# Begin: Data Text
-0.9052869 -0.32865852 -0.26914525 
-0.7063136 -0.42059797 -0.569402 
-0.44507214 0.14022811 -0.8844472 
-0.20291318 -0.3239154 -0.9240698 
-0.28855774 -0.25812954 -0.92201066 
0.085308984 0.00974832 -0.9963069 
0.0011587723 -0.37519878 -0.92694366 
0.18143274 -0.9833663 0.008534979 
0.5271481 -0.1990447 -0.82613325 
0.564347 -0.17939067 -0.80581105 
0.16688444 0.10173091 -0.98071426 
0.4306403 -0.1112717 -0.8956381 
-0.025562074 -0.4926069 -0.8698765 
0.48037794 -0.27912316 -0.83146095 
0.13584267 0.5044555 -0.8526849 
0.09913562 -0.16078393 -0.9819984 
0.026825864 -0.47959542 -0.8770796 
0.7098223 0.13231768 -0.69184136 
0.50031066 -0.1599979 -0.85093486 
0.47731403 -0.29656655 -0.8271757 
0.34393758 -0.8820621 -0.32198372 
0.39084563 -0.6954174 -0.603021 
-0.06860687 -0.7382933 -0.6709816 
-0.2145431 -0.8957466 -0.3893704 
0.13123767 -0.5640908 -0.8152168 
0.19721751 -0.55245245 -0.8098775 
-0.4983833 -0.39744124 -0.7704899 
-0.86808985 -0.2608098 -0.42237228 
-0.97238857 -0.15990011 -0.16997784 
-0.87167543 -0.026801992 -0.48935023 
-0.70613295 -0.14011024 -0.69407886 
0.07247317 0.34240118 -0.9367545 
-0.013161569 -0.66909224 -0.7430629 
-0.25903434 -0.92047334 -0.29262605 
0.1340473 -0.91898394 -0.37080988 
-0.48988453 -0.8523787 -0.18293071 
0.4465559 -0.46006513 -0.7674165 
0.13020785 -0.73226476 -0.6684567 
0.16059053 -0.9790306 0.12533838 
0.21883601 -0.9500815 -0.22238697 
-0.3326127 -0.9251859 0.18275638 
-0.65609014 -0.66876596 -0.3497113 
-0.5418673 -0.79868394 -0.26169407 
-0.28097403 -0.41217414 -0.8666983 
-0.15981138 -0.5487681 -0.82055706 
0.30947205 -0.8065562 -0.5036805 
-0.29240388 -0.9208981 0.25777286 
0.42903262 -0.9011609 -0.06196923 
-0.05183977 -0.98363835 0.17253488 
-0.62866145 -0.43177655 -0.6468028 
-0.37631193 -0.4651192 -0.80128235 
0.13291857 0.17130122 -0.9762114 
0.53777343 -0.18100768 -0.82342947 
0.23359104 -0.20938163 -0.9495233 
0.4409402 -0.8973188 0.019766198 
0.20097111 -0.8885198 -0.41248414 
0.2137826 -0.8288658 -0.51699 
0.19072747 -0.8973905 0.39788637 
-0.61179805 -0.5120978 0.6028756 
-0.471035 -0.8459563 -0.2499679 
0.42971334 -0.743537 -0.51234674 
0.53315675 -0.5864078 -0.6098114 
0.31905273 -0.8221478 -0.47146422 
0.42832068 0.23941162 -0.8713344 
0.3365643 0.05595105 -0.9399968 
-0.24469797 0.21291351 -0.9459339 
0.367684 -0.2827189 -0.8859337 
0.5692348 -0.2330565 -0.7884519 
0.75887054 -0.15229659 -0.63318336 
0.56065166 -0.20893429 -0.80125916 
0.16092654 -0.4126946 -0.8965411 
0.075594425 -0.5662782 -0.8207402 
-0.15335827 -0.91373384 -0.3762603 
-0.1735112 -0.17266674 -0.9695773 
-0.38868037 -0.22366998 -0.8938117 
-0.1345246 -0.5821987 -0.8018404 
-0.36871204 -0.7199909 -0.5879324 
0.2333096 -0.6822992 -0.69284517 
-0.058337316 -0.7947217 -0.604164 
0.41378874 -0.5226463 -0.7453991 
0.6319104 0.16036424 -0.75826955 
0.50184023 0.12613484 -0.85571396 
0.45308086 0.5558779 -0.6969344 
-0.176294 -0.82064754 -0.5435607 
0.06275176 -0.41281945 -0.9086486 
0.5692218 -0.23062292 -0.78917664 
0.53139174 -0.4276538 -0.7312559 
0.22585793 -0.5708926 -0.78934777 
0.27849722 -0.2370978 -0.9307115 
-0.23437524 -0.7060097 -0.6682953 
-0.9341558 0.3541163 -0.04421112 
-0.8592773 -0.48172954 -0.17198607 
-0.8217267 -0.058695655 -0.5668512 
-0.9255587 -0.2677503 -0.26767716 
-0.99067366 -0.09390664 -0.09872818 
0.1019204 -0.5307397 -0.8413843 
-0.58050406 -0.4632694 -0.66962415 
-0.3823173 0.028722662 -0.9235847 
0.54744756 0.7345982 -0.40083238 
-0.12425034 0.9041546 -0.40873748 
0.34132123 -0.3736625 -0.86248255 
0.96161115 -0.20374976 -0.18382116 
0.5684228 -0.54611605 -0.6153478 
-0.33101833 -0.65523386 -0.6790402 
-0.10039561 0.3479254 -0.93213123 
-0.31270885 0.12082189 -0.94213337 
0.3094217 -0.6011017 -0.7368412 
0.27154502 -0.5546024 -0.78656185 
-0.041046783 -0.89520466 -0.44376084 
-0.35858205 -0.5655226 -0.7427 
0.5644521 -0.5787703 -0.5885735 
0.38984722 -0.88213766 -0.26429585 
0.038665723 -0.99488044 -0.093369275 
-0.6204603 -0.658745 -0.42553985 
-0.42505518 -0.01643292 -0.9050184 
-0.3405868 -0.71552575 -0.6099373 
-0.23386155 -0.3527737 -0.9060131 
-0.41458338 -0.6387432 -0.6481727 
-0.7926286 0.046089787 -0.60796034 
-0.6061283 0.23268183 -0.7605707 
-0.17376687 0.49069244 -0.8538302 
0.49975628 0.46245357 -0.73238 
-0.13838415 0.1220588 -0.9828283 
0.023005309 0.005806719 -0.9997185 
-0.122488864 -0.41599807 -0.90107834 
-0.2988272 -0.51757413 -0.80176014 
-0.5893921 0.33293074 -0.7360531 
0.8219381 0.4605325 -0.3351532 
0.4849869 -0.09027702 -0.8698493 
0.17942597 -0.09249308 -0.97941387 
-0.0687327 -0.1958025 -0.97823167 
0.54636294 -0.10107427 -0.83142745 
0.682263 -0.04127625 -0.7299408 
0.9715058 -0.15221716 -0.18167688 
-0.09221448 -0.82056195 0.5640697 
-0.25156212 -0.96783376 -0.0037992531 
-0.29486465 -0.8667652 -0.4022101 
-0.5788414 -0.39619923 -0.7127194 
-0.14824827 -0.30213216 -0.94166803 
-0.52292246 -0.11795839 -0.84417886 
0.05535728 -0.34767103 -0.93598104 
0.65169305 -0.1148531 -0.7497366 
0.50155133 -0.29130653 -0.81460834 
0.919835 -0.34273934 -0.19087541 
0.39532232 -0.76838946 -0.5032872 
0.34027714 -0.71592784 -0.6096384 
0.5297089 -0.83785206 -0.13195656 
0.19956125 -0.87242496 0.44615024 
0.43746224 -0.78189015 0.444156 
0.033483177 -0.9974132 0.063606456 
-0.15679094 -0.9872639 0.026956607 
-0.9748069 -0.18437529 -0.12552795 
-0.6005831 -0.7803271 -0.17432633 
-0.6544721 -0.58449715 -0.47961387 
-0.51068354 -0.84183055 0.17471 
0.65930784 -0.74256235 -0.11795899 
-0.3483618 -0.57856244 -0.73750234 
0.2717437 -0.8548184 0.44208708 
-0.24621059 -0.8168772 0.52162445 
0.10330092 -0.9422261 -0.31865183 
-0.60936666 -0.7926546 0.019265283 
-0.75936323 -0.6192635 -0.1997002 
0.13126111 -0.30067888 -0.9446495 
-0.13978273 0.49937367 -0.8550361 
-0.57300144 -0.55896604 -0.599355 
0.14902724 -0.78447455 -0.6019888 
-0.6306494 -0.46934858 -0.6180561 
-0.2113738 -0.38751483 -0.89730346 
0.4828711 -0.21290714 -0.84941524 
-0.0038924317 -0.68051165 -0.732727 
0.68968153 0.044270363 -0.7227583 
0.6585067 0.5430858 -0.52098644 
0.28615406 -0.5321992 -0.7967935 
0.462994 -0.7275026 -0.5063364 
0.47746694 -0.6227946 -0.6198001 
-0.48655635 -0.24957688 -0.8372421 
-0.6491361 -0.44348595 -0.618015 
-0.19084275 -0.3369912 -0.92196316 
0.08246056 0.11288436 -0.99018055 
-0.15983914 -0.6799284 -0.7156458 
0.35483465 -0.4566165 -0.81583935 
0.60976446 -0.19275852 -0.7687858 
0.5761574 -0.3741854 -0.7266554 
-0.3154481 -0.16183637 -0.935041 
0.23543453 0.08903605 -0.96780324 
0.34175298 0.46079525 -0.81906813 
0.5381114 -0.023884777 -0.84253526 
0.4871964 0.007533014 -0.8732599 
0.163816 -0.14556193 -0.97569263 
-0.050535608 -0.87127113 -0.48819357 
0.1091265 0.59087676 -0.79934734 
0.012916931 -0.09198002 -0.9956771 
0.24248227 -0.029729411 -0.9697003 
0.32765374 -0.6487664 -0.6868372 
-0.45034507 -0.75406545 -0.47809476 
-0.2822531 -0.92337054 -0.26023084 
-0.23645873 -0.8322084 -0.5015142 
-0.22575246 -0.80219924 -0.5527316 
-0.45270932 -0.70558465 0.54516476 
-0.082144625 -0.99225086 0.093224004 
0.06495778 -0.47113895 -0.8796639 
-0.6694806 -0.4197289 -0.6128813 
0.1392887 -0.24229793 -0.9601513 
-0.6737111 -0.28332543 -0.6825248 
-0.35151318 -0.19978365 -0.9146174 
0.3000955 -0.40572822 -0.86332345 
0.68440735 -0.4815796 -0.54741913 
0.20236908 -0.5652766 -0.7996931 
0.079977006 0.5036901 -0.8601744 
0.38859814 -0.5480977 -0.7406622 
-0.35604092 -0.52965534 -0.7698703 
-0.52614343 -0.28313324 -0.8018782 
-0.44938135 0.16084965 -0.8787399 
-0.48400736 -0.23155169 -0.8438724 
-0.0911633 -0.6537056 -0.7512378 
0.28915152 -0.6383568 -0.7133667 
0.12845002 -0.83617663 -0.5332065 
-0.7318403 -0.50040776 -0.4626033 
-0.86630756 -0.34298185 -0.3631455 
-0.113780245 -0.82631993 -0.55158824 
-0.41547394 -0.9075397 0.061262477 
-0.35454133 -0.9311751 -0.08493164 
-0.7309459 -0.29066205 -0.61744124 
-0.20812295 -0.7062062 -0.67672575 
-0.4618545 0.39512172 -0.79408395 
0.15542223 0.11892786 -0.9806631 
-0.20254938 0.27061626 -0.9411379 
-0.037554458 0.14513946 -0.9886983 
-0.08624165 -0.021583878 -0.99604046 
-0.13770175 0.20738651 -0.9685191 
-0.3799555 -0.68558425 -0.62097347 
-0.016643206 -0.023434011 -0.99958694 
-0.6044692 0.36483237 -0.7081768 
-0.119742826 0.032285593 -0.99227995 
-0.10876557 -0.2894994 -0.9509785 
-0.65679103 -0.06182092 -0.7515343 
-0.26923713 -0.13392137 -0.95371723 
0.2285727 -0.7943246 -0.56285274 
0.57062924 0.25467202 -0.7807205 
-0.06798396 -0.012388099 -0.9976095 
-0.51452845 0.03507216 -0.85675585 
-0.11577971 -0.88992333 -0.44117078 
-0.30445373 -0.6235792 -0.7200396 
-0.24014118 -0.3229718 -0.9154351 
-0.8010553 -0.44546136 -0.3998432 
-0.73521835 -0.07853436 -0.67326546 
-0.48600367 -0.25099638 -0.8371388 
0.47153944 0.064330906 -0.87949544 
0.60778713 0.3851223 -0.6944607 
0.07446669 -0.26117456 -0.962415 
-0.38917592 -0.35391366 -0.8504629 
-0.22245815 -0.95110726 0.21426003 
0.14324856 -0.9838798 -0.10705366 
-0.5974052 -0.10992045 0.79437065 
-0.460586 -0.19502783 -0.8659242 
-0.33643827 -0.5565037 -0.7596795 
-0.2179347 -0.97596204 0.0016357803 
-0.5597898 0.39697695 -0.72735465 
-0.6165361 -0.61801416 -0.48779288 
-0.538035 -0.2624786 -0.80101395 
-0.05371712 -0.5699219 -0.8199413 
-0.3789198 -0.23267496 -0.8957021 
-0.5708817 -0.4795609 -0.6664199 
-0.55514365 -0.39923185 -0.7296777 
-0.17637184 -0.3858744 -0.90553516 
0.32545242 -0.39208865 -0.8604344 
0.3334847 -0.32068172 -0.8865389 
0.029872218 -0.14734685 -0.9886337 
0.7259195 -0.09980428 -0.68049985 
0.6058602 -0.41233593 -0.6803768 
0.44066256 0.011822923 -0.8975949 
0.8160825 0.22077398 -0.53410506 
0.3651538 -0.29250345 -0.8838012 
0.41668022 0.2841193 -0.8635125 
0.5644441 -0.04940668 -0.82399136 
0.49897182 0.013451789 -0.86651385 
-0.13674931 -0.82414895 -0.54961634 
-0.29655936 -0.096842565 -0.9500916 
0.03481418 -0.60004455 -0.79920864 
0.22871712 -0.3732178 -0.89910907 
0.40556613 -0.5313312 -0.7437764 
0.4976846 -0.27861783 -0.82139033 
0.8382272 -0.1273871 -0.53023374 
-0.39251325 -0.83050543 -0.39521396 
-0.20584626 -0.7192694 -0.6635352 
-0.7674945 -0.563227 -0.30614945 
-0.18698798 -0.51428336 -0.8369876 
0.38577095 -0.4972521 -0.77712363 
0.16445845 -0.9642004 -0.20801693 
-0.41011697 -0.8673687 0.28191426 
-0.70627 -0.5318923 -0.46719736 
-0.58225745 -0.74364436 -0.32858688 
0.26446697 -0.6800253 -0.6838296 
-0.44266483 -0.110420994 -0.8898624 
0.22311871 -0.53098667 -0.81747854 
0.0707714 -0.7700478 -0.6340489 
-0.80154556 -0.41905043 -0.4265227 
0.22314604 -0.89850897 -0.37800458 
-0.27995658 -0.90254617 -0.32716182 
0.39085793 -0.3517382 -0.8505941 
0.03503021 -0.3055039 -0.95154625 
-0.42818144 -0.11146458 -0.8967923 
0.25896502 -0.51832545 -0.8150313 
0.09814279 -0.38066107 -0.9194919 
0.39304933 -0.7885897 -0.4729044 
0.056133594 -0.4755469 -0.8778976 
-0.76565343 -0.26378697 -0.58667815 
0.2155798 -0.3988835 -0.8913009 
0.17116012 -0.77282506 -0.611102 
0.7579289 -0.05150446 -0.65030074 
-0.15383343 -0.9723558 0.17566898 
-0.54591525 -0.7030324 -0.45576543 
0.46793967 -0.38845423 -0.79381096 
0.49937826 -0.86569834 -0.034463767 
-0.5781601 -0.8095413 -0.10185212 
-0.62224776 -0.77806324 -0.08617176 
-0.6203749 -0.32268727 -0.71484816 
-0.56901324 -0.59715587 -0.5653573 
-0.64176685 -0.3946897 -0.6575374 
0.20265183 -0.2250443 -0.9530411 
0.06854907 0.35979778 -0.9305088 
0.2054573 0.3297065 -0.9214559 
-0.34379134 -0.45622116 -0.82077396 
-0.37477145 -0.25816157 -0.89044875 
0.08561042 0.95481044 -0.28461877 
0.28031436 0.16931604 -0.9448577 
-0.17980254 -0.3685313 -0.91206133 
-0.06009952 -0.7777381 -0.625709 
0.020034794 -0.02446473 -0.9994999 
-0.24207634 -0.2798974 -0.92900836 
0.82799584 -0.37426475 -0.41755095 
0.3685608 -0.6459468 -0.66851765 
0.30840164 -0.48304716 -0.819484 
0.7085521 -0.34809935 -0.6138248 
-0.11569791 0.7852928 -0.6082181 
0.42796874 0.073359974 -0.90081143 
0.8183499 0.055600688 -0.5720244 
0.1824345 0.16753446 -0.9688395 
-0.019244699 0.45328975 -0.8911554 
-0.42448187 -0.3144696 -0.84907246 
-0.11857542 -0.3900524 -0.91312605 
0.2588922 -0.74061865 -0.62004757 
-0.25442648 -0.6998181 -0.6674743 
0.20176814 -0.2552086 -0.9455994 
0.24583514 0.06207743 -0.9673218 
-0.71036744 -0.66253364 -0.2375445 
-0.85877335 -0.44129795 -0.26031628 
-0.15864767 -0.53053296 -0.83268595 
-0.022525499 -0.25881487 -0.96566427 
-0.3046647 -0.14983839 -0.9405998 
-0.46853337 -0.22441559 -0.8544673 
-0.40744767 -0.25383678 -0.87724185 
-0.4013821 -0.26315725 -0.8772917 
-0.27758572 0.05352133 -0.9592089 
0.2474988 -0.103136994 -0.96338326 
-0.31873497 -0.10325959 -0.94220257 
-0.24587241 -0.46588215 -0.8500003 
-0.084419765 0.35675094 -0.93037736 
-0.44628352 0.26754454 -0.853962 
0.39318028 0.3593313 -0.8463394 
0.56462437 0.094381176 -0.81993395 
0.5707075 -0.14728987 -0.8078358 
0.01600983 0.118827164 -0.99278593 
-0.3296817 -0.4426048 -0.8339131 
0.08694416 -0.6790693 -0.7289072 
0.031886037 -0.70099264 -0.71245533 
0.4451574 -0.89543176 -0.0060719876 
0.5230795 -0.7666537 -0.37233028 
0.46581486 -0.85961163 0.20996247 
-0.5472227 -0.8269411 -0.12928973 
-0.7261192 -0.54639953 -0.41737095 
0.028024672 -0.4390159 -0.89804214 
-0.055869713 -0.39480168 -0.91706616 
-0.1944513 0.38132516 -0.9037587 
-0.08704033 0.1843441 -0.97900015 
0.055237256 0.3970115 -0.91615 
0.01453353 0.7273796 -0.6860814 
0.2015274 0.61705744 -0.76067525 
0.21671064 0.3001941 -0.9289349 
-0.1546373 -0.04465999 -0.9869615 
-0.09202204 -0.3010003 -0.94917375 
0.07942252 -0.16628727 -0.98287374 
-0.26738364 0.50279254 -0.82201326 
0.4408587 0.045437157 -0.8964258 
0.5396744 0.292448 -0.78944653 
-0.50024384 0.0075545944 -0.8658517 
0.3541532 0.38348603 -0.8529444 
0.5236777 0.17964941 -0.8327591 
-0.11987223 0.0061720554 -0.9927702 
0.10487091 -0.542628 -0.83340096 
0.2765348 -0.73040706 -0.62452704 
0.15962914 -0.76406044 -0.6250842 
0.14622101 -0.42202577 -0.8947143 
-0.14748092 -0.7373701 -0.6591925 
-0.3445856 -0.5559725 -0.7564095 
-0.56128395 -0.16485743 -0.81103796 
-0.8183158 -0.18459138 -0.54432094 
0.38934228 0.045064848 -0.91999006 
0.312357 -0.6023548 -0.7345759 
0.7265766 -0.10946374 -0.6783098 
0.15597495 -0.3957996 -0.9049942 
0.12794183 -0.4570698 -0.8801807 
0.47031626 -0.56705034 -0.6762075 
0.22599436 -0.9655832 0.12874691 
0.24325785 -0.9106712 0.33392182 
-0.76636654 -0.612758 -0.19289863 
-0.021474516 -0.9073634 0.4197982 
0.16350427 -0.74651575 -0.6449656 
-0.5954157 -0.6501792 -0.47196102 
-0.77632743 -0.17141654 -0.60657406 
-0.2350323 -0.7358758 -0.63501704 
0.11941688 -0.8501535 -0.5128144 
-0.13546771 -0.57735515 -0.80517673 
-0.5232532 -0.7067639 -0.4761206 
0.046098344 -0.955946 0.28990033 
-0.65216756 -0.7465654 -0.13159694 
-0.24001773 -0.5300909 -0.81326205 
0.16469802 -0.5968647 -0.7852561 
0.017710473 0.35293376 -0.9354807 
0.7471429 -0.35481128 -0.5620378 
0.85643023 -0.18424882 -0.48226523 
0.49388218 -0.26557216 -0.8279805 
0.1899875 -0.82270414 -0.5357824 
-0.35925174 -0.5783901 -0.73239547 
-0.15512125 -0.10919638 -0.9818419 
0.18142694 -0.35733384 -0.91618603 
0.37022072 -0.027832104 -0.9285268 
-0.19465698 0.76728797 -0.6110467 
0.54413384 -0.15461949 -0.82462794 
0.2401406 -0.78019714 -0.57760286 
-0.4338826 -0.76318914 -0.47884038 
-0.7597866 -0.49933898 -0.41639537 
-0.34410846 -0.36341903 -0.8657459 
0.41951674 -0.33077097 -0.845338 
0.09167839 -0.14643139 -0.9849634 
0.2506779 -0.18221152 -0.95076793 
0.35630128 -0.24131882 -0.90267086 
0.3010474 0.18796597 -0.93490064 
0.20005192 -0.2743386 -0.94059426 
-0.21781516 0.32454446 -0.9204496 
0.06573185 0.43724194 -0.89693856 
0.6860844 0.08802087 -0.72217774 
0.49258745 -0.3684087 -0.78843695 
0.3362532 0.4422184 -0.83149064 
-0.028091522 0.36218265 -0.9316837 
0.12404853 -0.5438747 -0.8299472 
-0.18476978 0.05302472 -0.9813504 
0.06033627 0.26279768 -0.96296257 
-0.6615516 -0.22154495 -0.7164268 
-0.1291339 -0.10798271 -0.98573035 
-0.6842129 -0.47656107 -0.55203474 
-0.07135405 -0.6252114 -0.77718675 
-0.23306349 -0.9527502 -0.19480386 
-0.20213874 -0.67920846 -0.70556074 
0.035698168 -0.85313815 -0.5204624 
0.37098065 -0.84763616 -0.37932357 
-0.09818304 -0.55771947 -0.8242022 
-0.2966135 -0.7597485 -0.5786213 
-0.44501144 -0.5315133 -0.72073466 
-0.2057714 -0.048474886 -0.97739875 
0.68242204 0.25586635 -0.6847135 
0.63546276 0.25206423 -0.72982925 
0.9332053 -0.06848493 -0.3527573 
0.2375442 -0.20437834 -0.9496327 
-0.27827007 -0.40368587 -0.87155247 
-0.20453763 -0.514233 -0.83290386 
-0.27646327 0.13071208 -0.9520938 
-0.034066454 -0.078273624 -0.9963497 
-0.2097489 0.061871666 -0.9757958 
-0.3246517 -0.12704678 -0.93726224 
0.093716174 -0.22148052 -0.9706512 
-0.19862463 0.046024676 -0.97899437 
-0.39616573 -0.2540525 -0.8823322 
-0.76926595 0.10639127 -0.63000864 
0.022461291 -0.5117904 -0.8588166 
0.032799717 -0.6750971 -0.7369994 
-0.44008568 -0.45515403 -0.77405393 
0.49701807 -0.4286183 -0.7544929 
-0.38446048 0.050697263 -0.92174834 
-0.45434344 0.35911205 -0.81523657 
-0.034919746 -0.2697498 -0.96229714 
-0.28498834 -0.06779852 -0.95613027 
-0.42348018 -0.030069886 -0.90540624 
-0.15372728 -0.022004958 -0.98786837 
-0.5928599 0.3125002 -0.74219996 
-0.47825348 0.69341433 -0.53893447 
-0.4286641 -0.0734965 -0.9004695 
-0.089018635 0.04330402 -0.99508816 
-0.48764014 -0.06504706 -0.8706182 
0.33127287 0.042209864 -0.9425904 
0.30488494 -0.049737018 -0.9510897 
-0.5194291 0.3094186 -0.7965261 
-0.23331892 -0.06404082 -0.97028923 
-0.0440414 -0.5578666 -0.82876134 
-0.29445386 -0.43588692 -0.85047024 
0.08977461 0.19734958 -0.97621405 
-0.28449014 0.3665709 -0.88582796 
0.33825198 -0.4221003 -0.8410809 
-0.13153146 -0.28718752 -0.9488007 
-0.5460351 -0.6237332 -0.55928767 
-0.31301418 -0.041962035 -0.948821 
-0.2100724 -0.3499805 -0.91289836 
-0.34734723 -0.112550065 -0.9309578 
-0.7336033 0.04138197 -0.67831683 
-0.20651232 0.10507422 -0.9727857 
-0.6657395 -0.009978682 -0.7461176 
-0.045230772 -0.11799484 -0.99198365 
0.12300196 -0.9920471 0.026707467 
-0.089717016 -0.94875044 -0.30302396 
-0.89994276 -0.4333506 -0.048067067 
-0.44156104 0.004628752 -0.89721936 
0.25793648 -0.3557429 -0.898285 
0.52111876 -0.85262424 -0.03830243 
0.24646863 -0.96903086 -0.015245927 
-0.5716932 -0.79908013 0.18611284 
-0.6771097 -0.62044406 -0.3956913 
-0.02348786 -0.35806867 -0.9333998 
-0.44487515 -0.523637 -0.7265607 
-0.7684133 -0.54983777 -0.32744408 
-0.43126345 -0.6971308 -0.57273084 
-0.03641854 -0.37608677 -0.9258686 
0.3043005 -0.48332378 -0.8208529 
0.29064783 -0.059028585 -0.9550076 
0.12171906 0.04501409 -0.99154335 
0.51382786 -0.5050666 -0.6934614 
0.17348744 0.117185004 -0.97783935 
-0.011528667 -0.06516836 -0.9978077 
-0.045257907 -0.04804016 -0.9978196 
0.48198694 0.38799033 -0.78559035 
0.67005056 -0.034427658 -0.74151677 
0.9216849 0.21495181 -0.32294384 
0.39844707 -0.56368023 -0.72353613 
-0.6441942 -0.7648247 -0.0075599533 
-0.5048237 0.13305491 -0.8529066 
-0.39284196 -0.75072926 -0.5311128 
-0.33362824 -0.76563597 -0.54999447 
-0.24817635 -0.73551995 -0.6304118 
-0.15109529 -0.71724916 -0.6802381 
-0.3022691 -0.77131635 -0.56009334 
-0.07072201 -0.91088855 -0.40654713 
-0.6840512 -0.511477 -0.5200627 
0.09224575 -0.6249761 -0.7751747 
0.13461635 -0.57525104 -0.8068239 
0.21355616 -0.8309395 -0.5137446 
0.3377184 -0.936802 0.091368504 
-0.6222271 -0.72679156 0.29087368 
-0.79253674 -0.23883013 -0.56111133 
-0.77012527 -0.3978803 -0.49859643 
-0.4847416 -0.40684032 -0.7742782 
0.3483858 0.25312674 -0.9025266 
0.17790255 -0.8988272 -0.40057516 
-0.65098214 -0.58998764 -0.4776369 
-0.32809377 -0.45310855 -0.8288831 
-0.33786836 -0.5176166 -0.7860776 
-0.8434284 -0.19342425 -0.5012141 
-0.5666568 -0.28341624 -0.7736765 
-0.4867831 -0.49348512 -0.7207737 
-0.33245873 -0.41444546 -0.8471754 
-0.2508604 -0.9612427 -0.114375256 
0.035202704 -0.6142181 -0.7883508 
0.1540608 -0.6527336 -0.74175745 
0.050700814 -0.40878606 -0.91122085 
-0.24363023 -0.3751826 -0.89436144 
-0.20846093 -0.33622324 -0.9184215 
-0.10010473 -0.66306025 -0.7418425 
0.77873886 0.47582203 -0.4088512 
0.00090379117 -0.89343435 -0.44919315 
-0.89766896 -0.25388962 -0.36018133 
-0.46253794 -0.6494026 -0.60360163 
-0.26416034 -0.58065444 -0.7701038 
-0.21047427 -0.728106 -0.6523513 
-0.051086277 -0.886467 -0.45996374 
-0.26999822 -0.7751057 -0.5712373 
-0.5956541 -0.64966667 -0.47236598 
-0.25900215 -0.32365748 -0.91003513 
-0.25147682 -0.230502 -0.94001514 
-0.069454625 -0.5615711 -0.8245083 
-0.036426205 0.16054893 -0.9863556 
-0.061780695 0.07453469 -0.99530286 
0.06457267 0.50960463 -0.8579822 
0.11431442 0.051575467 -0.99210495 
-0.2637093 0.23592389 -0.9353061 
-0.37425405 -0.5308306 -0.7603636 
0.15423909 -0.68141 -0.71546537 
0.11155344 -0.2567537 -0.9600174 
0.15149303 -0.30439156 -0.94042313 
0.2843341 0.2521667 -0.92496824 
0.75528324 -0.21083912 -0.62055963 
0.55060613 -0.14357758 -0.82232505 
0.61814 -0.07266906 -0.78270185 
-0.53994095 0.29640776 -0.7877857 
0.010046462 0.21523118 -0.9765114 
0.71376693 -0.0006704564 -0.70038307 
-0.43024227 0.51665586 -0.74024206 
-0.54763234 0.7078234 -0.44618934 
-0.5837383 0.2883398 -0.75901896 
-0.23299195 0.0074860603 -0.9724499 
-0.3464108 -0.12498449 -0.92971957 
0.27484012 0.15774539 -0.9484616 
0.74981755 -0.16774075 -0.64002866 
0.49828407 -0.41254377 -0.76257515 
-0.0011200834 -0.5173348 -0.8557824 
-0.6960054 -0.59422314 -0.40308252 
-0.541769 -0.25949505 -0.79946774 
-0.75286007 0.23114508 -0.6162579 
-0.38234055 0.40149808 -0.83223504 
-0.21121828 0.19284345 -0.9582266 
-0.42209107 0.17315114 -0.889864 
-0.37286958 -0.4268079 -0.82389516 
-0.13757215 -0.62082934 -0.7717803 
-0.08477043 -0.18759604 -0.97858155 
-0.5052851 -0.06328062 -0.86062926 
-0.3735949 0.7055902 -0.6021374 
0.10445846 0.22009623 -0.9698692 
0.20964155 -0.43960404 -0.87338346 
-0.11826357 0.3103296 -0.94324404 
-0.056762833 0.40849903 -0.9109921 
0.30188212 -0.06460856 -0.9511535 
-0.31680503 0.7396664 -0.59374094 
-0.36079034 0.6723043 -0.6464034 
0.245548 0.17818761 -0.952867 
0.096236005 0.13042112 -0.98677707 
0.14822482 -0.7311477 -0.6659223 
-0.28075242 -0.5004844 -0.8189587 
-0.0554845 -0.51902974 -0.8529535 
-0.18405624 0.06740334 -0.98060197 
-0.4381898 -0.20376943 -0.87548155 
0.2862853 0.42515132 -0.85865426 
-0.3956101 0.48064455 -0.78260684 
0.41466272 0.86969924 -0.2677277 
0.28882414 0.31445447 -0.9042672 
-0.51431113 -0.30187127 -0.8027191 
-0.4996403 -0.6052828 -0.6196712 
-0.15736711 0.48231608 -0.86174643 
-0.0048004943 0.10267082 -0.9947038 
-0.85877615 0.5108482 0.039211143 
-0.34364456 -0.08947462 -0.9348277 
-0.432179 0.37276632 -0.8211374 
-0.3307171 0.14469776 -0.93257105 
0.091211565 -0.52510613 -0.84613484 
-0.34980673 -0.039293047 -0.9359975 
-0.4485848 0.25367126 -0.8569847 
0.19743462 0.20055585 -0.9595817 
0.13325275 0.4153684 -0.8998404 
0.12616156 -0.17394403 -0.9766406 
0.6319688 -0.422855 -0.6494684 
0.27538717 -0.7843892 -0.55578375 
0.29919082 -0.4137361 -0.8598299 
0.15637882 -0.4764688 -0.8651724 
-0.45026535 -0.77421993 -0.44479734 
-0.8464275 -0.21791098 -0.48587593 
-0.76317513 0.14073879 -0.63067937 
-0.49794137 -0.601431 -0.62476814 
-0.16894515 -0.92499506 -0.34035528 
0.10032245 -0.4078429 -0.9075239 
0.58334047 0.05066839 -0.8106459 
-0.2567195 0.043939404 -0.96548665 
-0.77507025 0.17358178 -0.60756516 
0.59015954 0.37474647 -0.7150363 
0.25758535 -0.83740705 -0.48207805 
-0.32029817 -0.9418821 -0.101327844 
0.12197922 -0.57738715 -0.80730736 
0.7137161 -0.61067516 -0.3430528 
0.29134563 -0.9406036 -0.17430593 
0.3858388 -0.860336 -0.33309248 
-0.7665028 -0.27598992 -0.57991636 
-0.31352332 -0.8851071 -0.34393123 
-0.7014534 -0.509774 -0.4980901 
-0.38569766 -0.511351 -0.76795685 
-0.402243 -0.7645211 -0.5036944 
0.15649612 -0.8637188 -0.47906038 
-0.016301602 -0.57925755 -0.8149816 
0.49815142 -0.58166057 -0.6430523 
-0.03266553 -0.49358335 -0.8690849 
0.12856507 0.1780159 -0.9755929 
0.13114475 0.106241174 -0.9856541 
0.4016122 -0.5538644 -0.7293435 
0.039940823 -0.08359883 -0.99569875 
0.40509862 -0.6271845 -0.66523284 
-0.5438286 -0.51269674 -0.6643739 
0.10484537 -0.110309936 -0.9883518 
0.14646357 -0.026213827 -0.9888687 
0.778258 0.21681522 -0.5893264 
0.35241276 0.4118412 -0.8403524 
0.62530696 -0.28786713 -0.7253439 
0.02149465 -0.54283774 -0.8395625 
-0.48442134 -0.49981 -0.7180014 
-0.3626894 -0.6578493 -0.6600687 
-0.70231634 -0.6626872 -0.2599954 
-0.35396224 -0.44984967 -0.8199671 
0.11392265 -0.3739669 -0.9204187 
-0.117831565 -0.15956494 -0.98013 
0.3055143 -0.37205303 -0.8764916 
0.5903627 0.105345994 -0.8002339 
0.48611662 0.20169221 -0.85030055 
0.49198198 0.12366078 -0.86177826 
0.25580007 0.70491457 -0.6615601 
-0.12562387 0.1427983 -0.98174715 
-0.5370534 -0.09087539 -0.83863896 
0.27312973 -0.36947778 -0.8881927 
0.013134346 0.102728754 -0.99462277 
0.17718944 0.23311074 -0.9561712 
-0.0041546137 -0.07924835 -0.9968463 
0.36369333 -0.23348626 -0.90178233 
-0.24588247 0.6852089 -0.6855878 
0.1956895 -0.0044744834 -0.9806557 
0.24699415 -0.5158113 -0.82032466 
-0.24432321 -0.6445021 -0.7245159 
0.21676135 -0.6329494 -0.74322915 
-0.5010783 -0.8092256 -0.3067157 
-0.05561473 -0.5551897 -0.8298623 
-0.037631392 -0.66503584 -0.7458628 
-0.27620584 -0.3059572 -0.91109854 
-0.0062935906 -0.0038783792 -0.9999727 
-0.47232318 -0.44311294 -0.76194596 
-0.60380876 0.1362019 -0.78540695 
0.32205108 0.65189755 -0.6865222 
0.3486813 0.43783587 -0.8286864 
0.8118458 -0.13703988 -0.56756204 
-0.13525614 -0.7264134 -0.67381704 
-0.11340556 -0.24571785 -0.9626848 
-0.051407162 0.26570433 -0.9626831 
0.08880093 0.4377908 -0.8946808 
-0.6527989 0.42242274 -0.6288185 
0.081694424 0.14826784 -0.9855672 
0.01889454 0.3646453 -0.9309549 
0.03396596 0.2413172 -0.9698518 
-0.55754125 -0.044929735 -0.82893246 
-0.37910497 0.083751455 -0.9215559 
-0.4262695 0.057009555 -0.9027981 
0.017638478 0.12676626 -0.9917759 
0.07410451 -0.09584681 -0.9926339 
0.08256019 -0.30331382 -0.9493075 
-0.1913898 -0.020267742 -0.9813048 
0.017153744 -0.022809744 -0.99959266 
-0.15838784 0.4432386 -0.88229984 
-0.13856725 -0.6389089 -0.7566998 
0.18252864 -0.48510987 -0.8551911 
-0.08025399 -0.5152887 -0.85325074 
0.050163962 0.6491116 -0.7590373 
-0.48279053 -0.106431365 -0.8692443 
-0.24629095 0.5349453 -0.80819196 
-0.9345692 0.3306367 -0.13137646 
-0.26461712 0.5492803 -0.79263425 
-0.61237866 0.07085007 -0.78738344 
0.047770705 -0.25714508 -0.96519136 
0.05261753 0.4408494 -0.8960375 
0.020550592 0.08175738 -0.9964405 
-0.28434622 -0.41325712 -0.8650814 
0.14576496 -0.49613088 -0.85592455 
-0.06053021 -0.29513124 -0.95353746 
0.20757662 0.53664714 -0.8178765 
0.29226652 0.5098415 -0.80909944 
0.49101126 -0.6053524 -0.6264635 
0.072300024 -0.75261176 -0.65448326 
-0.63241833 -0.4690943 -0.6164395 
-0.50362974 -0.7600502 -0.4107076 
-0.37658575 -0.5583396 -0.7392159 
-0.051770836 -0.6225929 -0.7808315 
0.21278365 -0.13197748 -0.96814513 
-0.5241181 -0.79399145 -0.30802253 
0.3839681 -0.26844665 -0.88346195 
-0.19377798 -0.7214811 -0.6647671 
-0.17244026 -0.9095191 -0.37820566 
0.08509041 -0.48799956 -0.8686865 
-0.1902675 0.06826705 -0.97935593 
-0.24129261 -0.57994795 -0.7780992 
0.22818214 -0.11510925 -0.9667899 
0.50587076 -0.7142987 -0.4836034 
0.43673837 -0.8967301 -0.07165827 
-0.8274766 -0.5551021 0.08452374 
-0.7155419 -0.6782353 -0.16732205 
-0.6731059 -0.55148584 -0.49273923 
-0.28707463 -0.519217 -0.8049857 
-0.6378664 -0.7040275 -0.31220493 
-0.74648535 -0.5944409 -0.298998 
0.23122498 0.030629015 -0.9724181 
-0.2192587 0.015533116 -0.9755432 
-0.29984212 0.41828936 -0.8573965 
-0.6415603 -0.13433802 -0.75521773 
-0.10448405 -0.26242837 -0.9592781 
-0.6164204 -0.31436408 -0.72194266 
-0.10759387 -0.31513965 -0.9429267 
0.032085925 -0.22916417 -0.97285885 
-0.2646737 0.2809306 -0.9225107 
0.065424114 0.47338596 -0.87842214 
-0.021714825 0.76400596 -0.64484364 
0.3135204 -0.25855017 -0.91370505 
0.17331204 -0.61081195 -0.7725747 
0.027657881 -0.21323662 -0.97660905 
0.2055605 -0.38688147 -0.89892584 
-0.4775084 -0.09086908 -0.87391573 
-0.23171473 -0.28427532 -0.9303204 
-0.54535484 -0.31958884 -0.77488786 
-0.8160527 -0.562191 -0.1341621 
-0.56733984 -0.82029897 -0.07235451 
-0.08714579 -0.816855 -0.5702224 
0.18037996 -0.7768728 -0.60326755 
-0.13858712 -0.8350292 -0.5324658 
0.0034151305 -0.2374748 -0.97138774 
0.42585418 -0.90319 -0.053815674 
-0.10071185 -0.79240763 -0.60162073 
0.1136257 -0.9897098 0.08696983 
-0.29622903 -0.67108375 -0.67962855 
0.13861784 0.32697576 -0.9348112 
-0.11533868 0.15891254 -0.98053247 
0.5430579 0.005078858 -0.83968 
0.28477067 -0.015900861 -0.9584638 
0.056113493 0.34251192 -0.9378362 
0.17283332 0.20737964 -0.9628719 
0.018398104 -0.66976464 -0.7423456 
0.3104481 -0.9260367 -0.21465811 
-0.3917239 -0.0966769 -0.91498965 
-0.57015014 -0.31169605 -0.7601148 
0.18204232 0.18994567 -0.96477 
0.070339054 -0.18177451 -0.9808214 
-0.24254349 -0.87916726 -0.4101678 
-0.035081107 -0.5169165 -0.8553167 
-0.6535337 -0.2710492 -0.7067008 
-0.9469327 -0.09369163 -0.30747452 
-0.7620356 -0.033690657 -0.64665824 
0.22310273 -0.11312657 -0.96820843 
0.123777516 -0.14312941 -0.9819334 
0.044169664 -0.33864918 -0.9398754 
9.1278634e-05 -0.57454205 -0.8184751 
-0.12774254 -0.8525956 -0.5067175 
0.07099079 -0.13383919 -0.98845714 
-0.5576891 -0.5160298 -0.65015095 
-0.83788985 -0.44940725 -0.30979636 
-0.81517035 -0.48870504 -0.31090957 
-0.86437595 -0.4912307 -0.10745567 
-0.5261534 -0.6361704 -0.56431365 
-0.4480264 -0.34719643 -0.8238489 
-0.076981686 0.3153531 -0.94584686 
0.20640084 0.51535237 -0.8317515 
-0.6606577 0.5980618 -0.45371088 
-0.41699716 -0.0501362 -0.907524 