# OOMMF: rectangular mesh v1.0
# Segment count: 1
# Begin: Segment
# Begin: Header
# Desc: Time (s) :  8.890000000000024e-07
# Title: m
# meshtype: rectangular
# meshunit: m
# xbase: 2e-09
# ybase: 2e-09
# zbase: 5e-10
# xstepsize: 4e-09
# ystepsize: 4e-09
# zstepsize: 1e-09
# xmin: 0
# ymin: 0
# zmin: 0
# xmax: 1.024e-06
# ymax: 1.024e-06
# zmax: 1e-09
# xnodes: 256
# ynodes: 256
# znodes: 1
# ValueRangeMinMag: 1e-08
# ValueRangeMaxMag: 1
# valueunit: 
# valuemultiplier: 1
# End: Header
# Begin: Data Text
-0.62081206 0.59744716 -0.5075918 
0.35739097 0.05689899 -0.93222004 
-0.24965875 -0.4660175 -0.8488217 
-0.23006828 -0.300146 -0.92573273 
0.33246627 0.18436922 -0.92491853 
0.40348577 0.13916755 -0.90434057 
0.5519299 -0.8170415 -0.16678318 
0.48267522 -0.7385511 -0.47070894 
0.27809235 -0.46149307 -0.84243035 
-0.0070332363 -0.7067703 -0.7074082 
-0.041006025 -0.9829079 0.1794735 
-0.19862613 -0.9121735 -0.35845122 
-0.67720866 -0.47527197 -0.5616984 
-0.374989 0.5384631 -0.75461304 
-0.41469696 0.2559812 -0.8732126 
0.041230958 0.42928994 -0.9022251 
0.18550572 0.39076483 -0.9016044 
-0.5146389 -0.17035778 -0.84031254 
-0.4916349 0.051582586 -0.8692724 
-0.37243107 0.29791147 -0.8789448 
0.38634437 -0.31040695 -0.8685537 
-0.34500307 -0.9008784 -0.26342154 
-0.061601873 -0.7363256 -0.6738174 
-0.36878267 -0.61928236 -0.693173 
0.009304208 -0.33173275 -0.94332755 
0.3218347 -0.47095802 -0.8213532 
0.27995625 -0.8802948 -0.38302186 
0.45385426 -0.87799025 0.15214919 
0.6706554 -0.66048986 -0.33760104 
-0.027208535 -0.8248727 -0.5646634 
0.29554465 -0.54899454 -0.7818301 
0.63410085 -0.16153286 -0.75618994 
-0.09198608 -0.6839323 -0.7237232 
-0.54792917 -0.34008524 -0.7642747 
-0.3307943 -0.6501322 -0.6840346 
-0.42027342 -0.7220039 -0.5496188 
-0.869543 -0.48793516 0.07625136 
-0.8233253 -0.4884572 0.28904152 
-0.24321537 -0.42448616 -0.872157 
0.059427455 -0.38925576 -0.9192108 
0.24480422 -0.46657056 -0.849931 
0.11950843 -0.20584096 -0.97126067 
-0.0033207368 -0.63296777 -0.774171 
-0.22284737 -0.3321881 -0.91650975 
-0.18895058 -0.87058556 -0.45428902 
-0.62387776 -0.6119083 -0.4861532 
0.36187917 -0.8595556 -0.36084312 
-0.8750483 0.03856049 -0.4824974 
-0.49963588 -0.6273142 -0.5973617 
0.29171696 -0.37138826 -0.8814602 
0.8306598 -0.13923332 -0.53909045 
0.7007652 0.14350544 -0.69880927 
0.5270253 -0.3795269 -0.7603971 
-0.03921493 0.035265714 -0.9986083 
0.30286002 -0.38991377 -0.86962247 
0.5480737 -0.6567946 -0.51791525 
0.3107604 -0.6773304 -0.66682196 
-0.28827098 0.57570267 -0.7651578 
0.2845507 -0.052150693 -0.95724154 
-0.22211929 0.03915086 -0.97423315 
-0.2373169 0.072635196 -0.96871305 
-0.7531314 0.013570616 -0.6577302 
0.59571725 -0.1163233 -0.7947263 
0.06381897 0.42764708 -0.9016902 
-0.015976476 0.25090268 -0.96788055 
-0.15160923 -0.1376929 -0.97880304 
0.5364314 -0.00734892 -0.84391195 
0.7523272 -0.16733195 -0.6371843 
0.36395535 -0.4420092 -0.8198564 
0.61284935 -0.2588859 -0.7465882 
0.18464127 -0.9582543 -0.21830367 
-0.17576154 -0.18483609 0.9669248 
-0.39785555 -0.85675186 0.32815734 
-0.060941517 -0.82061905 -0.56821704 
-0.11182854 -0.031323012 -0.9932338 
0.5582745 -0.7258353 -0.40186167 
-0.34702063 -0.65447265 -0.6717457 
0.0052850414 -0.64651865 -0.76287997 
-0.8001463 -0.2676339 -0.53678507 
-0.3426939 0.15644568 -0.92632914 
0.19795085 -0.75567704 -0.6243138 
-0.04150106 -0.4628653 -0.8854566 
0.3717757 -0.6359267 -0.67629886 
0.31250712 -0.697799 -0.64452773 
0.52042145 -0.6064986 -0.60109985 
-0.22135633 -0.30025885 -0.9278179 
-0.22247107 -0.6030783 -0.7660309 
0.31658882 0.10579269 -0.94264495 
0.08791827 -0.76883453 -0.633375 
-0.08406324 -0.4703358 -0.8784746 
-0.4338157 -0.28746808 -0.85391223 
-0.061400045 -0.49433166 -0.8671022 
-0.20962234 -0.75881475 -0.6166512 
-0.3937116 0.028629636 -0.91878814 
0.2712364 -0.1693029 -0.94750595 
-0.1993744 0.16598752 -0.965763 
-0.33642766 -0.39284545 -0.85585564 
-0.00016896862 0.040710308 -0.999171 
-0.100794874 -0.52563137 -0.8447202 
-0.06203541 -0.6204728 -0.7817705 
-0.26467243 -0.3231916 -0.908568 
-0.4100818 -0.10046996 -0.906498 
-0.36291692 -0.6100052 -0.704404 
-0.14564802 -0.72334284 -0.6749533 
0.37487745 -0.76442164 -0.524525 
-0.32323363 -0.5847605 -0.74402636 
-0.33029908 -0.12589137 -0.93544316 
0.14579768 -0.1493075 -0.97798276 
0.49901003 -0.17560352 -0.8486179 
-0.31036273 -0.014189153 -0.95051235 
-0.2465814 0.32805508 -0.9119088 
-0.41353872 -0.47433108 -0.7771716 
-0.63103604 -0.2566377 -0.73207283 
-0.6062486 -0.4829542 -0.63183695 
-0.22728427 -0.35920513 -0.9051594 
-0.18186633 -0.35982406 -0.9151237 
0.21830407 -0.49403876 -0.8415873 
0.7260627 -0.16770564 -0.66686416 
0.41230848 -0.3099544 -0.8566971 
0.54216194 -0.5054997 -0.6712157 
-0.1470673 0.288162 -0.9462209 
-0.6509726 -0.57326764 -0.49759325 
0.24220109 -0.496592 -0.8335077 
-0.25981358 -0.93332756 -0.24778342 
-0.6323769 -0.4037475 -0.6611259 
-0.7217061 -0.6239554 -0.29969996 
-0.73223764 -0.5021975 -0.46002808 
-0.6690959 -0.25408798 -0.6983911 
-0.15014444 -0.42351136 -0.8933615 
-0.44254416 -0.34220615 -0.82888466 
0.57479167 -0.36312553 -0.7333174 
0.5852111 -0.718397 -0.3760768 
0.024261141 -0.87901324 -0.4761798 
-0.7364748 0.16392976 -0.6563017 
-0.14742729 -0.65146667 -0.7442153 
-0.26834342 -0.5485448 -0.7918905 
0.26068175 -0.31186458 -0.91366595 
0.3808027 -0.6526235 -0.6550359 
-0.14128941 -0.9586706 -0.24695724 
0.38956198 -0.428584 -0.8152037 
0.72612554 0.12740496 -0.67565507 
0.43501076 -0.64932925 -0.6238086 
0.5167154 -0.69793224 -0.49587888 
0.7786244 -0.61466265 -0.12623025 
-0.23006804 -0.93103015 -0.2832873 
0.40221983 -0.88563526 -0.23209785 
-0.37921914 -0.6535455 -0.6550353 
-0.16865912 -0.32910523 -0.9291092 
0.47946766 -0.35164067 -0.8040272 
-0.07947497 -0.6596905 -0.74732333 
-0.3383196 -0.33855477 -0.8780208 
-0.009979424 -0.80538607 -0.5926667 
-0.15738542 -0.98632026 -0.04901322 
0.19470064 -0.78824776 -0.58374417 
0.75809205 -0.5682706 -0.3199452 
0.95356375 -0.14795509 -0.26234624 
-0.6211981 -0.07964599 -0.7795957 
0.43170995 -0.5760237 -0.6941349 
-0.4595056 -0.7215488 -0.5179015 
0.3915369 -0.63493234 -0.6660029 
0.22262307 0.0849734 -0.97119445 
0.4952412 -0.3532535 -0.79369265 
0.91391706 0.09778004 -0.39394748 
0.8788509 -0.47325853 0.060395233 
0.25206158 -0.6264394 -0.73758984 
0.31131336 -0.91742134 -0.2478347 
0.19365183 -0.9734647 0.121923834 
-0.10506523 -0.6218337 -0.7760698 
0.18400785 -0.36414582 -0.9129836 
-0.063611485 -0.41052067 -0.90962976 
-0.124080375 -0.18170668 -0.9754931 
-0.14596882 -0.38452372 -0.91150135 
0.015744315 0.11699776 -0.9930074 
0.31831303 -0.5962653 -0.73698336 
0.3729117 -0.16131061 -0.91373724 
-0.1122297 -0.035642017 -0.9930429 
0.08081239 -0.36937055 -0.92576176 
0.12993377 -0.7629445 -0.6332717 
-0.045209557 -0.9893486 0.13836727 
0.2622293 -0.8417731 -0.47186214 
-0.23366126 -0.95474386 0.18402916 
-0.2179214 -0.90924186 -0.35466826 
-0.14451137 -0.15858804 -0.97671205 
-0.1537161 -0.86928326 -0.46980634 
0.026315086 -0.9227131 -0.38458812 
0.21735452 -0.6750759 -0.7050033 
0.27539665 -0.44633287 -0.8514363 
0.65303653 0.029387955 -0.756756 
-0.30126566 -0.43945003 -0.84624046 
0.677706 0.6913407 -0.25052467 
0.64838564 -0.6336725 -0.42196605 
0.47430426 -0.8726816 0.11602692 
-0.13971885 -0.98157126 0.13037077 
-0.24086413 -0.057860356 -0.9688327 
0.08192183 -0.79508877 -0.6009348 
0.051362626 -0.99626464 0.069417566 
0.21548495 -0.07374674 -0.97371846 
0.76444936 -0.37910107 -0.5214401 
0.3380511 -0.93810207 -0.07540617 
-0.4063528 -0.8578885 -0.31449118 
-0.3381491 -0.5552781 -0.75981665 
0.3233298 -0.2807771 -0.90367144 
-0.029694349 -0.34050444 -0.939774 
0.42984962 -0.6753774 -0.59924513 
-0.034173172 -0.9156525 -0.40051553 
-0.2553097 -0.57159054 -0.7798085 
0.397285 -0.77646476 -0.48914942 
0.23258324 -0.830681 -0.5058399 
0.70113224 -0.71120083 0.051058877 
0.79095703 -0.13565122 -0.59664536 
0.71214724 -0.5044159 0.4882735 
-0.098283 -0.98841745 0.11563552 
-0.30916122 -0.5946156 -0.7421939 
-0.15559436 -0.0404276 -0.98699343 
0.57098293 0.32960126 -0.7518921 
0.9068395 0.05292486 -0.41814014 
0.60277575 -0.33297026 -0.72511536 
0.39327517 -0.6905913 -0.6069748 
0.8899139 -0.45431644 -0.040618747 
0.86062115 -0.42870924 -0.2748451 
0.017806277 0.20734386 -0.9781061 
0.115361355 -0.8245255 -0.5539402 
0.4524006 0.2500258 -0.8560496 
0.49065068 -0.3588142 -0.7940494 
0.00692872 -0.13571358 -0.99072397 
-0.42934623 0.050011218 -0.9017543 
-0.0020401145 -0.99596125 -0.089760505 
0.18105626 -0.8270332 -0.53219813 
-0.053077664 -0.5421533 -0.83860165 
-0.13038056 -0.43376696 -0.891542 
-0.27668062 -0.66556805 -0.6931573 
0.3399405 -0.39479575 -0.8535672 
0.2773841 -0.6427489 -0.7140953 
0.12873596 -0.90372765 -0.4082935 
-0.97739923 -0.18357387 -0.10483983 
-0.9613565 -0.25829637 0.095271766 
0.555817 -0.52242583 -0.6466365 
-0.35909405 -0.9320202 0.048886843 
-0.118402004 -0.90843105 -0.4009164 
0.25960693 -0.7592881 -0.59672946 
-0.25893372 -0.94749844 -0.18761672 
-0.25964755 -0.66328514 -0.7018804 
0.22287117 -0.19582675 -0.9549766 
0.574765 -0.1857425 -0.7969599 
0.4154415 -0.24815868 -0.8751147 
0.02053266 -0.8837945 -0.4674248 
0.40009522 -0.720924 -0.56585544 
0.043589 -0.9976803 -0.052287616 
0.27693686 -0.3499433 -0.89489985 
-0.2664387 -0.39523807 -0.8790889 
0.14564185 -0.16242234 -0.9759137 
-0.20981035 -0.003216366 -0.97773683 
0.07125435 -0.16645308 -0.9834715 
0.034125604 -0.5492311 -0.8349734 
0.32626995 0.049644805 -0.9439722 
0.51088953 -0.2990822 -0.8059416 
-0.3495747 0.40607017 -0.8443368 
-0.31706738 0.19964884 -0.92715085 
0.009465205 -0.69952524 -0.7145452 
-0.1379592 -0.3913181 -0.9098557 
0.22653605 -0.28380093 -0.93173945 
0.44102454 0.14793985 -0.8852182 
0.34554246 0.39477804 -0.85132295 
0.22988959 -0.30204067 -0.92516065 
-0.048029304 0.30425403 -0.9513794 
-0.074761115 -0.6499539 -0.75628746 
-0.272662 -0.8302654 -0.4861223 
0.14467163 -0.72651356 -0.6717501 
-0.01482477 -0.02033571 -0.9996834 
-0.50128126 0.020035433 -0.86505246 
-0.4779184 -0.13963293 -0.86723506 
-0.45894387 -0.05636056 -0.88667583 
0.21005602 0.20848806 -0.95520115 
-0.24689624 0.13134192 -0.96009976 
-0.4834886 0.36577246 -0.7952668 
-0.37067613 0.6791024 -0.63357645 
-0.10962333 -0.53843194 -0.8355081 
0.041050147 -0.88622063 -0.46144107 
-0.071789265 -0.70726717 -0.7032919 
0.16434808 -0.8068466 -0.5674401 
0.33468133 -0.346537 -0.8762994 
0.4423589 0.28046346 -0.85185623 
0.37196353 -0.15210064 -0.9157011 
0.32412788 -0.26619318 -0.9077898 
0.77564704 -0.54305565 -0.32165578 
0.07161989 -0.6017756 -0.7954476 
0.45466897 -0.53922164 -0.7088838 
0.7767705 -0.16005836 -0.6091052 
0.6713818 -0.51094127 -0.5368292 
-0.26784283 -0.31985873 -0.90881824 
-0.31257495 -0.48054853 -0.8193718 
-0.92194086 -0.26768962 -0.2799417 
-0.81305003 -0.4308253 -0.39158547 
-0.97470045 -0.02734797 -0.22183608 
-0.7333726 0.11986254 -0.6691768 
-0.4664955 -0.2823503 -0.8382484 
0.1683617 -0.61150753 -0.7731189 
-0.08922604 -0.06773624 -0.9937055 
0.43221474 -0.43458334 -0.79014415 
0.030257422 -0.4502612 -0.8923841 
0.045249604 -0.24100284 -0.969469 
-0.13370939 -0.8334183 -0.53622377 
0.2571675 -0.8616932 -0.4374356 
-0.5184585 -0.69824183 -0.4936185 
-0.41291168 -0.667235 -0.6199205 
0.6017606 0.31617925 -0.73342687 
-0.11238662 -0.17395575 -0.9783193 
0.21240792 -0.36577412 -0.90614134 
0.7762921 0.01711682 -0.630141 
0.11053822 0.43492547 -0.8936561 
-0.11276325 0.10456839 -0.9881042 
-0.056368243 -0.23235461 -0.97099644 
0.006588237 -0.46186972 -0.8869233 
0.63158375 0.26618776 -0.72818 
0.23506522 0.074346244 -0.96913207 
0.54432154 0.38472834 -0.74545175 
-0.11556226 0.23434632 -0.96526027 
-0.10366622 0.33312857 -0.9371653 
0.308253 0.34984043 -0.8846422 
0.25318807 -0.14209926 -0.95692414 
0.28853548 -0.21155742 -0.93380445 
-0.5045584 0.18102984 -0.84418553 
0.24697983 -0.43231845 -0.86723804 
0.3779979 0.5325763 -0.75728476 
0.19473885 -0.34304065 -0.91891235 
0.7224684 -0.081951715 -0.68653 
0.2706561 -0.87857455 -0.3935125 
-0.4028517 -0.9117211 0.08046795 
0.27200943 -0.7866472 0.55425376 
0.028498493 -0.8089361 -0.58720547 
-0.44800884 -0.47781727 -0.7556315 
-0.02948356 -0.57427603 -0.8181308 
0.13835326 -0.016184742 -0.99025077 
-0.14461106 -0.44956836 -0.8814625 
0.06868683 -0.5183623 -0.8523982 
-0.5839355 -0.41753227 -0.6961941 
0.07542648 -0.15243188 -0.9854316 
-0.1352248 0.01487135 -0.99070334 
0.74504894 -0.041404758 -0.6657235 
-0.6405206 -0.4231381 -0.6408491 
-0.9267234 -0.3742556 -0.03341536 
-0.89942616 -0.018596742 -0.4366771 
-0.74417144 -0.26547995 -0.61296767 
-0.047238912 -0.57097155 -0.81960964 
0.28500813 -0.19486672 -0.9385081 
0.31011334 -0.54342437 -0.7800768 
0.025707403 0.19977151 -0.97950524 
0.48358804 -0.11595395 -0.8675813 
-0.22183727 -0.4727084 -0.8528394 
-0.11143358 -0.0071437405 -0.9937463 
-0.6532586 0.62158 -0.43230966 
-0.5592666 -0.3633197 -0.74513066 
0.21227397 0.095504865 -0.9725321 
0.067205325 0.029595492 -0.9973002 
0.12904586 -0.4221175 -0.8973093 
-0.19444735 -0.068641275 -0.9785084 
-0.21447454 0.26833522 -0.9391469 
-0.11241317 -0.24931057 -0.96187705 
-0.38534674 -0.4089284 -0.82721555 
-0.22483459 0.022466455 -0.97413796 
-0.14716959 -0.7295853 -0.66786706 
0.08075894 -0.5690881 -0.81830114 
0.0424006 -0.10211446 -0.9938687 
0.30529204 0.08297553 -0.9486369 
0.30813283 0.11465968 -0.94440854 
-0.068379216 -0.46317732 -0.88362384 
-0.7164538 -0.04679804 -0.6960633 
-0.54517704 -0.39399335 -0.73996705 
-0.7555302 -0.5614526 -0.33755776 
-0.37861544 -0.83226174 -0.40495777 
-0.20800488 -0.15893288 -0.96512926 
-0.0072974423 0.1946668 -0.98084235 
0.25946996 -0.42084917 -0.8692304 
0.4066963 -0.056093797 -0.9118398 
0.47736582 0.006315943 -0.878682 
0.52546316 -0.46039575 -0.71548885 
0.29465356 0.2106636 -0.9320946 
0.46304306 -0.025741907 -0.8859619 
0.16607837 -0.49130562 -0.8550069 
-0.4569792 -0.26343155 -0.8495728 
-0.18697892 -0.25323015 -0.94916457 
-0.5675138 -0.28809327 -0.77131724 
-0.26700315 -0.7445347 -0.61186403 
-0.57800925 -0.6865788 -0.44103855 
-0.43724644 0.08725814 -0.8950987 
-0.60817677 -0.14169765 -0.7810525 
-0.46688095 -0.6312726 -0.61928755 
0.2055495 -0.7892094 -0.5787035 
0.23430552 -0.8162038 -0.5281216 
-0.14062409 -0.9041132 -0.40349013 
-0.022426242 -0.6409236 -0.76727694 
-0.366477 -0.5092236 -0.77870786 
0.26478192 0.49937424 -0.8249339 
-0.2058075 -0.2782033 -0.9382145 
-0.44650266 -0.36440384 -0.817218 
-0.026113411 -0.4438635 -0.8957139 
-0.011527318 -0.5974828 -0.801799 
-0.044133123 -0.16983292 -0.9844842 
-0.0837165 -0.48580983 -0.87004626 
-0.2693551 -0.9078023 -0.32146984 
-0.16434738 -0.36888203 -0.9148312 
-0.49909875 -0.33709678 -0.7982896 
-0.60067296 -0.7788894 -0.18034215 
0.18218365 -0.8764602 -0.4456755 
0.1717424 -0.5297414 -0.83058935 
0.0039767325 -0.4637134 -0.88597643 
-0.16564283 -0.8121623 -0.55942374 
-0.13691941 -0.89140505 -0.4320303 
-0.08651635 -0.36260322 -0.92791915 
-0.09987689 -0.1411705 -0.9849343 
0.72195125 0.017866842 -0.69171333 
-0.13004096 -0.98674715 -0.097054176 
-0.31016433 0.3294677 -0.89176744 
0.3064797 -0.33410823 -0.8913147 
-0.16129258 -0.3338894 -0.9287103 
-0.26108012 0.083255745 -0.9617202 
0.0098490035 0.5044783 -0.8633682 
-0.22151373 0.4491485 -0.86556184 
-0.094992794 0.17597127 -0.9798013 
0.21830355 -0.89709944 -0.38413066 
0.03454239 -0.39559844 -0.9177738 
-0.25604028 -0.3244482 -0.9105914 
0.06448538 -0.81795055 -0.57166314 
-0.017877163 -0.28728983 -0.95767695 
-0.18960257 -0.32478896 -0.9265868 
-0.29623276 -0.30648163 -0.9046077 
-0.17150931 -0.07174097 -0.98256695 
-0.46918672 0.29821396 -0.83122337 
-0.055089395 0.012955824 -0.99839747 
-0.06307936 -0.72842425 -0.6822163 
0.27398297 -0.14315253 -0.95102096 
0.2523707 0.10318903 -0.9621129 
0.42457348 -0.034897167 -0.9047208 
0.42035973 -0.5157068 -0.746555 
0.5299593 -0.37919554 -0.75852084 
0.3853504 -0.68034923 -0.62340194 
0.0012540553 -0.6195104 -0.7849875 
0.5664403 -0.7325399 -0.3775325 
0.17531733 -0.496535 -0.85012764 
-0.05203453 -0.2827161 -0.9577913 
0.042648412 -0.7630666 -0.6449113 
0.21076187 -0.49844104 -0.84091383 
0.42345357 -0.08165411 -0.9022304 
0.10343951 -0.47724223 -0.87266266 
0.063214675 -0.64924616 -0.75794685 
0.83032465 -0.43504474 -0.3482775 
0.91037965 -0.3239496 -0.2574212 
-0.05354529 -0.9226655 -0.38186583 
-0.011093652 -0.2999693 -0.9538844 
-0.13884154 -0.6091218 -0.7808289 
0.25912744 -0.2879724 -0.9219138 
-0.11407438 -0.693161 -0.7116986 
0.0016715939 -0.67379636 -0.73891526 
0.22992581 -0.53595203 -0.81233585 
0.058228984 -0.60574025 -0.79352903 
-0.12717536 -0.8674344 -0.4810239 
0.0002977204 -0.055896286 -0.9984365 
-0.1590059 0.002555623 -0.98727435 
0.26599607 0.017469466 -0.96381587 
-0.14646822 -0.052099686 -0.98784244 
-0.41631708 -0.5468217 -0.72640634 
-0.53024304 -0.5125084 -0.6754092 
0.2133802 -0.7948864 -0.5680006 
0.3562838 -0.7385695 -0.5723434 
-0.168106 -0.52697474 -0.8330895 
0.15327092 -0.9236228 -0.35132477 
-0.08155053 -0.5670928 -0.8196069 
0.28822413 -0.74248034 -0.60468984 
-0.29087174 0.38201925 -0.8771858 
0.36789718 0.75079656 -0.5485948 
0.24123862 0.18269674 -0.95311373 
0.705668 0.0013424132 -0.70854145 
0.442884 -0.22637485 -0.86753 
0.3426214 -0.90615046 0.24799591 
0.19450802 -0.97961897 -0.050132286 
0.25777963 -0.9661873 0.005645889 
0.3365636 -0.50738096 -0.7932777 
0.1794616 -0.5267454 -0.8308628 
0.4297832 -0.4513323 -0.78203934 
0.502886 -0.3625392 -0.78464717 
-0.046321023 -0.123166636 -0.99130434 
0.091314 0.29466859 -0.9512267 
-0.0035930818 -0.19117315 -0.9815498 
0.16055886 -0.7268775 -0.66773504 
-0.3292376 -0.07185455 -0.94150925 
-0.4886848 -0.26832923 -0.83017266 
-0.15195058 -0.63320154 -0.75892484 
0.5034429 0.0648101 -0.86159444 
-0.21376507 -0.36256486 -0.90711147 
-0.14454547 -0.2146914 -0.9659266 
-0.16941994 -0.6680924 -0.724534 
-0.61491925 -0.674466 -0.40861952 
-0.28105438 -0.62725073 -0.7263367 
-0.14777176 -0.6202773 -0.77033734 
0.03971179 -0.54249406 -0.83912045 
0.056158904 -0.7479654 -0.6613577 
-0.20690213 -0.697531 -0.68603355 
-0.18999341 -0.73341423 -0.6526915 
0.5912197 -0.13490304 -0.79514813 
0.4830376 0.14200582 -0.86400753 
-0.4145472 -0.36476755 -0.8337238 
0.17139116 -0.10738181 -0.97933364 
0.6190768 -0.3913172 -0.6808927 
-0.18601301 -0.6358845 -0.74903274 
-0.84061295 -0.29440585 -0.4546375 
-0.52390647 -0.52261853 -0.6726009 
-0.59844035 -0.6630599 -0.4496896 
-0.13185762 -0.3393286 -0.9313805 
0.1675573 0.53576666 -0.82757396 
0.57536477 0.544452 -0.61035025 
0.03408566 -0.14902279 -0.98824614 
-0.37404713 0.16134207 -0.91326755 
-0.49489826 0.56312734 -0.661788 
-0.059302118 0.22569256 -0.97239196 
-0.29267982 0.12393454 -0.9481449 
0.25787622 -0.34465522 -0.90261436 
0.12013929 -0.33128965 -0.9358492 
0.2630518 -0.22733234 -0.93761605 
0.35167217 -0.07271059 -0.9332952 
0.7630083 -0.05544551 -0.6440064 
-0.32883632 -0.04901844 -0.943114 
-0.41920632 -0.26410285 -0.8686287 
-0.039641865 -0.739924 -0.6715214 
-0.034085948 -0.79853183 -0.60098684 
0.13064943 -0.38503993 -0.91360545 
-0.160399 0.041846946 -0.9861648 
-0.21863033 -0.034485146 -0.97519827 
0.1535495 0.19272384 -0.96916467 
0.42344466 0.115572475 -0.89851975 
-0.0074705672 0.40970668 -0.9121868 
-0.18235037 0.90553695 -0.38308126 
-0.27859393 0.92768556 -0.248566 
0.14562562 -0.1872132 -0.9714651 
0.19584313 -0.1910286 -0.96184903 
-0.038325068 -0.8644606 -0.5012376 
0.055439703 -0.656364 -0.7524047 
-0.05906454 0.0106122205 -0.9981978 
0.204723 0.010153379 -0.9787673 
0.5561847 -0.06038668 -0.8288619 
0.40335888 -0.1347032 -0.90507275 
0.4202037 -0.18267654 -0.88885224 
-0.31290743 -0.4954687 -0.81030846 
0.31731427 -0.29666972 -0.90072125 
0.9018638 0.076519914 -0.4251899 
-0.03772485 -0.41219172 -0.9103158 
-0.25763857 -0.52816224 -0.80911505 
-0.5582215 -0.18704191 -0.8083341 
-0.5670068 -0.6907371 -0.44876 
-0.44068024 -0.55481845 -0.7056752 
-0.17064543 -0.45387065 -0.8745752 
-0.35053626 0.5485245 -0.75910825 
-0.10875172 -0.7461165 -0.6568739 
0.13433939 -0.8628936 -0.48720384 
-0.0106180115 -0.34894302 -0.93708384 
0.031846896 -0.3283814 -0.9440082 
-0.31692487 -0.6472556 -0.6932668 
-0.44247046 -0.78221494 -0.43858835 
-0.11207963 -0.6825028 -0.7222383 
-0.21060196 -0.77637154 -0.59404886 
0.07348119 -0.8767544 -0.47529182 
0.16493648 -0.9791625 -0.118477285 
0.89461637 -0.3382802 -0.29193854 
0.20641716 -0.6358782 -0.743674 
-0.22030409 -0.7117364 -0.6670064 
-0.39467072 -0.33791742 -0.8544278 
-0.01624961 -0.17583255 -0.98428595 
-0.3777852 0.3709273 -0.8483463 
-0.5803887 -0.4937121 -0.64760894 
-0.31195563 -0.13670263 -0.9402107 
-0.15482022 -0.31813782 -0.9353177 
-0.18221372 -0.04368969 -0.9822879 
0.2115946 0.3361188 -0.9177429 
-0.26402897 0.34230113 -0.90173095 
-0.24331653 0.13224766 -0.960889 
0.02802329 -0.04846655 -0.9984317 
-0.049438294 0.1597017 -0.98592657 
-0.17566335 -0.29368404 -0.93962336 
-0.39501375 0.47285074 -0.7876398 
-0.12712705 0.28974625 -0.9486231 
-0.06556293 -0.23046228 -0.9708701 
-0.15718691 -0.06502671 -0.9854257 
-0.025589682 0.1296591 -0.9912284 
-0.62459975 0.04955719 -0.779371 
-0.46640444 -0.1582183 -0.87030673 
-0.049582645 -0.35765168 -0.9325379 
-0.061501555 -0.081392705 -0.99478287 
-0.28197744 0.45064706 -0.84699833 
-0.08582291 -0.26811567 -0.9595564 
-0.15895897 0.29630566 -0.94177234 
-0.24976923 0.015436574 -0.9681823 
0.5321272 0.109871484 -0.83950526 
0.49030986 -0.22011791 -0.8432938 
0.051183388 -0.4937921 -0.8680724 
0.024400711 0.11746971 -0.9927767 
-0.6612483 0.41157198 -0.6271836 
-0.57178867 0.0060127582 -0.8203789 
-0.70529675 -0.68249243 -0.1917304 
-0.5101954 0.07226367 -0.8570174 
-0.7206739 -0.009531041 -0.6932087 
0.490484 0.2543072 -0.8335187 
0.45225257 -0.012625819 -0.89180064 
-0.23338619 0.26417413 -0.93581146 
-0.23760882 0.083745554 -0.9677442 
0.27929932 -0.57956797 -0.7655671 
0.2618804 -0.5529908 -0.7909613 
-0.17911655 0.2765925 -0.9441472 
-0.15580794 0.23837167 -0.95859426 
0.3560368 0.46800873 -0.80882984 
0.9779079 -0.17037444 -0.12111505 
-0.052236393 0.61608636 -0.7859447 
-0.277577 -0.20143037 -0.9393492 
-0.4364711 0.0630872 -0.89750373 
-0.35429576 -0.13555487 -0.9252565 
-0.9106731 0.20982735 -0.35587507 
-0.63309735 -0.31576312 -0.7067401 
-0.5123353 -0.30001035 -0.8046777 
0.013103675 -0.48068812 -0.87679374 
-0.23899794 -0.6235993 -0.74431443 
-0.32597297 -0.6844434 -0.6521341 
0.3520996 -0.58489627 -0.7306999 
0.43582508 -0.009313313 -0.8999833 
-0.13233237 -0.21969464 -0.9665519 
-0.626397 -0.579165 -0.521723 
-0.33687288 -0.075499475 -0.93851835 
0.0150852045 -0.11020796 -0.9937941 
0.15526 -0.7839635 -0.6010787 
-0.60712785 -0.56536007 -0.5583582 
-0.49475706 -0.10527214 -0.86263156 
0.8930819 0.033222396 -0.44866574 
0.19668092 0.12918381 -0.97191983 
0.8130579 -0.5266299 -0.24818915 
0.30974182 0.21751313 -0.92560697 
0.8802751 -0.09584368 -0.46468267 
0.82985085 -0.20126978 -0.52042115 
0.57171416 -0.33083764 -0.75079244 
-0.21538207 0.24395353 -0.94556725 
0.41023263 0.39072475 -0.8240409 
-0.44423375 0.016601097 -0.8957571 
-0.20620586 -0.6552578 -0.72671616 
-0.21176255 -0.73696643 -0.64190114 
-0.55824614 -0.3266477 -0.7626682 
-0.6525233 -0.4749344 -0.5904666 
-0.2900979 -0.67886835 -0.6745228 
-0.4376485 -0.8490966 -0.29580218 
-0.51788414 -0.5020849 -0.6926087 
0.1186808 -0.65682054 -0.7446487 
0.04493324 -0.58208 -0.8118892 
0.09897291 -0.29979426 -0.94885606 
-0.64286053 -0.03972511 -0.7649525 
-0.56964445 -0.4844008 -0.6639738 
-0.18460815 -0.29134074 -0.9386376 
0.11119816 -0.37066528 -0.9220858 
-0.42850927 -0.5045646 -0.74952954 
-0.04023385 -0.114396915 -0.9926201 
-0.22503114 0.008263786 -0.97431654 
-0.023056446 -0.3853538 -0.9224808 
-0.13350528 -0.15130694 -0.9794298 
-0.52469754 0.3737997 -0.76483095 
-0.61079454 -0.37023944 -0.6998949 
-0.5902712 0.20426999 -0.7809314 
-0.17983934 -0.5357313 -0.82501507 
0.19983916 -0.41912496 -0.8856629 
-0.05323641 -0.052975457 -0.99717575 
0.013486781 0.17287838 -0.9848508 
0.21739899 0.22176611 -0.9505564 
0.48855174 -0.22342081 -0.84344566 
0.15777895 0.22451127 -0.9616136 
0.2816011 -0.2513681 -0.9260211 
0.19508699 -0.09356408 -0.9763129 
0.12615559 -0.12632565 -0.9839343 
-0.20676975 -0.2646319 -0.94192165 
-0.6248127 0.32382226 -0.71045643 
0.04111673 0.5270519 -0.8488379 
-0.5746701 0.16648063 -0.80127305 
-0.49595904 -0.41768622 -0.76129025 
-0.37018514 -0.88483685 -0.2828902 
-0.03264386 -0.47652322 -0.8785557 
-0.44112608 -0.50010103 -0.7451891 
-0.65535796 -0.18416396 -0.73252285 
-0.29418647 -0.4893622 -0.82096225 
-0.36312842 -0.5408888 -0.75866795 
-0.09699819 -0.8020864 -0.5892783 
-0.33214366 0.19661911 -0.9225083 
-0.30162045 -0.14165224 -0.94284666 
-0.059612595 -0.6712044 -0.73887146 
0.6607019 0.25531948 -0.70589304 
-0.67464554 0.59971786 -0.43033937 
0.08136848 -0.1696092 -0.9821466 
-0.09372564 -0.23067254 -0.968507 
0.31620207 -0.41473544 -0.85323554 
0.06898643 -0.43407583 -0.89823115 
0.084858224 -0.22917521 -0.9696793 
-0.13925946 -0.14384632 -0.9797526 
0.28307998 -0.34723413 -0.8940326 
0.09041381 -0.08469434 -0.99229646 
-0.3897122 -0.65322244 -0.6491724 
-0.01703783 -0.7657253 -0.64294213 
0.34553036 -0.43210712 -0.833002 
0.93750864 -0.024327904 -0.34711063 
0.57340497 -0.18251733 -0.79868275 
-0.1412962 -0.14323774 -0.97955006 
0.4557804 -0.2679376 -0.8488073 
0.7428609 -0.43801567 -0.5062609 
0.19812797 -0.47164258 -0.85924315 
-0.081763394 -0.895979 -0.43650475 
-0.6599602 -0.53217787 -0.53032005 
0.20353794 0.15011433 -0.9674906 
0.5208343 -0.6803298 -0.5156384 
0.7624842 -0.5387219 -0.35832497 
0.5324518 0.1291971 -0.8365425 
0.12771797 -0.66083026 -0.7395888 
-0.11334541 -0.8037402 -0.5840844 
-0.37503666 -0.8116645 -0.44782618 
-0.3861931 -0.5290197 -0.75564086 
-0.6243011 -0.31325763 -0.71562415 
-0.33561903 -0.3862041 -0.8591893 
-0.52021927 -0.30535957 -0.79757607 
0.37066182 -0.7546486 -0.5414014 
0.30287832 -0.4652793 -0.83173305 
-0.0059215766 -0.7411433 -0.6713208 
-0.29371303 -0.7824022 -0.5491626 
-0.2544706 -0.8914837 -0.3748353 
-0.0147800185 -0.12307841 -0.99228686 
0.066740386 -0.71454 -0.69640386 
0.036690556 0.6227421 -0.78156656 
0.06766023 0.35313246 -0.9331236 
0.09933452 -0.2796583 -0.95494705 
0.3387843 -0.5337224 -0.7748327 
0.3095525 -0.45076975 -0.8372479 
0.21206668 -0.5485648 -0.80876714 
0.4827674 -0.8650091 -0.13672958 
0.4049068 -0.03807977 -0.91356474 
-0.52745956 -0.49365404 -0.691442 
0.31362355 -0.091064036 -0.9451707 
-0.1837998 -0.2932276 -0.9382086 
0.0756368 -0.41824204 -0.90518105 
0.19377817 -0.45648053 -0.86837536 
-0.16075432 0.05484606 -0.9854694 
-0.13638544 -0.6986137 -0.7023802 
-0.68875015 -0.6722537 -0.27147403 
-0.41289985 -0.40214097 -0.8171882 
-0.6825483 -0.2463481 -0.6880701 
-0.0532991 0.084418006 -0.99500394 
0.47233754 0.4563186 -0.7541026 
0.0916801 0.7262883 -0.6812489 
-0.2743151 0.20185357 -0.9402161 
-0.81427103 0.44071025 -0.37780583 
0.082699545 0.29444793 -0.9520826 
0.25334358 -0.9457478 -0.20341662 
-0.83997536 -0.08311748 -0.53622115 
0.052279837 -0.3469567 -0.9364229 
0.14547284 -0.6554967 -0.74105453 
-0.46248633 -0.6198706 -0.6339297 
0.28959608 -0.5374437 -0.7920155 
-0.66316056 -0.25538415 -0.70356023 
0.057636008 0.6152025 -0.78625953 
-0.40748647 -0.56239605 -0.71948975 
0.37002417 -0.27022076 -0.8888549 
0.43854973 -0.16511333 -0.88340926 
-0.687371 -0.66328937 -0.2959194 
-0.54761845 -0.5686737 -0.6137787 
-0.8732321 -0.184096 -0.45119214 
-0.3133185 -0.26441836 -0.91209346 
-0.33109 -0.3885973 -0.8598673 
0.39365515 0.020954859 -0.9190194 
0.5321571 0.2466174 -0.8099312 
-0.31496325 0.19039357 -0.92981106 
-0.22953247 0.4548893 -0.8604596 
-0.5676672 0.58375454 -0.58050376 
-0.32674766 -0.5905898 -0.73786163 
-0.27783564 -0.09754643 -0.95566314 
0.59706515 0.11705381 -0.7936067 
0.7768771 -0.10833748 -0.6202621 
0.5001676 -0.4045816 -0.7656019 
0.67775905 0.13285927 -0.7231813 
0.798875 -0.44310033 -0.406769 
-0.5360685 -0.5137194 -0.6698679 
0.4359728 -0.27209896 -0.8578403 
0.10269969 -0.55942065 -0.8224971 
0.24984567 -0.8212898 -0.5128942 
0.79414225 -0.2264979 -0.5639477 
0.2738346 0.105546735 -0.95596784 
-0.46528557 -0.28963742 -0.8364326 
-0.5078608 0.80490977 -0.30691656 
-0.14071527 0.88809043 -0.43760106 
0.052858397 0.4206452 -0.9056842 
-0.2678034 0.695363 -0.6668972 
-0.93080974 -0.015516114 -0.36517465 
-0.4956687 0.062459268 -0.86626285 
-0.024088686 -0.37343785 -0.9273424 
0.3396366 -0.12749824 -0.93187517 
0.77888995 -0.28743425 -0.5574156 
0.76593447 0.62377757 -0.15571108 
0.64320296 0.32440096 -0.6935806 
0.72790176 -0.061790433 -0.6828917 
0.4226284 -0.55399764 -0.717267 
0.10251883 -0.3050747 -0.9467942 
0.42095342 -0.22012277 -0.87996835 
-0.38626835 0.05854288 -0.92052686 
-0.0353347 -0.2527619 -0.96688306 
0.29393572 -0.5326496 -0.79365385 
-0.64604133 -0.036918823 -0.7624091 
-0.6083648 -0.57531583 -0.5467211 
-0.8586685 -0.23463872 -0.45566785 
-0.9614484 -0.27380502 0.025456544 
-0.88215464 -0.30572104 -0.35824287 
-0.16891547 -0.34410924 -0.92361057 
-0.7193988 -0.27463362 -0.6379983 
0.09021461 -0.41505936 -0.9053105 
0.06576823 -0.64589876 -0.760585 
-0.21596749 -0.4027199 -0.8894801 
-0.083107434 -0.08386578 -0.9930054 
0.36351913 -0.08775298 -0.9274445 
0.6698221 -0.30421096 -0.6773434 
-3.4295357e-05 -0.6818048 -0.73153424 
0.4587394 -0.56355786 -0.686994 
0.10676561 -0.3231775 -0.9402965 
0.7414801 -0.038385376 -0.66987604 
0.66326207 -0.28575596 -0.6916841 
0.5324239 -0.3387887 -0.77572364 
-0.26457095 -0.5280436 -0.80695236 
-0.26249754 -0.33079645 -0.90645945 
0.06857945 0.10131881 -0.99248743 
-0.24228117 -0.35945937 -0.90115976 
-0.2116156 -0.07128645 -0.97474974 
-0.33891395 -0.033911623 -0.94020605 
-0.03329497 0.60609984 -0.7946915 
0.122621514 -0.2502597 -0.96038234 
-0.05926627 0.13573456 -0.98897105 
-0.07173314 -0.36043832 -0.93002075 
-0.44960532 0.20228587 -0.8700205 
0.49823377 0.2671719 -0.82485294 
0.09398591 0.33594957 -0.9371791 
-0.47773463 0.27315405 -0.83495903 
-0.131188 -0.095009595 -0.98679423 
0.06942849 -0.23331796 -0.9699188 