# OOMMF: rectangular mesh v1.0
# Segment count: 1
# Begin: Segment
# Begin: Header
# Desc: Time (s) :  8.920000000000024e-07
# Title: m
# meshtype: rectangular
# meshunit: m
# xbase: 2e-09
# ybase: 2e-09
# zbase: 5e-10
# xstepsize: 4e-09
# ystepsize: 4e-09
# zstepsize: 1e-09
# xmin: 0
# ymin: 0
# zmin: 0
# xmax: 1.024e-06
# ymax: 1.024e-06
# zmax: 1e-09
# xnodes: 256
# ynodes: 256
# znodes: 1
# ValueRangeMinMag: 1e-08
# ValueRangeMaxMag: 1
# valueunit: 
# valuemultiplier: 1
# End: Header
# Begin: Data Text
-0.7136184 -0.5397739 -0.44653445 
-0.5600337 -0.11610178 -0.8202942 
-0.6187545 -0.69516253 -0.36591268 
-0.07324381 -0.41814792 -0.90542126 
0.64598024 -0.47323567 -0.59896386 
0.96675384 -0.008850702 -0.2555557 
0.702415 0.09658218 -0.70518446 
0.16849989 -0.86563814 -0.47146425 
0.29322284 -0.94074327 0.1703598 
0.6455803 -0.6920663 0.3229093 
0.14142841 -0.76463825 -0.62875 
0.58937126 -0.7510819 0.297519 
0.6200827 -0.7845318 -0.0027166237 
0.4548542 -0.48796472 -0.74498206 
0.15352127 -0.8715793 -0.46559715 
-0.51757306 -0.7035271 -0.4869987 
0.367227 -0.5572683 -0.7447123 
0.29834974 -0.4734917 -0.82872987 
0.4296058 -0.80542815 -0.40831923 
0.27454448 -0.9613519 0.020688368 
-0.0456497 -0.9862683 -0.15871672 
-0.6434585 -0.6379723 -0.42302796 
-0.70118576 -0.0011352535 -0.7129778 
-0.7184209 -0.1387954 -0.6816211 
-0.20442475 0.0751096 -0.9759965 
-0.23316427 -0.4348863 -0.8697749 
-0.8094468 -0.09937032 -0.5787241 
-0.058486633 -0.7372359 -0.6730993 
0.3545859 -0.9235929 -0.14575729 
-0.8567039 -0.34734356 0.38132802 
-0.5624784 -0.6893927 0.45646012 
-0.61419016 -0.53782463 -0.57750773 
-0.70159066 -0.40948933 -0.58317167 
-0.93371195 -0.07085684 -0.3509434 
0.17013791 0.08447063 -0.9817932 
0.35235128 -0.49334565 -0.7952727 
-0.7437922 -0.48270065 -0.4623563 
-0.6118426 -0.56204355 -0.5565571 
-0.33448637 -0.93639976 -0.106181666 
-0.25810266 0.10297541 -0.96061397 
-0.41672778 0.6013231 -0.68172467 
-0.19123493 -0.4843584 -0.8537132 
-0.22831516 -0.9477569 0.22277611 
-0.07377578 -0.95793176 -0.2773518 
0.362154 -0.48758242 -0.794423 
-0.036102686 -0.47270128 -0.880483 
-0.5710673 -0.02140091 -0.82062435 
-0.45349696 -0.0458496 -0.89007777 
-0.4785554 -0.45304137 -0.75215566 
-0.095833875 0.29580584 -0.95042884 
-0.22762915 -0.12127289 -0.9661666 
-0.13440584 0.2052196 -0.9694432 
-0.62252885 0.17160812 -0.76355 
-0.34009153 0.36393404 -0.8671158 
0.2787642 -0.72448236 -0.63040924 
0.97959596 0.13931228 -0.14485872 
-0.37301528 0.16834624 -0.9124249 
-0.5841998 0.1295661 -0.80120116 
-0.04804448 -0.5930495 -0.8037314 
0.32473537 -0.4812814 -0.81419605 
0.42065778 0.020532914 -0.906987 
0.19926816 -0.41288796 -0.88871574 
0.25961503 -0.32351613 -0.9099107 
0.59003127 0.07037988 -0.8043071 
0.5811816 0.14383829 -0.80096096 
0.8099529 0.51865077 -0.27382082 
0.9045652 0.19951351 -0.37677056 
0.29542977 0.119764864 -0.9478279 
0.2668277 -0.6418119 -0.7189441 
0.3358404 -0.55266804 -0.7627381 
0.08039455 -0.7732949 -0.628929 
-0.12216061 -0.87438214 0.4696092 
0.2623185 -0.17830436 -0.9483653 
0.47919673 -0.31673455 -0.81856567 
0.63395125 -0.219514 -0.7415656 
0.75901246 -0.60061014 -0.25133198 
0.23847774 0.20411478 -0.9494555 
-0.044102646 0.6156865 -0.78675616 
-0.23591696 0.38073426 -0.8940832 
0.35068324 -0.23197177 -0.9073095 
0.18128496 -0.94385695 -0.2761702 
0.2976258 -0.29098558 -0.9092559 
0.12012518 -0.60610956 -0.7862577 
-0.10313964 -0.46925834 -0.87701696 
-0.29118016 -0.78280824 -0.54993224 
-0.41410908 -0.7382014 -0.5325152 
-0.62858653 -0.50224996 -0.59382147 
-0.22360018 -0.6665321 -0.71115255 
-0.485431 -0.15301464 -0.86078066 
0.30661413 -0.48897064 -0.8166367 
-0.29503337 -0.9381737 -0.18106739 
-0.8745043 -0.18843193 -0.44691804 
0.024948163 -0.83312076 -0.5525283 
0.16607834 -0.93349004 -0.3178276 
0.89477116 -0.37266734 -0.24597497 
-0.08681244 -0.80087924 -0.5925 
0.71721894 -0.256252 -0.6480216 
0.4828929 -0.44339934 -0.75512356 
0.5802202 -0.72111917 -0.3785919 
0.4696947 -0.7492362 -0.4669391 
0.7503389 -0.54023904 0.38096365 
0.41767773 -0.66559637 -0.6184875 
-0.0059569487 -0.6830334 -0.7303629 
0.3120349 -0.43572944 -0.8442595 
-0.5312518 -0.18426725 -0.8269324 
-0.73887926 0.11343437 -0.6642214 
-0.2816104 -0.24341166 -0.92814136 
-0.58892834 -0.31571305 -0.74396825 
-0.85357535 0.015474672 -0.52073956 
-0.36469665 0.13540141 -0.921229 
0.369911 0.14690553 -0.9173792 
-0.39822572 -0.56029046 -0.72628576 
0.12964456 -0.08358543 -0.9880313 
0.7240572 -0.33683902 -0.60189766 
0.5577497 -0.692416 -0.45768493 
-0.004319088 -0.7976161 0.60314995 
0.0055773747 -0.9973415 -0.07265647 
-0.33150196 -0.7419068 0.5828214 
0.067112476 -0.9330946 0.35331357 
0.24676755 -0.91239214 -0.32656762 
0.5155869 -0.8089749 -0.28236485 
-0.1135248 -0.049890302 -0.9922818 
0.07937265 -0.3873517 -0.918509 
0.22280063 -0.15031424 -0.9632059 
0.079062365 0.79237187 -0.60489345 
0.47560802 -0.17271124 -0.86253583 
-0.18115936 -0.27471063 -0.9443069 
0.86139745 -0.46158412 -0.2119779 
0.4454629 -0.89527315 0.006986563 
0.32664865 -0.3496516 -0.87809145 
-0.32848892 -0.46658036 -0.8212174 
0.060225476 -0.68337977 -0.72757477 
-0.63753337 -0.7431541 -0.2031583 
-0.2578001 -0.7852157 -0.5630057 
0.090389386 -0.8822638 -0.46199602 
-0.3754055 -0.87584955 -0.3032463 
0.30152693 -0.7840742 -0.5425027 
0.0625624 -0.6614249 -0.7473976 
-0.43991616 -0.72348577 -0.5320172 
-0.3888784 -0.8214295 -0.4171656 
-0.86740834 -0.16632256 -0.46897712 
-0.08750457 -0.04433966 -0.99517685 
-0.22241184 -0.49890396 -0.8376323 
0.8406505 -0.06400423 -0.5377827 
0.7262759 -0.5348834 -0.43176737 
0.7043917 -0.5899277 0.3947376 
-0.9012857 -0.08110813 -0.42556497 
-0.17233886 -0.35633752 -0.9183262 
-0.08218238 0.1846313 -0.9793658 
0.27041873 -0.28975138 -0.91810554 
0.39454406 -0.3183095 -0.8619827 
0.31952748 0.29317567 -0.9010828 
0.5817946 -0.53669095 -0.61112833 
0.7297799 -0.5735478 -0.37210807 
0.35974234 -0.68235785 -0.63637507 
0.47449195 -0.72472787 0.4996269 
-0.47401848 -0.61201614 -0.6330425 
0.050919253 -0.39242113 -0.91837525 
-0.45379555 -0.25210407 -0.85470074 
-0.42475423 -0.39108604 -0.8164776 
0.3675948 0.78601277 -0.49704918 
0.23950376 0.11319952 -0.96427375 
0.15511902 -0.39388102 -0.90597785 
0.07226853 -0.46728647 -0.8811474 
-0.113725215 0.035544075 -0.99287623 
0.11079435 -0.64031976 -0.7600758 
0.5075929 -0.8589492 -0.067496635 
0.08343905 -0.9770589 0.1959437 
0.34446383 -0.7811824 0.52067155 
0.38640097 -0.915794 0.10961583 
0.5291139 -0.83746046 0.13674235 
0.16589972 -0.9125717 -0.3737516 
-0.2932045 -0.42244658 -0.8576538 
-0.47754866 -0.870265 -0.12077335 
-0.4999378 -0.8382782 -0.2176051 
-0.8211215 -0.2983001 -0.4865968 
0.04599664 -0.12214458 -0.9914459 
0.07175256 -0.2508458 -0.96536416 
0.6987262 -0.17456523 -0.69376427 
0.8957444 -0.38079524 -0.22942768 
-0.02894859 -0.22652853 -0.97357434 
0.008403232 -0.86272085 -0.50561064 
-0.294851 -0.87856877 -0.37573922 
-0.16845144 -0.32222372 -0.9315557 
-0.3870443 -0.92194194 0.0148228025 
-0.16949515 -0.89698815 -0.4082691 
-0.17719 -0.09096654 -0.9799637 
-0.4231617 0.6194557 -0.6612178 
0.37889662 -0.6130446 -0.6932632 
0.0016920747 -0.45862958 -0.8886259 
-0.05086263 -0.52029413 -0.8524712 
-0.3870911 -0.5534602 -0.73745674 
-0.10980961 -0.83742267 -0.5354113 
0.663739 -0.7458183 -0.056618173 
-0.07834689 -0.9968728 0.010313932 
-0.18639624 -0.7990509 -0.57164156 
0.3004373 -0.7333921 -0.6098143 
0.5867548 -0.767624 -0.25782228 
0.62770814 -0.59306186 -0.5042422 
0.63110596 -0.74743646 0.20747049 
-0.2375664 -0.9704717 -0.041797895 
0.3406406 -0.87918806 0.3331554 
0.36716616 -0.71638554 0.59327966 
-0.60897535 -0.6756505 -0.41550636 
-0.0030398283 -0.9820464 -0.18861532 
0.087599866 -0.84065455 -0.5344401 
0.29293585 0.17817539 -0.9393839 
0.17192872 -0.46509922 -0.8684028 
0.10211794 0.18807574 -0.9768313 
-0.28153068 0.2123783 -0.9357542 
-0.3710691 -0.122122236 -0.92054003 
0.338941 0.5254449 -0.78040165 
0.77422494 0.13844426 -0.6175831 
-0.030748192 -0.09160312 -0.9953208 
-0.5277474 0.6304816 -0.56918865 
0.4910339 -0.11947493 -0.86290866 
-0.18004467 -0.37823704 -0.9080313 
0.118281856 -0.34358948 -0.93164146 
-0.2081212 -0.82562923 -0.5244254 
0.32163978 -0.889826 -0.32366297 
-0.17985888 -0.9603064 -0.213219 
-0.15591958 -0.9097146 -0.38484895 
-0.12542859 -0.9691302 -0.2122598 
0.17281187 -0.33547035 -0.92606467 
-0.1391586 -0.06250424 -0.9882956 
0.54986215 0.002075728 -0.8352529 
0.2316673 -0.39656112 -0.8882958 
0.4180241 -0.38496187 -0.82283664 
-0.41773495 -0.20548554 -0.8850272 
-0.2207762 -0.5489714 -0.80615646 
-0.14995947 -0.6602836 -0.73589253 
-0.787991 0.020386431 -0.61534923 
-0.84682024 -0.31417206 -0.42917544 
0.66335917 -0.7468823 -0.046060096 
0.07887036 -0.99562657 -0.05007186 
-0.35939437 -0.35556838 -0.8627901 
-0.9198985 -0.07472185 -0.3849721 
-0.7799481 -0.41690925 -0.46676308 
0.30366987 -0.76226044 -0.5716149 
0.29763544 -0.40017128 -0.8667619 
-0.010365043 -0.13808887 -0.9903657 
0.2410824 -0.5476417 -0.801229 
0.6317924 0.27326086 -0.7253737 
0.7046735 -0.43384206 -0.5614413 
0.79871315 -0.60170865 0.0020524114 
0.47576022 -0.8172083 0.32530424 
0.23881857 -0.9667629 -0.09129707 
-0.10349899 -0.9211912 -0.37509304 
0.46961826 -0.50648993 -0.72313666 
0.28420022 -0.6431757 -0.7110241 
0.57649547 -0.12497057 -0.80748713 
0.3212877 -0.08431164 -0.94322103 
0.38832977 -0.087403975 -0.9173662 
0.07613691 0.10777881 -0.9912552 
-0.3257061 0.4090909 -0.85238504 
0.022866778 0.73669225 -0.67584145 
-0.6117257 -0.15227702 -0.77627534 
-0.5591003 -0.18262048 -0.8087377 
-0.565409 0.007935195 -0.8247726 
-0.22549152 0.35663044 -0.90662473 
0.3515093 -0.36877388 -0.8604924 
0.5671346 -0.5220832 -0.63701457 
0.52249455 -0.19700542 -0.8295712 
-0.40683845 -0.8850432 -0.2262327 
0.012547822 -0.9654725 0.26020262 
-0.26219496 -0.7890996 -0.5554958 
0.34069607 -0.46448356 -0.81742364 
0.82577527 -0.5423955 -0.15460439 
0.5221676 -0.820666 0.23205277 
0.6776447 -0.73517543 0.017739054 
-0.10276079 -0.8593221 -0.50100476 
-0.25639498 -0.5695011 -0.78098017 
0.16759919 0.12075142 -0.97843224 
0.15672581 -0.74973017 -0.6429167 
-0.2409464 -0.69618815 -0.67621523 
0.30693316 -0.78060627 -0.5444685 
0.08420805 -0.46612614 -0.88070166 
-0.08470944 -0.8390368 -0.53744 
-0.50537366 -0.012252398 -0.8628137 
-0.38905305 -0.6803935 -0.62104946 
-0.44293275 -0.027448567 -0.8961346 
-0.33268794 -0.17117321 -0.9273718 
-0.35562757 0.52655363 -0.7721855 
0.123914056 0.13373074 -0.9832403 
0.51892376 -0.7053886 -0.48285115 
-0.4641207 -0.6019828 -0.64977604 
-0.64710635 -0.7618561 -0.02878817 
-0.72477454 -0.37861142 -0.57563466 
-0.36275795 -0.5147759 -0.7767963 
-0.2215044 -0.20047815 -0.9543293 
-0.5002706 0.15571879 -0.85175174 
-0.11112258 -0.0126313 -0.99372643 
-0.4805777 -0.43327832 -0.76244026 
-0.68755424 -0.32403028 -0.6498258 
-0.35888436 -0.41731974 -0.834893 
-0.22942826 -0.31934205 -0.9194473 
-0.6389102 0.14218678 -0.756027 
0.16376285 -0.33681595 -0.92721987 
0.23992732 0.014375816 -0.97068447 
0.69305485 -0.68006635 -0.23913361 
-0.03412006 -0.47094363 -0.88150316 
-0.19896245 -0.30233312 -0.9322064 
-0.3805672 -0.49612784 -0.7804011 
-0.42938906 -0.36783174 -0.8248182 
-0.5683218 -0.79663897 -0.20585625 
0.18780749 -0.44211724 -0.8770752 
-0.53345126 -0.012005707 -0.8457456 
-0.4415571 0.033077985 -0.8966233 
-0.4730455 0.24349464 -0.8467221 
-0.37893116 0.30543554 -0.8735676 
-0.25335315 -0.33373573 -0.9079828 
0.3293577 0.6477065 -0.6870225 
-0.27197304 0.44875583 -0.85126317 
-0.060870167 -0.68666035 -0.7244256 
-0.15428984 -0.23245972 -0.9602902 
0.24364112 0.016835256 -0.96971935 
0.4074032 -0.22930765 -0.8839914 
0.66912174 -0.40279934 -0.62452286 
-0.07872722 -0.112124756 -0.9905706 
0.65505356 -0.110740885 -0.7474231 
-0.10161414 -0.11105148 -0.9886062 
-0.35249272 -0.2671351 -0.8968767 
0.3309146 0.34916708 -0.87668586 
0.042863753 0.68219453 -0.72991323 
0.6193879 -0.18967652 -0.76182777 
0.2371581 -0.7999331 -0.55123794 
0.83732367 0.27217332 -0.4741422 
0.8956288 -0.26149365 0.35981947 
0.823775 -0.46077555 -0.3302736 
0.48434132 -0.22914438 -0.8443378 
0.18298508 -0.40653253 -0.89512444 
0.8900207 -0.13714753 -0.43480295 
0.59462976 0.09401118 -0.79848444 
0.70092875 -0.08096218 -0.70862126 
0.84376144 0.3913631 -0.36728933 
0.38167357 0.23874605 -0.892931 
0.33237058 0.26052123 -0.9064538 
0.062325224 -0.16170931 -0.98486835 
-0.00078699086 -0.08599183 -0.9962956 
0.6769792 -0.33575377 -0.65495694 
0.20500459 -0.16522753 -0.964714 
0.13430363 -0.81154865 -0.5686399 
0.18977179 -0.73265415 -0.6536089 
0.039457973 -0.4786291 -0.87713015 
-0.18374187 0.76023245 -0.62312555 
-0.1323228 -0.18763198 -0.9732857 
0.06543059 -0.65975326 -0.74862844 
-0.09575126 -0.49010214 -0.86639005 
-0.03376328 -0.7344078 -0.67786825 
-0.014621107 -0.34902522 -0.93699926 
0.63444805 -0.07592773 -0.7692274 
0.5917913 -0.6496751 -0.47718504 
0.45558673 -0.40885735 -0.7907442 
0.86592615 0.119673625 -0.48564416 
0.36739346 -0.7386327 -0.56519365 
0.80942154 -0.016128479 -0.5870067 
0.70476586 -0.5261945 -0.4758408 
0.22871314 -0.38027442 -0.89614826 
-0.3567359 0.11060955 -0.9276342 
0.17975833 0.36767358 -0.9124161 
-0.4524823 -0.15082456 -0.87892646 
-0.3393778 0.062240534 -0.93858874 
-0.16017498 0.037043914 -0.98639333 
-0.16648717 -0.19584079 -0.9663998 
0.5483476 -0.4317816 -0.7161561 
0.35539824 -0.12409412 -0.9264409 
0.47469518 -0.5419845 -0.69348204 
-0.27308074 0.09133486 -0.9576455 
0.507159 -0.22205348 -0.83275574 
0.12607332 -0.5957745 -0.7931951 
0.2614957 -0.43670297 -0.8607616 
-0.22578236 -0.77799517 -0.5862986 
-0.0006876696 -0.9353967 -0.35359973 
0.0019756977 -0.96828264 -0.24984978 
0.17802815 -0.9420639 0.28429174 
-0.15196359 -0.49299175 -0.85666 
-0.81734365 -0.4976017 -0.29041693 
0.14680232 0.12361278 -0.9814117 
0.38156015 -0.15397006 -0.9114303 
0.07515755 0.060524095 -0.9953332 
-0.038342245 0.6348208 -0.7717076 
-0.27263588 -0.8086846 -0.52124757 
-0.34714985 -0.8947931 -0.2807709 
0.047424626 -0.7656825 -0.641468 
0.620339 -0.6026972 -0.5019319 
-0.05825812 -0.5959872 -0.80087775 
-0.34865367 -0.5785373 -0.73738414 
-0.56949276 -0.15233873 -0.80775684 
0.23127304 -0.3166045 -0.9199317 
0.12325416 -0.6309553 -0.76596606 
-0.62243414 -0.57329977 -0.53282577 
-0.2738272 0.32345396 -0.9057573 
0.30968347 -0.28422925 -0.90736425 
-0.0805305 -0.79433537 -0.6021182 
0.026026912 -0.95568293 -0.2932451 
-0.15760712 -0.98215944 -0.10258134 
-0.7148326 -0.18922321 -0.67320806 
-0.2662025 0.24194525 -0.9330588 
-0.0635094 -0.05685351 -0.9963605 
0.5384467 -0.69150364 -0.48155773 
-0.038357913 -0.6531776 -0.7562325 
0.36067432 -0.85585034 -0.37072137 
-0.066702574 -0.38969377 -0.9185258 
-0.02980414 -0.71682507 -0.6966158 
0.3174144 -0.1904251 -0.9289707 
-0.27497157 -0.39983723 -0.8743689 
-0.4055901 -0.29694557 -0.86447686 
-0.16552635 -0.70827854 -0.68625265 
0.05971913 -0.70907265 -0.702602 
0.39499605 -0.74402195 -0.53889656 
0.33671156 -0.6200658 -0.708621 
-0.3035338 -0.94952464 -0.079184934 
-0.3538241 -0.60625136 -0.71222734 
-0.47482938 -0.0055882926 -0.8800602 
-0.26223564 0.17437173 -0.94911915 
-0.67553926 0.07003451 -0.73399043 
-0.24253386 -0.0057671214 -0.97012585 
0.53219354 -0.13386904 -0.835972 
-0.056199305 -0.2828955 -0.9575029 
0.7722693 -0.28066882 -0.5699345 
0.91124266 -0.30985725 -0.2713399 
0.6142823 -0.7344887 -0.28841576 
0.375462 -0.6834747 -0.6260117 
0.08993491 -0.7683769 -0.63364726 
-0.07180675 -0.73177034 -0.6777581 
0.53000677 -0.6958751 -0.48461393 
0.683298 -0.68257767 -0.25921354 
-0.48665836 -0.7963536 -0.35914457 
-0.29663557 -0.20799403 -0.93206537 
-0.60962135 -0.25747898 -0.749711 
-0.09828092 0.010180064 -0.9951067 
-0.23763604 0.08905705 -0.9672632 
-0.35716555 0.13151164 -0.92473644 
-0.35713413 -0.3242348 -0.87597203 
-0.248205 -0.1664509 -0.9542999 
0.80069155 0.38337627 -0.46034297 
0.25293738 0.20252107 -0.9460486 
0.11665176 -0.5302344 -0.83978796 
-0.06958705 -0.5356992 -0.8415367 
-0.27601877 -0.5346856 -0.79870206 
-0.014077928 -0.49184886 -0.87056684 
-0.60312563 -0.75467825 -0.25826395 
-0.15754245 -0.12956408 -0.97897583 
-0.080166884 0.67431927 -0.7340755 
0.82086337 -0.19072592 -0.5383372 
0.33842707 -0.5909599 -0.73227966 
0.94523394 0.24017486 -0.22101812 
0.74313647 0.4830563 -0.46303883 
0.31929222 -0.7516705 -0.5770996 
0.15248837 -0.8002613 -0.579939 
-0.24471183 -0.94496423 -0.21716093 
0.5062141 -0.778513 -0.37103212 
-0.18644835 -0.30218512 -0.9348375 
0.8033162 -0.111562304 -0.5850102 
0.36168608 -0.90556294 -0.22167304 
0.50661725 -0.8610832 0.043297123 
0.43136555 -0.67315805 -0.6006514 
0.6318231 -0.7238674 -0.2771564 
0.69501966 -0.67849237 -0.23789887 
-0.40733588 -0.5404972 -0.73616594 
0.8211467 0.01207605 -0.57058936 
0.5578724 -0.092557654 -0.8247493 
0.23624365 -0.05143167 -0.97033185 
-0.047301147 -0.15679516 -0.98649776 
-0.4111954 -0.024854511 -0.9112084 
-0.018284786 0.19593288 -0.9804468 
-0.24821055 0.67860293 -0.6912956 
0.59755784 0.24251366 -0.7642721 
0.7496888 -0.009706758 -0.66171944 
0.2547609 -0.009632307 -0.96695614 
-0.17260814 0.11659985 -0.9780649 
-0.06257196 -0.061487757 -0.9961446 
-0.046190735 -0.40872657 -0.9114873 
-0.18209445 -0.84614325 -0.50088257 
-0.52160436 -0.66714025 -0.5318391 
0.10670534 -0.6339971 -0.76593846 
-0.056855787 -0.6521863 -0.75592375 
-0.007250712 -0.51406085 -0.8577231 
0.17588851 -0.042909916 -0.9834745 
0.04073483 -0.4956847 -0.8675468 
-0.55141664 -0.025524994 -0.83383954 
-0.28397667 -0.21541603 -0.9343197 
0.18242319 -0.24678646 -0.9517448 
0.06413606 -0.09350844 -0.99355066 
-0.31503928 -0.70766926 -0.63241965 
-0.5565024 -0.09381392 -0.82553256 
0.0030421074 -0.463746 -0.88596296 
0.012466649 -0.9348774 -0.3547521 
-0.23161079 -0.90095836 -0.3669202 
-0.10304297 -0.26473865 -0.958799 
-0.6253553 -0.48985866 -0.6074285 
-0.45947337 -0.30232966 -0.83515334 
-0.8464908 0.4368213 -0.30436924 
-0.36347798 0.24280408 -0.8994054 
-0.052794665 -0.18069924 -0.98212045 
0.32221246 -0.28048846 -0.90416014 
0.116497815 -0.21331777 -0.9700123 
-0.061633557 -0.32605523 -0.94333947 
-0.0029812262 -0.11593336 -0.9932525 
0.5919363 -0.29736313 -0.7491239 
0.35983124 -0.5774592 -0.7328454 
0.6685571 -0.7312514 -0.13528794 
-0.08019682 -0.82790875 -0.5550996 
-0.43248278 -0.56207913 -0.7050005 
0.3890955 -0.226638 -0.892883 
0.5301807 -0.24335614 -0.8122108 
0.09021584 -0.6477848 -0.7564629 
-0.048571 0.34443918 -0.9375514 
0.46367264 -0.21396607 -0.8597827 
0.6195995 0.42744374 -0.65832245 
0.1860715 0.67702764 -0.7120471 
0.01486886 0.87707317 -0.48012668 
-0.4212866 -0.3214222 -0.8480599 
-0.55459493 0.21540897 -0.8037559 
-0.08515995 -0.4835093 -0.87118685 
-0.24030595 -0.63995963 -0.7298663 
-0.08435223 -0.19055824 -0.9780451 
0.3995359 -0.74148524 -0.5390463 
0.65989393 -0.35997787 -0.6595119 
0.28421834 -0.044917066 -0.95770687 
0.0012226704 -0.77640224 -0.6302367 
-0.35580757 -0.9319737 0.06947008 
0.010476839 -0.52181655 -0.85299337 
0.4663521 -0.6539737 -0.59567964 
0.086737595 -0.9473185 -0.30832493 
0.3605069 -0.70187926 -0.61432916 
0.40157118 -0.7309644 -0.55175316 
0.553 -0.05452495 -0.8313953 
0.2792896 -0.58505505 -0.7613856 
0.03150051 -0.32512513 -0.9451462 
-0.10713267 0.15539712 -0.9820257 
0.46360987 -0.10242274 -0.8800998 
0.13810731 -0.3454327 -0.92822564 
0.68323356 -0.24631467 -0.68740165 
-0.1771436 -0.1498924 -0.9727037 
-0.6087781 0.41785842 -0.6743765 
-0.3809827 0.36480442 -0.8495704 
-0.106260985 0.46693143 -0.87788594 
0.20305339 0.017906187 -0.979004 
-0.15947671 -0.26255137 -0.9516481 
0.27329376 -0.081437536 -0.95847714 
0.056982193 -0.717071 -0.694667 
-0.4335441 -0.6817147 -0.58932555 
-0.70616174 -0.2829842 -0.64904207 
-0.7780915 -0.46450958 -0.42285287 
-0.27883703 0.39064512 -0.8772949 
-0.037033346 0.10989916 -0.99325264 
0.5649687 -0.5817378 -0.5851423 
-0.31089735 -0.60930175 -0.72944796 
-0.72523385 -0.6819003 0.09511988 
0.27116862 -0.6493647 -0.71048796 
-0.7822952 -0.5118062 -0.3550613 
-0.7875606 0.038540855 -0.6150308 
-0.5422826 0.16153826 -0.82452106 
-0.23826501 -0.6259102 -0.7426078 
0.34834808 -0.0020900043 -0.93736297 
-0.39691305 0.77829075 -0.4865426 
-0.6035308 -0.028532103 -0.7968291 
-0.45492995 0.48780382 -0.74504113 
-0.3135119 0.18024608 -0.93232065 
-0.16256809 -0.1991317 -0.9663945 
0.15495564 -0.058151186 -0.98620856 
-0.14394094 -0.3126357 -0.93890357 
-0.5678668 0.47866756 -0.6696303 
0.083603 -0.6247529 -0.77633405 
-0.68835247 -0.62895906 -0.36136067 
-0.43323198 -0.3328727 -0.8375595 
0.026619274 -0.4525671 -0.8913329 
0.19085413 0.29809952 -0.9352601 
-0.16914143 -0.36286587 -0.9163621 
-0.009024611 -0.2462753 -0.969158 
-0.013375415 0.33938116 -0.94055384 
0.36023387 0.023260107 -0.932572 
0.3038055 -0.21516909 -0.9281188 
0.13771296 0.28915745 -0.9473243 
-0.08068017 0.020237325 -0.99653465 
-0.16540104 0.9857961 0.02913094 
-0.2949567 -0.096476465 -0.9506276 
-0.21347246 0.32715043 -0.92054456 
0.28530422 -0.2506146 -0.92509127 
0.14722013 0.056572177 -0.98748463 
0.48431072 -0.1539781 -0.86123985 
0.9006829 -0.2516831 -0.35415524 
0.84743387 -0.36959255 0.3811263 
0.8017415 -0.45241106 -0.3905573 
0.14870103 -0.9857556 -0.07857474 
0.4466936 0.014826881 -0.89456415 
0.82794553 -0.0501652 -0.55856043 
0.9060333 -0.15584671 -0.3934662 
0.020750267 0.0737299 -0.9970624 
0.049753312 0.4254394 -0.90361834 
0.13787195 0.34942922 -0.9267635 
-0.11883345 0.29384112 -0.94843876 
0.5344962 -0.18254307 -0.8252224 
0.51322067 -0.4094542 -0.7542891 
0.096963435 0.14694911 -0.98438007 
-0.097326964 0.09517183 -0.9906916 
-0.33114713 0.08440373 -0.9397966 
-0.05985243 -0.2183177 -0.97404057 
-0.5921564 -0.5101952 -0.6237402 
-0.26387796 0.0038199287 -0.9645486 
-0.010678245 -0.3529115 -0.9355958 
-0.66105604 -0.26874745 -0.7005568 
-0.1078705 -0.6417875 -0.75925815 
-0.012162627 -0.06736489 -0.9976543 
-0.1571369 0.36367655 -0.9181762 
0.6875082 -0.41983226 -0.5925144 
0.117865674 -0.8624743 -0.4921849 
0.6612525 -0.47968724 -0.5767541 
0.64345217 -0.2694386 -0.7164999 
0.19222766 -0.083545335 -0.9777877 
0.3692992 -0.025082031 -0.928972 
0.12131438 0.22383252 -0.96704805 
-0.28028002 0.24612668 -0.9278281 
-0.026757102 0.08027366 -0.99641365 
-0.04618976 0.57962465 -0.8135734 
0.42660695 0.4690726 -0.7732901 
0.011955276 0.6692908 -0.7429045 
0.03263897 0.58819294 -0.8080618 
-0.37142184 0.23761688 -0.89754343 
0.14863534 -0.4219467 -0.89435375 
0.35059336 0.0090154065 -0.93648446 
0.31561086 0.120028675 -0.94126666 
0.2609908 -0.048897468 -0.96410215 
-0.08307006 0.5885974 -0.804147 
0.31006765 -0.19819811 -0.92982554 
0.5852301 -0.514686 -0.6265814 
0.026079651 -0.74149245 -0.6704542 
0.6069857 -0.54298836 -0.58028615 
0.05467283 -0.8439411 -0.53364253 
-0.08084493 -0.9330945 -0.3504265 
0.113225676 -0.48280796 -0.8683757 
-0.42627558 -0.6093058 -0.6686072 
-0.019512488 0.031879272 -0.9993013 
0.56332785 0.33900237 -0.7534846 
-0.46354893 0.6111511 -0.6415737 
0.2084025 0.04699334 -0.9769136 
0.32068142 -0.8180913 -0.47737855 
-0.2785442 -0.8501158 -0.4468964 
-0.096357726 -0.55759984 -0.8244984 
0.25366914 -0.5931182 -0.76410913 
-0.19714008 0.00304038 -0.9803707 
-0.11223836 -0.33318546 -0.93615705 
0.08076987 -0.5528753 -0.8293403 
-0.30613288 -0.2704675 -0.91275966 
-0.10793184 0.23273519 -0.9665326 
-0.16795674 -0.3409518 -0.9249554 
-0.09353444 0.00877585 -0.99557745 
0.2672515 0.13271715 -0.9544437 
0.22898449 -0.6339331 -0.7387117 
0.02985866 -0.7088053 -0.704772 
-0.12187998 -0.91525286 -0.3840019 
0.113815226 -0.30396825 -0.9458591 
0.1923035 -0.24130547 -0.9512051 
0.18595032 0.3888068 -0.90235895 
-0.28145948 -0.44979346 -0.847624 
-0.09352438 -0.58682835 -0.8042921 
-0.06805167 -0.4725587 -0.87866795 
-0.08467364 -0.30480778 -0.94864255 
0.57550925 -0.14506672 -0.8048259 
-0.22874662 0.02550778 -0.97315174 
-0.3120731 -0.11145984 -0.94349736 
-0.7747721 0.32507128 -0.54227006 
-0.6308642 -0.43582013 -0.6419278 
-0.19082104 -0.28331146 -0.9398522 
-0.07583681 -0.31153968 -0.94720215 
-0.17898701 -0.22758457 -0.95716715 
0.0033897164 -0.29196024 -0.95642453 
-0.25167143 -0.10589701 -0.96200174 
-0.09767123 0.041705105 -0.99434453 
-0.53855306 0.43997875 -0.71859545 
-0.6486783 -0.01675882 -0.7608783 
-0.53404635 -0.33033916 -0.7782485 
-0.51849246 -0.06320165 -0.8527433 
0.007265141 -0.6586022 -0.7524563 
0.50670636 -0.16821596 -0.8455484 
0.3564906 0.033204064 -0.9337087 
0.10998101 -0.97785187 -0.17807294 
-0.08676697 -0.6756364 -0.7321114 
0.27774504 -0.39744744 -0.8745817 
0.011602839 -0.53479594 -0.8449016 
0.8303758 -0.29430553 -0.47313896 
0.8972073 -0.19039242 -0.39845946 
0.4263604 -0.8256798 -0.36941826 
-0.59316266 -0.67482066 -0.4390618 
-0.050543647 -0.08663226 -0.99495745 
-0.31892663 -0.6144729 -0.72160167 
-0.26760516 -0.5637881 -0.7813645 
-0.7371678 0.15864357 -0.6568226 
-0.7498281 -0.14835955 -0.6447848 
0.32705638 -0.34288913 -0.8806027 
-0.26136968 0.17871293 -0.9485503 
-0.22067101 -0.108798735 -0.96926117 
-0.23652254 0.380206 -0.89414793 
0.36053523 -0.011656009 -0.93267286 
-0.16133457 -0.25399277 -0.9536556 
0.32013214 -0.22594543 -0.9200349 
-0.23138516 -0.40494046 -0.8845813 
-0.20886321 -0.15814714 -0.96507293 
0.5911754 0.17025304 -0.788369 
0.68740463 0.034404635 -0.7254593 
0.36612204 -0.13907461 -0.9201157 
0.017564164 -0.83337563 -0.55242807 
0.6176483 -0.3142969 -0.7209217 
0.067421585 -0.681854 -0.7283746 
0.40975448 -0.5121653 -0.75484306 
0.20439279 -0.7924524 -0.5746676 
0.4624657 -0.7584059 -0.45928866 
0.47885707 -0.5452804 -0.68801546 
0.14233106 -0.94654405 -0.28947604 
0.15870835 -0.8104521 -0.56389636 
0.40292183 -0.9148219 -0.027473854 
0.017378643 -0.84686846 -0.53151846 
-0.11645646 -0.5302253 -0.8398208 
0.27887985 0.0072950935 -0.9602983 
0.00035936854 0.15775055 -0.987479 
0.06994673 -0.5181249 -0.8524402 
0.4008994 -0.32862154 -0.85515356 
-0.06314201 -0.25709152 -0.96432203 
-0.030896686 -0.5436152 -0.83876574 
-0.24537446 0.20511796 -0.9474798 
-0.57742244 0.63974565 -0.50725627 
-0.46011353 0.043642316 -0.8867869 
0.26170668 -0.07714449 -0.96205944 
0.49064773 -0.13004209 -0.8615996 
-0.12919892 0.08343414 -0.9881025 
0.14406253 0.20336291 -0.968447 
0.36671302 -0.2384067 -0.89926845 
-0.43272382 -0.15839814 -0.8875022 
-0.3526009 0.13606133 -0.9258294 
-0.19374625 -0.21948513 -0.95618445 
-0.028739022 -0.1983021 -0.9797195 
0.37029222 -0.21430327 -0.9038572 
0.32857665 -0.06708805 -0.9420917 
-0.43798983 -0.6702625 -0.5990936 
-0.11946091 -0.2673309 -0.95617115 
-0.25799912 0.10839456 -0.9600454 
-0.29900712 0.19738656 -0.9336131 
0.032200024 -0.3258698 -0.9448662 
0.25388506 -0.063484855 -0.96514875 
-0.17112829 -0.42650127 -0.88815075 
-0.18401937 -0.4577047 -0.86985254 
0.028556848 -0.9679631 -0.2494635 
0.24001355 -0.7939971 -0.55853575 
-0.043006305 -0.35881898 -0.93241596 
-0.07994288 -0.21160787 -0.9740797 
0.067690045 -0.24245593 -0.9677982 
-0.8127775 -0.52821773 -0.24572098 
-0.72656894 -0.5393225 -0.4257099 
0.450231 -0.3152026 -0.8354277 
0.24469481 -0.6390167 -0.7292339 
0.08841043 -0.49249208 -0.86581486 
-0.1050934 0.1701912 -0.979791 
-0.77634513 -0.2615888 -0.5734628 
-0.35274196 -0.43854436 -0.82659066 
-0.02927151 0.32690585 -0.94460356 
0.21209306 -0.20762184 -0.9549397 
-0.38052103 -0.29741916 -0.87564015 
0.19590966 -0.1816768 -0.96364564 
-0.32611522 0.02386059 -0.9450289 
-0.4456989 -0.16245174 -0.8803193 
-0.4974083 -0.04872538 -0.86614716 
0.03827751 0.11508949 -0.9926174 
0.62817806 -0.30901042 -0.7140763 
0.40179265 -0.15400979 -0.902687 
0.07424493 -0.38825488 -0.9185564 
-0.06151522 -0.12902308 -0.9897318 
0.27933168 0.9563355 -0.086001284 
0.1295262 -0.014681379 -0.99146736 
-0.24296191 -0.34402406 -0.9069823 
-0.16438304 -0.0494471 -0.98515654 
-0.1270746 -0.6192119 -0.77487344 
-0.39298707 0.23198408 -0.8898003 
0.19033097 -0.5860165 -0.7876286 
-0.41970193 -0.13862029 -0.8970144 
-0.0071916026 -0.5353336 -0.8446102 
-0.045996834 -0.936505 -0.34762454 
-0.25948974 -0.691693 -0.6739629 
0.3933351 -0.11525842 -0.912142 
0.5188252 -0.30468452 -0.7987414 
-0.08342653 -0.49883378 -0.86267316 
-0.09912917 -0.6709632 -0.7348346 
0.2294764 -0.85854506 -0.4585204 
0.19244416 -0.6805415 -0.7069856 
0.087458365 -0.7188318 -0.68966085 
0.3882828 -0.23557198 -0.8909222 
0.43721583 -0.68975973 -0.5771255 
0.7915344 -0.24765019 -0.5586972 
0.15743186 -0.92232114 -0.3529008 
0.6537632 -0.22672154 -0.72193575 
-0.93049425 0.107847326 -0.3500706 
-0.84170103 -0.30892637 -0.4428361 
-0.76207393 -0.17156956 -0.62434554 
-0.55050623 -0.01929415 -0.834608 
0.064237125 0.63180786 -0.7724588 
-0.008902018 0.2530474 -0.96741295 
0.06932402 -0.11777968 -0.99061704 
-0.74664944 -0.4070828 -0.5261163 
-0.39684737 -0.5030744 -0.76774234 
-0.21668398 -0.61410165 -0.7588988 
0.008500886 -0.2362489 -0.9716554 
-0.10848435 -0.24514985 -0.96339643 
-0.057270747 0.08595201 -0.9946519 
0.5486389 -0.10441237 -0.82951397 
-0.034946248 -0.48136693 -0.8758223 
-0.32536682 -0.69574416 -0.6403723 
-0.18179655 -0.7200606 -0.6696736 
-0.635213 -0.2383784 -0.73462933 
-0.88217604 0.4295355 -0.1930409 
-0.908444 -0.34836313 -0.23102553 
-0.23858209 -0.34123307 -0.9091967 
0.017922573 -0.2734564 -0.9617175 
-0.15054534 0.56760085 -0.80942297 
-0.041774936 0.5495618 -0.834408 
0.04149084 0.7295363 -0.68268245 
-0.4987562 0.4714482 -0.7273094 
-0.7230244 -0.4390917 -0.53332376 
-0.9419039 0.19170697 -0.27579975 
-0.53932095 -0.06762103 -0.839381 
-0.7159026 -0.22590636 -0.66064346 
-0.8135415 -0.1296696 -0.5668653 
0.16206592 -0.23288658 -0.9589048 
-0.09793832 -0.39712402 -0.9125243 
-0.11047363 -0.21803702 -0.9696677 
-0.47384235 0.108659424 -0.87388027 
-0.12383114 0.20646131 -0.9705873 
0.22628187 0.24522164 -0.94268924 
0.39453065 -0.15831962 -0.9051412 
0.37530527 -0.33001086 -0.86616325 
0.47904697 -0.42341378 -0.7689179 
-0.373037 0.526085 -0.76425004 
-0.48711354 0.11500564 -0.8657334 
0.47469607 0.831304 -0.2891321 
-0.28884938 0.6599168 -0.69359636 
-0.08433929 -0.23580372 -0.9681341 
-0.30994377 0.06940872 -0.948218 
0.5385922 -0.028278427 -0.84209186 