# OOMMF: rectangular mesh v1.0
# Segment count: 1
# Begin: Segment
# Begin: Header
# Desc: Time (s) :  1e-09
# Title: m
# meshtype: rectangular
# meshunit: m
# xbase: 2e-09
# ybase: 2e-09
# zbase: 5e-10
# xstepsize: 4e-09
# ystepsize: 4e-09
# zstepsize: 1e-09
# xmin: 0
# ymin: 0
# zmin: 0
# xmax: 1.024e-06
# ymax: 1.024e-06
# zmax: 1e-09
# xnodes: 256
# ynodes: 256
# znodes: 1
# ValueRangeMinMag: 1e-08
# ValueRangeMaxMag: 1
# valueunit: 
# valuemultiplier: 1
# End: Header
# Begin: Data Text
0.051831093 0.39602813 0.91677433 
-0.3215632 -0.009437458 0.94684106 
-0.15295143 0.19566019 0.9686707 
-0.08807593 0.05267329 0.9947202 
-0.25674194 0.6725266 0.6941121 
-0.06398615 0.39380452 0.91696453 
0.09647489 0.1544997 0.98327136 
-0.12891816 0.8208917 0.5563424 
-0.49445134 0.5066696 0.7062605 
0.2810615 0.615943 0.73594755 
0.22374552 0.3804935 0.89730865 
-0.09578748 0.8838983 0.45776477 
-0.08734301 0.70555806 0.7032489 
0.5007219 0.68061626 0.53482634 
0.86007845 -0.14515857 0.4890749 
0.31155062 -0.09485602 0.94548327 
-0.08096754 0.055317096 0.99518055 
0.14578724 -0.046570975 0.98821926 
0.069855005 0.22129074 0.9727028 
0.29470226 0.24182168 0.92448515 
0.48881182 0.08103889 0.8686171 
-0.13035542 0.67461485 0.72656894 
-0.21384001 0.02794674 0.97646886 
-0.40302953 0.58187747 0.70638937 
0.5915139 0.25698498 0.76424485 
0.4873079 0.6632889 0.5679603 
0.27073196 0.28246853 0.9202802 
0.06805778 0.3888917 0.9187662 
-0.09328817 -0.64132917 0.76157355 
-0.31548855 0.27351898 0.9086553 
-0.3283798 0.34485653 0.879341 
-0.45437798 0.67169803 0.58511746 
-0.37031126 0.719802 0.5871582 
-0.085234895 0.29372117 0.95208347 
-0.4086474 -0.03998487 0.9118161 
0.47859335 -0.07926279 0.8744518 
0.13674611 0.98130673 -0.13541627 
0.28393552 0.5744291 0.76773167 
0.6562056 0.3350027 0.6761416 
0.28760773 -0.3194756 0.9028938 
0.31253552 0.7246736 0.6141414 
0.5437008 0.8364832 0.068450935 
0.4302837 0.4601734 0.7765929 
0.44637117 0.8851791 0.13118932 
-0.0009694239 0.8912158 0.45357856 
-0.20283918 0.7667419 0.6090675 
0.5236561 0.8368146 0.15976788 
0.79216576 0.5519333 0.26046717 
0.39719814 0.7591341 0.5157024 
0.25369635 0.96699136 0.023790805 
0.062017906 0.99216837 0.108424336 
0.8237686 0.56564873 0.03803661 
0.75198424 0.6555967 -0.06865057 
0.63805354 0.5039539 0.58216685 
0.5106937 0.8520561 0.11485802 
-0.30829003 0.9231533 0.22966382 
-0.18068811 0.8378496 0.5151309 
0.62169117 0.5696971 0.5375363 
0.1058379 0.077251285 0.9913781 
0.6206679 0.08267239 0.77970296 
0.8330837 0.36089775 0.4191949 
0.70575315 0.6319199 0.3202964 
0.7643256 0.26895955 0.5860608 
0.5127847 0.17733422 0.8400027 
0.83265007 0.5263015 -0.17233923 
0.634139 -0.2708238 0.7242391 
-0.5902271 0.630524 0.5040551 
-0.5046411 0.749314 0.428796 
-0.65637547 0.56158 0.50378495 
0.1521185 0.55598444 0.81715447 
0.3619416 0.7457365 0.55935264 
-0.3602671 0.6210234 0.69608736 
0.10925763 0.8716342 0.47782505 
-0.2521744 0.22419216 0.94135326 
-0.12494711 0.2915236 0.94836825 
0.46839657 0.23366305 0.85206 
-0.8712019 -0.15859164 0.46460307 
-0.971569 -0.10257728 -0.21338129 
-0.9153422 -0.21457109 -0.34074637 
0.08234157 0.92201084 0.37830657 
-0.61596996 0.7422013 -0.2640423 
-0.09231699 0.6917412 -0.71622044 
-0.561834 0.6164167 -0.5517002 
-0.7511059 0.5978936 0.27993438 
-0.340661 0.835822 0.43052512 
-0.14109786 0.88062865 0.4523102 
0.11372382 0.8708302 0.47824875 
0.12215328 0.96892804 0.21507479 
0.22460474 -0.28006476 0.93333626 
0.402805 -0.30831048 0.8617963 
0.4955882 -0.29863667 0.81560326 
0.49385113 -0.488058 0.71966004 
0.011119142 -0.28925255 0.95718825 
-0.2777994 -0.34464028 0.89668876 
-0.8051965 -0.342361 0.48419797 
-0.6072272 0.31930465 0.72754365 
0.35615206 0.3081309 0.8821627 
-0.10994332 0.83023083 0.54646975 
0.18843922 0.9655194 0.17961873 
0.5471747 0.8129179 -0.19941014 
0.31741413 0.86331767 0.3923404 
0.13613722 0.38148367 0.9142958 
0.42974925 0.542182 0.7220487 
0.7099819 0.70405257 -0.015355693 
0.59230983 -0.0119198505 0.8056222 
0.6394754 0.4629072 0.6138308 
-0.6354356 0.0068492275 0.7721236 
-0.08097189 -0.14394388 0.9862676 
-0.647284 -0.275162 0.7108512 
-0.22479433 0.5109121 0.8297207 
-0.54442126 -0.040837295 0.8378173 
-0.780685 0.49070144 0.3869664 
0.046066325 0.71358234 0.69905525 
-0.21185088 0.5386029 0.8154914 
0.19754003 0.43501496 0.8784873 
0.4456424 0.7719056 0.45339233 
0.05303065 0.9032275 0.42587304 
0.08241365 0.08439642 0.99301827 
0.09802572 0.7992086 0.59300655 
0.50172526 0.3862681 0.77399534 
0.4649036 0.05540433 0.88362616 
-0.43001714 0.03875106 0.90198874 
-0.76774013 -0.39188334 0.50695425 
-0.66565084 -0.026832324 0.7457808 
-0.61913663 0.6481317 0.4433905 
-0.48151553 0.7342265 0.47859624 
0.35055667 0.852226 0.38835663 
0.036943935 0.39983526 -0.9158422 
0.96144575 0.10237923 -0.25522667 
0.56082463 0.69645745 0.44768617 
0.33786866 0.7623037 0.5520307 
0.49553433 0.74658847 0.44390488 
-0.50555474 0.4955204 0.70631015 
0.28437403 0.94775486 0.1445415 
-0.0030300342 0.7922617 -0.610174 
0.77968055 0.36021745 0.51219296 
0.48572606 -0.030430287 0.87358123 
0.63852125 0.37204975 0.6736984 
-0.04582464 0.23715392 0.97039074 
0.006201656 0.7197109 0.69424623 
0.0021817319 0.3030275 0.9529793 
-0.24522454 0.54036325 0.8049054 
-0.5054946 0.50507325 0.6995544 
0.19582473 0.9706431 -0.13965917 
-0.5613561 0.78999925 0.246537 
-0.3943118 0.38048872 0.8365086 
-0.08913296 0.32101345 0.942871 
-0.46919507 0.86185557 0.19251241 
0.49901125 0.85658044 0.13136953 
-0.38721544 0.66167074 0.6420717 
-0.07912472 0.80982083 0.5813171 
-0.6550839 0.5036417 0.56321424 
-0.9622907 0.23837866 -0.1310432 
-0.11018335 0.55395526 0.82522327 
0.28937218 0.5554853 0.7795511 
0.21387899 0.28115508 0.9355254 
0.43274257 0.47367844 0.76704794 
0.25482473 0.8203084 0.51201427 
0.32496965 0.9190459 0.22304583 
0.70655 -0.034695785 0.7068121 
0.32310542 0.3199988 0.8906198 
0.38078514 0.737381 0.5579176 
0.24682307 0.23653622 0.9397494 
0.31430528 0.5181839 0.795423 
-0.33698106 -0.5729619 0.7471 
-0.12522557 -0.38233736 0.9154981 
-0.28600353 -0.11833903 0.9508932 
-0.5609584 0.14283395 0.8154289 
-0.738553 -0.08592372 0.6686977 
-0.91294867 0.09934498 0.3957973 
-0.5119628 0.62044746 0.5940869 
-0.6265777 -0.5856708 0.5141888 
-0.123564094 -0.3210096 0.9389807 
0.4827727 0.12092473 0.8673568 
-0.24136999 0.54849005 0.80056185 
0.21351072 0.285293 0.93435603 
-0.037847064 0.57135516 0.8198299 
0.28439113 0.5988797 0.74864197 
0.015751578 0.8454135 0.5338801 
-0.5211359 0.845946 -0.11310433 
-0.73934394 0.6586009 0.14005521 
-0.3582442 0.4481329 0.81904703 
-0.22629984 0.14101256 0.96379656 
-0.4033802 0.39734718 0.8242571 
0.41650766 -0.08029894 0.9055791 
0.49828193 0.34644228 0.79479116 
-0.615486 0.29560184 0.7306139 
-0.26805198 0.69574136 0.66640246 
0.044331245 0.15000273 0.9876913 
-0.3190911 0.30635408 0.8968435 
-0.44259113 0.39282697 0.80610186 
0.13759102 0.94927055 -0.2827617 
0.33830932 0.9378099 -0.07784332 
0.46023032 0.45517385 0.7622367 
0.4534176 0.5422283 0.7073903 
0.32031474 0.69509435 0.6436167 
0.38832754 0.04266198 0.9205334 
0.5034708 0.06418027 0.8616254 
-0.0075404677 0.19058655 0.98164153 
0.12983179 0.38810942 0.9124225 
0.5358654 0.67288023 0.5099808 
0.58190787 -0.29911545 0.7562495 
-0.11642672 -0.252512 0.96056366 
-0.3806436 0.33836353 0.86059326 
-0.44931614 0.33705625 0.82735 
-0.2726552 -0.22546065 0.93532175 
-0.40619227 0.06641888 0.9113707 
-0.45663834 0.17641109 0.87198657 
-0.24590947 0.36079633 0.89964134 
0.4514702 0.7340477 0.5072954 
-0.2249871 0.6873982 0.69055384 
-0.14817919 0.12977798 0.9804084 
-0.3736247 0.044984065 0.9264886 
-0.73951197 0.5678196 0.36152872 
-0.82178086 -0.22391818 0.5239628 
-0.42663017 0.115917444 0.896967 
0.22442134 -0.42493322 0.8769645 
0.34864393 -0.18058936 0.9196928 
0.52358496 -0.21886402 0.8233817 
-0.05267078 -0.11100077 0.9924236 
0.4446091 -0.1739423 0.8786734 
0.1494202 -0.19598292 0.9691565 
-0.5143627 -0.39542913 0.7609644 
-0.029406363 -0.6866548 0.72638863 
0.09881228 -0.21817602 0.9708941 
0.24201785 0.26421797 0.93360394 
0.8072314 -0.44841912 0.3837939 
0.97623575 0.21218033 0.044083055 
0.70618755 0.668029 0.23459862 
-0.19986106 0.8134295 0.54624933 
-0.13830155 0.90979666 0.39133474 
-0.34520805 0.6498706 0.67712605 
-0.16456348 0.85046524 0.49962777 
0.5328837 0.5285753 0.6607899 
0.7584974 0.09547975 0.6446437 
0.06257578 0.9245761 0.3758236 
0.7181203 0.43758243 0.5411331 
0.28025928 0.6795583 0.6779789 
0.32646972 0.8571504 0.39838544 
-0.11293366 -0.5971608 0.7941317 
0.56792116 0.14268816 0.81062067 
0.55943716 0.15441726 0.81436193 
0.32748362 0.57364166 0.7507928 
-0.75730723 -0.24772015 0.6042522 
-0.78253615 0.53883064 0.31192774 
-0.5550736 0.81309855 -0.17539711 
0.5481237 0.5597937 0.621443 
-0.064519554 0.99778354 0.016286938 
-0.7575438 0.34598663 0.5535527 
-0.4760354 0.4480193 0.756749 
-0.26280913 0.5209593 0.8121163 
0.18864866 0.90456504 0.38232684 
-0.21043566 -0.05805725 0.97588235 
-0.6804512 0.70536697 0.19860442 
-0.6688169 0.6158017 -0.41650006 
-0.47800222 0.47331834 -0.73992145 
0.18681073 -0.02509415 0.98207545 
0.19755346 -0.1285815 0.9718228 
0.20961185 -0.2114878 0.9546391 
0.05275322 -0.56072587 0.82631934 
0.52660537 -0.5464058 0.6512508 
0.4254282 -0.005385883 0.9049762 
0.3903286 -0.13935915 0.9100674 
-0.18562502 0.44802314 0.8745392 
0.101488695 0.5559677 0.82498497 
-0.59955454 0.45600095 0.6577214 
-0.23749991 0.22701123 0.9444891 
-0.47774622 0.5385399 0.6940701 
-0.40011182 0.4406674 0.8035689 
0.19083227 0.96359843 0.18724641 
0.14514811 0.84604764 0.5129674 
0.1733312 0.41887566 0.891347 
0.4098638 0.09775246 0.90689373 
0.19600798 -0.07875846 0.9774344 
-0.047504332 -0.34014705 0.9391716 
0.8217167 -0.23575944 0.5188441 
0.03486677 0.29895142 0.95363116 
0.0503381 0.38232362 0.92265636 
-0.2753677 0.0018052261 0.9613374 
-0.2979656 0.07206652 0.95185244 
0.42258802 0.43416047 0.79556525 
0.50201124 0.24757168 0.8286694 
0.3459931 -0.17350468 0.92205477 
0.41007215 -0.048476227 0.91076386 
0.18350384 0.5583036 0.80908805 
-0.47057673 0.5566463 0.6846185 
-0.13415124 -0.36233807 0.9223419 
-0.49267977 0.32271147 0.80816084 
-0.6392981 0.117482275 0.75993145 
-0.4879142 0.400091 0.7758008 
-0.784741 -0.4956951 0.3721129 
-0.7790317 0.20791958 0.59150577 
-0.3146882 0.5184911 0.79507124 
0.13257352 0.061649207 0.98925406 
0.48978058 0.10842595 0.86507744 
0.09592578 0.51208603 0.85356086 
0.11562916 0.55236775 0.82554215 
0.023982074 0.7177394 0.6958988 
-0.028769718 0.5653733 0.82433325 
-0.0040022675 0.4849465 0.8745348 
0.050600607 0.31360057 0.9482059 
-0.16534439 0.5887006 0.79126024 
-0.47286364 0.7953464 0.37924135 
0.8465133 0.21020624 0.48911002 
0.36543456 0.37298486 0.8528423 
-0.039568372 0.8401189 0.54095715 
-0.36720732 0.872679 0.32185453 
0.32974356 0.68558776 0.64902896 
0.5674497 0.80537844 0.1713667 
0.49593967 0.532511 0.68591243 
-0.15043919 0.56085426 0.81413186 
-0.07529127 0.42027804 0.9042664 
0.03768393 0.39738622 0.91687745 
0.22035235 0.072031625 0.9727571 
0.48280036 0.59445834 0.64305764 
0.49258873 0.25111958 0.8332438 
0.47999233 0.25850868 0.8383202 
0.50191873 -0.11838416 0.8567746 
0.66151243 0.09746683 0.7435735 
0.69300604 -0.2490533 0.67654645 
0.56644243 -0.3896815 0.7261483 
0.66654515 -0.11550495 0.736462 
0.43287814 -0.028992657 0.9009861 
0.58744586 0.20439398 0.7830266 
0.08046742 0.49575037 0.8647292 
0.9225748 0.3828559 0.047717653 
0.84211123 0.0935773 0.5311234 
0.14556749 -0.004162865 0.9893396 
0.2927095 0.13927384 0.9460043 
-0.20341599 0.62319654 0.75514764 
0.5575588 0.28406325 0.7800233 
0.61924833 0.35831773 0.69867015 
-0.27048478 0.89060944 0.36558565 
-0.76419795 0.3044454 -0.56860757 
-0.55364525 0.7048846 -0.44341248 
-0.38556415 0.92248267 0.019129768 
0.2043948 0.66955537 -0.71408576 
-0.07511925 0.98047405 -0.18173571 
0.07461751 0.7911442 0.60706097 
0.31269407 0.38666782 0.8675889 
0.75895995 0.53389084 0.37274715 
0.4599258 0.5278523 0.71403104 
-0.62480545 0.22160116 0.74867296 
0.46150428 0.8020952 0.37902117 
0.6235716 -0.45042124 0.63896734 
0.63047045 -0.026720844 0.7757533 
0.90582395 0.021459106 0.4231105 
0.77144504 0.3478795 0.53277814 
-0.23632479 0.4971871 0.8348387 
0.4493885 0.075464286 0.8901433 
0.4427936 -0.35416874 0.8237102 
0.10080712 0.28172663 0.9541845 
-0.1649715 0.8139836 0.55696964 
0.004017435 0.817287 0.57621676 
0.23905356 0.95739675 0.16200303 
0.43982553 0.71484447 0.5436459 
0.30539718 0.7827741 0.5422151 
-0.25115076 0.07362887 0.9651436 
0.2986617 -0.21841009 0.92903084 
0.53342134 0.6495375 -0.54181427 
-0.034627948 0.42621976 0.9039567 
0.19716932 0.19939485 0.9598781 
-0.11290584 -0.04398622 0.9926317 
-0.22208314 0.28937733 0.9310961 
0.36433843 0.44256234 0.8193877 
-0.2952202 -0.06019081 0.95353144 
-0.105653726 0.17594405 0.978714 
-0.34742537 0.85173345 0.39223176 
-0.46715152 0.48123777 0.741741 
0.12524404 0.612459 0.78051776 
0.5278995 -0.09740112 0.8437033 
0.4598801 -0.16997841 0.87156045 
0.85945386 -0.104201905 0.500481 
0.13868873 0.16780558 0.9760158 
0.09433176 0.22083385 0.97073895 
-0.68883085 0.4093076 0.59831387 
-0.32887262 0.532602 0.7798577 
-0.53025234 0.6700948 0.51942813 
-0.76726943 -0.024127264 0.640871 
-0.8889003 0.34845084 0.29738584 
-0.5252771 0.84933615 -0.05207864 
-0.44726694 0.89347774 -0.040620036 
-0.11152611 0.9927787 0.044186663 
-0.010298114 0.35918084 -0.93321115 
0.32039917 0.917865 -0.23423976 
0.28085732 0.87678665 0.3903389 
0.4373993 0.6024066 0.6676737 
0.47641498 0.69888794 0.53346455 
0.3691338 0.4022914 0.8377959 
0.15871592 0.23158954 0.95977896 
-0.49487898 0.52227885 0.6944924 
0.047591753 0.8334623 0.55052316 
0.8390849 0.5069594 0.19730362 
0.5506418 0.37891626 0.7437851 
0.354792 0.10356739 0.9291913 
0.12615728 -0.0142072365 0.9919085 
-0.17571323 0.45865235 0.87106997 
0.026633998 0.85838026 0.5123223 
-0.5123918 0.17616203 0.84048903 
-0.2580156 0.859408 0.44141334 
-0.4180171 0.8333937 0.36154777 
-0.46981063 0.48588496 0.73701686 
-0.29496863 0.9377179 0.1835178 
-0.15505297 0.69665056 0.70045465 
0.31652826 0.37900412 0.869578 
-0.9499607 0.13366991 -0.28232467 
-0.701696 0.5901379 0.39919934 
-0.6678869 0.7302348 0.14382052 
-0.96337205 0.054136977 0.2626474 
0.06479195 0.6798942 0.7304423 
-0.05736042 0.6767149 0.7340074 
0.48542064 0.48623928 0.72659355 
0.40438637 0.41877168 0.81308186 
0.59928596 0.47393164 0.6451707 
0.13207328 0.6543522 0.7445669 
0.17896345 0.29036763 0.9400313 
-0.33317524 0.09806934 0.93775094 
0.2415807 -0.04589109 0.969295 
0.31686231 -0.2563407 0.9131745 
-0.48572463 0.2365852 0.8414863 
-0.2412346 0.30573732 0.9210487 
0.30326274 -0.0417951 0.95199 
-0.5077384 0.052051213 0.85993755 
-0.00047661725 0.022158293 0.9997544 
0.2713245 -0.6737232 0.68737185 
-0.28883368 -0.8929834 0.34518957 
-0.3638609 -0.42828515 0.82715 
-0.96056724 -0.010110091 0.2778642 
-0.15973249 -0.48403746 0.8603448 
-0.08810039 0.51252556 0.8541404 
-0.37566054 -0.116087735 0.919458 
-0.5568154 -0.07223337 0.8274896 
-0.42817965 0.8061593 0.4083742 
-0.16632721 -0.27103183 0.9480913 
-0.09864193 0.31831527 0.94283897 
-0.66891116 -0.0036918 0.7433333 
-0.27192003 0.32185748 0.9068998 
-0.016990256 0.8280235 0.5604361 
0.1395902 0.64843196 0.7483653 
0.29274374 0.79408294 0.5326664 
0.52966267 0.12558311 0.83886015 
0.4947365 -0.3482871 0.7961984 
-0.3852763 -0.32392177 0.8640815 
-0.73487794 -0.22594525 0.63945544 
-0.4189187 -0.060515612 0.90600497 
-0.14397983 0.12439924 0.9817304 
-0.632428 0.3222113 0.70442516 
0.1389232 0.7753643 0.6160443 
0.3541212 0.44853833 0.82061654 
0.5278392 -0.46943265 0.7078268 
0.4558824 0.24022852 0.8570074 
-0.057829082 0.097700775 0.99353427 
0.27056366 0.6516748 0.708601 
-0.15731063 0.46478617 0.8713365 
0.14002864 0.19722487 0.97030634 
-0.19299303 0.7472385 0.63591546 
0.4912778 0.8267329 0.2741511 
0.20146605 0.6186496 0.7593973 
0.25494865 0.25225368 0.9334716 
-0.21852343 0.798085 0.5615229 
0.13176209 0.702222 0.6996593 
-0.61017835 -0.45579967 0.6480194 
-0.47552967 -0.1216219 0.87125176 
-0.4590272 -0.2099186 0.86326605 
-0.4526258 -0.07054869 0.8889054 
0.20907 0.12824939 0.9694544 
-0.3628188 0.52942526 0.76685816 
-0.36639154 0.3875435 0.8459122 
-0.04904233 0.3135554 0.9483027 
-0.23606843 0.84730744 0.47575402 
-0.23614462 0.53991544 0.80791533 
-0.55794936 0.39193183 0.731493 
-0.5483031 0.5314794 0.64567274 
0.2487389 0.86095625 0.4437154 
0.48127374 0.37604368 0.79181224 
0.9214211 0.1877428 0.34019956 
0.7589496 0.36730304 0.5376655 
-0.5795796 0.44127235 0.6851031 
0.20987542 -0.089067936 0.9736628 
-0.43535435 0.045514893 0.89910793 
0.11553859 -0.31961262 0.94047797 
-0.13855003 -0.10222355 0.9850656 
0.19493736 0.29058674 0.9367811 
0.4979246 0.40469167 0.76700443 
0.33952004 0.8339379 0.4350562 
-0.22669788 0.6020711 0.76558375 
-0.641513 0.4338639 0.63263196 
-0.14172035 0.50552094 0.8510958 
-0.22136876 0.55384 0.8026563 
0.53411084 0.59628934 0.5993034 
0.19549894 -0.21053892 0.95783794 
0.41685775 -0.06274627 0.90680355 
0.17659035 0.7137389 0.6777851 
0.16459249 0.3504508 0.92200524 
0.024866203 0.80208707 0.5966893 
-0.4672002 -0.38737294 0.7947744 
-0.023594305 -0.2480531 0.96845907 
0.39007667 0.25327414 0.88526416 
-0.30456355 0.08826625 0.9483934 
-0.44878346 0.83237535 0.32518417 
0.039300423 0.42079166 0.9063057 
-0.3673856 0.7856262 0.49781448 
0.73855436 0.6660373 0.10455496 
0.3476839 0.91711825 -0.19496219 
-0.34265533 -0.22747244 0.91150624 
-0.42143902 0.16527745 0.89166844 
0.09226022 0.2015225 0.9751291 
0.47232684 0.61008227 0.63616586 
0.13555247 -0.33845657 0.93116736 
-0.4235043 0.5937903 0.6841471 
-0.0008985093 0.42394322 -0.90568835 
0.05411332 0.95896304 -0.27831963 
0.9920939 -0.08857072 -0.08890968 
0.89559406 -0.43709913 0.08279883 
0.6182912 -0.20913233 0.75761455 
0.14774631 -0.24131975 0.95913285 
0.8733346 0.41577318 0.2538097 
-0.21275598 -0.2550463 0.9432319 
0.3579498 -0.30343795 0.88306147 
-0.16192175 0.36329275 0.91749644 
0.09594021 0.760872 0.6417706 
-0.20039694 0.6218383 0.75707215 
-0.76344633 0.027916314 0.64526784 
-0.64582396 0.3503354 0.6783632 
-0.87869036 -0.26638037 0.3961626 
-0.8762838 0.35519114 -0.32552397 
-0.10016334 0.8112832 0.5760094 
-0.43122095 0.38888028 0.81413794 
-0.20702541 0.65294164 0.7285655 
-0.21978275 0.5348642 0.8158528 
-0.07189299 -0.2980448 0.9518407 
0.5895902 -0.28235957 0.7567407 
-0.17599635 -0.18016744 0.96776295 
-0.36371452 -0.10463471 0.92561513 
0.04850838 -0.14378181 0.9884199 
0.00017164269 -0.34948754 0.936941 
-0.02204219 -0.23572446 0.97156996 
0.44694424 0.049698945 0.8931803 
0.5743819 -0.11682759 0.8102079 
-0.12725174 0.07479169 0.9890467 
0.7827795 -0.07068076 0.6182723 
-0.49545217 0.11503811 0.8609841 
0.17191997 0.13362636 0.9760059 
-0.33174947 0.34215125 0.87913305 
-0.64724624 0.4053856 0.64555013 
-0.23062553 0.49198246 0.83950293 
-0.29823735 0.6819258 0.6678561 
-0.7204621 0.4089539 0.5600813 
-0.22982466 0.68125224 0.6950367 
0.101927474 0.09242423 0.99048907 
0.0045363735 -0.2174108 0.9760697 
-0.048983082 0.17485124 0.98337567 
0.25382444 0.4116559 0.8752786 
0.4019017 0.6119194 0.6811972 
0.5297497 0.12273385 0.83922684 
0.43222383 0.16488726 0.88656354 
-0.2873431 0.53853816 0.7920925 
-0.4853049 0.363076 0.7953961 
0.12921125 0.5526669 0.8233248 
-0.18006618 0.10994395 0.977491 
0.42370784 -0.26454696 0.86630636 
0.614879 0.4294018 0.6614665 
0.35956597 0.6907222 0.62738764 
0.2920071 0.7029838 0.6484949 
0.13711844 0.96234405 0.2347181 
-0.190295 0.6022934 0.7752616 
-0.01717617 0.08812009 0.99596184 
-0.19846372 0.48741183 0.8503187 
0.09900292 -0.4995015 0.86063737 
0.4522273 -0.2592391 0.85339653 
-0.4661003 0.65015775 0.60003793 
-0.71085745 -0.13635123 0.68999285 
-0.7233011 -0.62462854 0.29440582 
-0.048479456 -0.084352255 0.995256 
0.500386 -0.22904094 0.83495766 
0.8465729 -0.31559387 0.42861962 
0.6812253 -0.36807522 0.6328134 
0.621781 -0.18765438 0.76037776 
-0.22281563 0.64557624 0.73046875 
0.25519827 0.14495353 0.95596147 
0.8078474 0.05440968 0.586875 
0.86704046 -0.19208671 0.45972127 
0.15065546 0.6036066 0.782919 
0.05480368 0.17581065 0.98289734 
-0.58360785 -0.24936745 0.77279866 
-0.61063164 -0.037391506 0.79103166 
-0.39389515 0.14959405 0.9069004 
-0.77737147 0.22498761 0.5874302 
-0.56332034 0.747379 0.35227108 
-0.8947383 0.3342164 0.2962141 
-0.50178415 0.8593309 -0.09880823 
-0.64129865 0.76701325 0.020658178 
-0.19696048 0.9384333 -0.2838125 
0.23994008 0.96431977 -0.111876145 
-0.136308 0.6056944 0.78393525 
0.37527677 0.61945295 0.68952554 
0.5106142 0.52331537 0.6822127 
0.39267808 0.8258688 0.404654 
0.3885228 0.6024222 0.6972357 
0.07871899 0.4515568 0.888763 
-0.53600836 0.79619205 0.2806662 
0.044573624 0.5021217 0.86364746 
0.71994066 0.48502666 0.4964219 
0.6529196 0.080023326 0.7531881 
-0.10876529 0.6761865 0.7286577 
-0.13366303 0.56451756 0.8145269 
-0.24738221 0.7453802 0.6190399 
-0.0043650595 0.0852374 0.9963512 
0.26684296 0.7766147 0.57067007 
0.26701254 0.6568388 0.70517176 
-0.09374981 0.4536125 0.88625443 
0.19704175 0.59500766 0.7791922 
0.49577725 0.5462501 0.67514133 
0.78066593 0.16413373 0.60300976 
0.8988498 -0.28882116 0.32962325 
0.7090499 0.612783 0.34892023 
0.06814433 0.76269585 0.64315754 
0.103921436 0.27641597 0.9554028 
0.07220809 0.07310158 0.9947071 
0.47557133 0.34688458 0.8083953 
0.08312934 0.45175138 0.8882625 
0.1951474 0.30897465 0.9308342 
-0.16965812 0.08110321 0.98216003 
-0.26329654 0.2550554 0.930388 
-0.22159915 0.31315994 0.92348516 
-0.0686018 0.74269336 0.6661085 
0.9050783 0.35463223 -0.23466866 
0.74134225 0.5032497 0.44401753 
0.8695437 0.36949497 0.32766977 
0.17983977 -0.012955427 0.98361063 
0.23573275 0.12633966 0.96357065 
0.02043607 -0.040744364 0.9989607 
-0.27321061 0.5708142 0.7742914 
-0.12573281 0.7159571 0.6867291 
-0.12521245 0.7322319 0.66944623 
-0.47024035 0.5615989 0.6807943 
-0.7232494 0.6825533 0.10503081 
-0.65975523 0.7505189 0.038004797 
-0.2842842 0.857533 0.42874214 
-0.33139876 0.9400113 0.080954775 
0.32582873 0.85134363 0.4111565 
0.5634475 0.8241922 0.056870565 
0.32178086 0.8754693 0.3605699 
0.33072615 0.5162452 0.7900071 
0.12115772 0.56875634 0.8135337 
0.2451289 0.6135492 0.7506458 
0.2788065 0.94194275 0.18711218 
0.30743152 -0.0037480495 0.9515628 
0.6431304 0.53664184 0.546259 
0.63082236 0.04778915 0.77445424 
-0.38997808 0.31965855 0.86355984 
0.5955562 -0.015793156 0.8031584 
-0.12493264 0.24839967 0.96056724 
-0.379123 0.54713356 0.74626446 
-0.8004691 0.58963406 0.10761467 
-0.43164203 0.37296706 0.82132864 
-0.68652105 0.2672937 0.67619747 
-0.22596775 0.366473 0.902572 
-0.040312756 0.75808394 0.6509099 
-0.43123475 0.354725 0.8295823 
-0.5620807 0.0021204152 0.82707965 
-0.66288555 -0.7483666 0.023029715 
-0.6680102 -0.03205166 0.7434616 
-0.67970395 0.6842566 0.26418856 
-0.7643831 0.5054932 0.4002438 
-0.3546295 -0.4896764 0.7965269 
-0.22628179 -0.039024156 0.97327983 
0.6827756 0.18182506 0.70764196 
0.77603275 0.5285654 0.34408113 
0.7171888 -0.33331895 0.61199576 
0.56303763 0.5465447 0.61990124 
0.2934349 0.11202796 0.9493923 
0.1362151 0.29200256 0.94666785 
0.65573066 -0.19319783 0.72985744 
0.033729356 0.23902524 0.9704274 
-0.19746514 -0.07298997 0.97758883 
-0.11708829 0.37327957 0.9203003 
0.023989696 0.08621914 0.9959873 
0.30212453 -0.22170699 0.92712826 
0.9873939 -0.15826102 0.0025901082 
0.88334477 -0.03990194 0.46702233 
0.2951682 -0.01718532 0.95529073 
0.61337596 0.09646003 0.7838785 
0.07999425 -0.5892474 0.80398285 
-0.20546027 0.076893136 0.97564006 
0.3336104 -0.012503924 0.9426282 
-0.674864 -0.2958212 0.6760536 
-0.7016757 0.578696 0.41564667 
-0.3752772 0.50724006 0.77580583 
-0.34152472 0.21413238 0.91515476 
-0.7993852 -0.07100706 0.59660816 
-0.9867901 0.13296732 -0.092547745 
0.06210632 -0.20640254 0.97649413 
-0.4669658 0.6524938 0.5968206 
-0.30776325 0.55436957 0.77327627 
-0.5990743 0.5422016 0.58917516 
-0.38192225 -0.019452902 0.92398983 
-0.5390044 0.0320746 0.84169203 
-0.56890875 0.3500877 0.744165 
-0.32602137 0.28257656 0.9021423 
-0.06235476 0.2355816 0.9698522 
-0.2759771 -0.21341814 0.937171 
-0.04542571 -0.6462391 0.76178193 
0.48258013 0.63613933 0.6020326 
0.63403887 0.3611928 0.68376505 
0.10890102 0.3982935 0.9107706 
0.2601357 0.12418559 0.9575528 
0.32195723 0.41992688 0.8485312 
0.022303754 0.20901504 0.9776581 
0.22354694 -0.23136914 0.9468343 
0.021877978 0.329097 0.94404274 
-0.54098374 0.31565005 0.7795523 
0.07330226 0.8336333 0.5474325 
0.18482286 0.61986405 0.7626331 
-0.7817869 0.14208964 0.60714066 
-0.25246254 0.19991384 0.9467298 
-0.56511277 0.15034065 0.81119996 
-0.9943725 0.0899767 0.055925086 
-0.8495059 0.047567595 0.5254303 
-0.65621436 0.0057523665 0.7545526 
-0.9974321 -0.053483862 -0.047632106 
-0.30742225 0.091942705 0.94712096 
-0.7228751 0.37411866 0.5809362 
-0.12965482 0.64523584 0.75290143 
-0.17177929 0.5409533 0.82332337 
0.08679336 0.37680835 0.922216 
-0.19987907 0.18992946 0.9612363 
-0.028063692 0.8338935 0.55121166 
0.37107894 -0.08308631 0.9248768 
0.7208408 0.51510876 0.46373644 
0.21793742 -0.13564312 0.96649075 
0.051824328 -0.61264926 0.78865415 
-0.136621 -0.09616895 0.9859444 
-0.06828587 -0.08521481 0.99401987 
0.7551113 -0.15652455 0.63663745 
-0.18362701 -0.2548227 0.9493928 
-0.40496004 0.339026 0.8491577 
-0.39811328 -0.40634823 0.82242745 
-0.38807863 -0.1671707 0.9063382 
-0.1629577 0.77621347 0.6090464 
-0.5896447 0.6669707 0.4554881 
-0.42212173 0.54817736 0.72202134 
-0.30009764 0.75406975 0.58422625 
-0.29448962 0.70928824 0.6404578 
-0.18692763 0.44911352 0.873702 
-0.60382503 0.31737238 0.7312115 
-0.65573597 -0.059760347 0.75262153 
-0.20807922 0.1708124 0.9630816 
0.47823283 0.65871984 0.58084553 
0.26352105 0.2639952 0.9278271 
0.2765988 0.5296795 0.801831 
-0.37315118 0.1611011 0.9136765 
-0.5947821 -0.059895944 0.8016525 
0.064761244 -0.13203678 0.98912704 
-0.3140521 0.019323623 0.9492091 
0.19121031 0.39816722 0.8971631 
-0.063103355 0.46893045 0.880978 
-0.24105489 0.5828204 0.77602386 
-0.020965977 0.8603958 0.509195 
0.033521138 0.7625849 0.64601916 
-0.033287182 -0.014291189 0.9993437 
0.36489308 -0.37639466 0.851575 
-0.17065205 0.27180952 0.9470995 
-0.21820673 0.46340728 0.85885954 
0.1464197 0.05480004 0.9877035 
-0.6611105 0.5309739 0.53009397 
-0.24108264 0.89526665 0.37466896 
-0.5107494 0.85188955 -0.115841754 
0.8629762 -0.17277093 -0.47478655 
0.87170494 -0.46538273 0.15345801 
0.920931 -0.31430984 0.23042476 
0.49606955 -0.09217635 0.8633762 
-0.1640803 0.4921218 0.8549233 
-0.45867434 -0.27162215 0.8460729 
-0.15198138 -0.2964871 0.9428664 
0.27287504 -0.15588576 0.94933605 
-0.100405306 0.063378215 0.99292594 
-0.3890413 0.047711268 0.9199839 
0.02987947 -0.2117356 0.9768701 
0.028201541 0.0150805 0.99948853 
0.27983916 0.30344266 0.91083074 
0.16048561 0.29634175 0.94150203 
-0.32961723 -0.12673421 0.9355698 
-0.60540825 0.6139166 0.5065446 
-0.3680549 0.37905154 0.84903216 
-0.5000148 0.40690592 0.76446897 
0.13818258 -0.37992865 0.91463655 
0.45222348 -0.63503766 0.6262756 
0.37575477 -0.44997352 0.8101433 
-0.22126651 0.11796281 0.9680527 
0.17353137 -0.31610322 0.93271947 
0.14748831 -0.13121021 0.980322 
0.2878079 -0.15371351 0.94527185 
-0.25251588 -0.0873163 0.96364504 
0.33101517 -0.45777696 0.8251481 
0.8484647 0.35836962 0.38945967 
0.8188878 -0.08962273 0.5669133 
0.7340023 0.6051723 0.3082324 
0.68969333 0.31870678 0.6501916 
0.15370163 0.6491464 0.74497306 
0.12051015 0.3667673 0.92247444 
-0.24726716 0.21916664 0.94383526 
0.16814667 0.7493462 0.6404741 
0.28414127 0.45885974 0.84185004 
0.24597247 0.8956376 0.37058195 
0.71211755 0.46689692 0.5243052 
0.6945522 -0.5035532 0.5138399 
0.07642926 0.4003617 0.9131644 
0.08379464 0.60604006 0.79100823 
0.38239774 0.9046589 0.18805356 
0.3115953 0.5874346 0.7468796 
0.6018174 0.39491975 0.6941572 
0.26562527 0.6786189 0.6847771 
-0.5505494 0.4633017 0.69444 
-0.069393024 -0.16518493 0.98381835 
0.056692783 0.8729535 0.48449787 
0.3955712 -0.0967194 0.9133284 
0.18085192 0.5868748 0.7892215 
-0.20393242 0.5404908 0.8162605 
-0.5531003 0.72698134 0.4069131 
0.6047436 0.50377226 0.6168458 
-0.41448736 0.47805625 0.7743788 
0.1297972 -0.011591403 0.99147284 
0.94240576 -0.12999907 0.3081746 
0.4994142 0.17574197 0.84835154 
-0.111760914 -0.0944517 0.98923624 
-0.75633234 -0.38740435 0.5271427 
-0.4077017 -0.60044676 0.68792665 
0.41167668 -0.6521896 0.6365306 
0.39332038 -0.59802234 0.6983326 
0.23626035 -0.44712448 0.86270547 
0.6107259 -0.4559574 0.6473923 
0.6998121 -0.36458737 0.6142794 
-0.35873696 0.07408405 0.9304942 
0.54430956 0.013878226 0.83876973 
0.14175133 -0.049750067 0.9886514 
0.67437327 0.41892838 0.6080459 
0.7311432 -0.34419438 0.589033 
-0.4817707 0.59090394 0.6470932 
0.13009585 -0.45177934 0.8825931 
-0.6922355 -0.28010508 0.66509485 
-0.9708681 0.23698176 0.035424083 
-0.46753272 0.4546376 0.75810146 
-0.2854335 0.12376121 0.9503741 
-0.7486249 0.030647976 0.66228503 
-0.96158266 -0.00531771 0.27446392 
-0.8211114 -0.024840908 0.5702272 
-0.52556974 0.34747493 0.776555 
-0.52933866 0.62625074 0.57237273 
-0.5555577 0.807696 -0.19744128 
0.03936484 0.9333808 0.3567224 
0.06891757 0.8666046 0.49421328 
0.67107016 0.728008 0.14024739 
0.22234699 0.42590627 0.877021 
0.74988896 0.46131298 0.47419086 
0.42193913 0.18920529 0.88666165 
0.15076296 0.62354237 0.7671151 
0.5250218 0.81673104 0.23937973 
0.24898617 0.6888083 0.68084437 
0.22985984 -0.00045489843 0.97322375 
0.43362948 0.215284 0.8749962 
0.12160912 0.53409004 0.83663553 
0.36501053 0.79980016 0.47653636 
0.08236189 0.59355175 0.8005703 
0.33838382 0.5848983 0.7371502 
-0.00041833124 0.33781043 0.9412141 
-0.03501427 0.019370431 0.99919915 
0.039345305 0.5987572 0.7999636 
0.66428 0.74743944 -0.008151127 
0.077747725 0.29283908 0.95299566 
0.6606417 0.58692944 0.4680453 
-0.25163266 0.8713439 0.4212373 
-0.43698096 0.8754302 0.2065664 
-0.38889095 0.7459025 0.5407341 
0.28888205 0.8406817 0.45804083 
0.57281107 0.6596462 0.48657426 