# OOMMF: rectangular mesh v1.0
# Segment count: 1
# Begin: Segment
# Begin: Header
# Desc: Time (s) :  4e-09
# Title: m
# meshtype: rectangular
# meshunit: m
# xbase: 2e-09
# ybase: 2e-09
# zbase: 5e-10
# xstepsize: 4e-09
# ystepsize: 4e-09
# zstepsize: 1e-09
# xmin: 0
# ymin: 0
# zmin: 0
# xmax: 1.024e-06
# ymax: 1.024e-06
# zmax: 1e-09
# xnodes: 256
# ynodes: 256
# znodes: 1
# ValueRangeMinMag: 1e-08
# ValueRangeMaxMag: 1
# valueunit: 
# valuemultiplier: 1
# End: Header
# Begin: Data Text
-0.5797836 0.528286 0.62029433 
-0.3105836 0.7201632 0.6204054 
0.033815645 0.5228164 0.85177445 
0.32228187 0.58969307 0.74053806 
0.46807384 0.71477336 0.5196211 
-0.465135 0.5459113 0.6968719 
-0.42477128 0.89857537 0.110144146 
-0.23900391 0.28663096 0.92774993 
0.24905157 0.6514937 0.71660954 
0.15325095 0.92886364 0.33723378 
-0.73359394 0.44127527 0.5168329 
-0.27699795 0.9107628 0.3062407 
0.51174533 0.7954618 -0.32458785 
0.63000995 0.77218544 -0.08256601 
0.07099069 0.9973011 -0.018729845 
-0.6816302 0.72762364 -0.077098295 
-0.6592043 0.46183592 0.59342855 
-0.065526046 0.9607874 0.26943257 
-0.53091055 0.4106572 0.74127907 
-0.3263015 0.90006715 0.28880215 
-0.43203527 0.5049303 0.74725556 
-0.33584613 0.9404766 0.052069683 
-0.058911033 0.9976517 0.034936644 
-0.011833077 0.6678544 0.7441979 
0.499615 0.6164142 0.60862005 
0.25628987 0.96189684 0.095237106 
-0.24466126 0.3713549 0.8956766 
-0.34324118 0.3521077 0.87075007 
-0.831486 0.27887222 -0.48048025 
-0.41219822 0.9095278 0.05340227 
-0.46898884 0.8283529 0.30640018 
-0.31988657 0.14821362 0.9357914 
-0.0187554 0.627842 0.77811486 
0.18731503 0.62241775 0.75994027 
0.104977764 -0.09843411 0.98959106 
-0.84232813 0.28298903 0.45869458 
-0.47533855 0.7245636 0.49906015 
0.0603109 0.8276897 -0.55793583 
0.6857294 0.72066295 0.102078825 
-0.017308714 0.9638023 0.2660559 
0.061825484 0.44933414 0.891222 
0.17524964 0.45728722 0.87188077 
-0.18831038 0.75193614 0.6317685 
0.09310467 0.98103046 0.17003171 
-0.011562965 0.8486033 0.5289034 
0.1912941 0.863137 -0.46733403 
0.22238718 0.97388977 -0.045636132 
0.44454962 0.894814 -0.041029893 
-0.013808421 0.9674211 0.2527962 
-0.2602906 0.8032985 0.53568685 
-0.73344356 0.6111182 0.29764926 
-0.35883027 0.78089374 0.51131773 
-0.05807729 0.7610481 0.64609057 
-0.12911236 0.65681475 0.7429162 
-0.09444559 0.2705829 0.9580527 
0.3040289 0.6187208 0.724397 
0.56645507 0.28793177 0.77215546 
0.21574846 0.019064788 0.97626287 
0.13901958 0.73797077 0.6603581 
0.35844713 0.03642327 0.9328393 
0.04363057 0.22522938 0.9733284 
0.013254303 0.27114484 0.9624473 
-0.013904486 0.5724742 0.81980485 
0.882534 0.07479973 0.46426153 
0.19032955 0.5052983 0.84169376 
0.07348636 0.041351467 0.9964386 
0.2846066 -0.119623415 0.95115155 
-0.14563859 0.11709126 0.98238444 
0.23112518 0.3106326 0.92200243 
-0.4717105 0.4291211 0.77028847 
0.14915602 0.81957966 0.55321044 
0.32234198 -0.044641938 0.9455701 
0.12829894 0.42655447 0.89531595 
0.033247884 0.83728164 0.54576004 
0.2296985 0.38680393 0.89309657 
-0.3196785 0.039389458 0.94670707 
0.17062803 0.63052446 0.75718236 
0.5325901 0.4785706 0.6980817 
0.3314506 0.372323 0.8669003 
0.5554536 0.14515449 0.81878054 
0.5570773 -0.37961823 0.7386169 
-0.06040811 0.66342473 0.7458006 
-0.6217993 0.23850474 0.7459766 
-0.65920657 0.4141566 0.62763137 
-0.08192837 0.82356924 0.56126785 
-0.12716047 0.8417948 -0.5246062 
0.17619625 0.9792316 -0.100302145 
0.6491614 0.70811415 0.2777838 
0.017615626 0.9070884 0.42057145 
-0.11493208 0.88531625 0.45056167 
0.2644119 0.30646527 0.9144208 
-0.49537426 0.4122693 0.7646165 
-0.5911821 0.6466239 0.48205933 
-0.00768444 0.97194535 -0.23508134 
0.46335983 0.7761071 0.4277331 
0.22237782 0.8856616 0.40761715 
0.77417475 0.61211824 0.16113605 
-0.022380423 0.9758732 0.21718821 
0.5742175 0.81058997 0.11497101 
-0.09423852 0.98150736 0.166621 
-0.0867838 0.39314708 0.9153709 
0.03479476 0.21034008 0.977009 
-0.059442136 -0.15791018 0.98566276 
-0.14171654 0.15009284 0.9784624 
-0.011526449 0.5116665 0.85910696 
0.07615186 0.9107066 0.40597332 
-0.23186803 0.9687565 -0.08802356 
0.49082786 0.86868405 0.06690401 
0.27766883 0.63092065 0.7244579 
-0.6860401 0.45838863 0.5650034 
-0.12914033 0.37466943 0.91812074 
-0.68111324 0.39840522 0.6142948 
-0.6978147 0.678026 0.23094456 
-0.34044737 0.49724507 0.7980244 
-0.9865542 0.038913656 0.15873413 
-0.6922627 0.6826229 0.2340906 
0.20683247 0.6037344 0.76988655 
0.27298418 0.51850075 0.81033117 
-0.24790914 0.4106789 0.8774303 
-0.8053354 -0.042394336 0.5913018 
-0.55691344 0.4141677 0.7199393 
-0.06751772 0.9245779 0.374963 
-0.69761044 0.24079047 0.67480344 
-0.49731237 0.6883627 0.52805036 
-0.7913622 0.25005424 -0.55786973 
0.20714898 -0.019442324 -0.9781163 
0.35027307 0.6299434 -0.69316673 
0.54968727 0.81037 0.20284057 
-0.3246423 0.9291567 -0.1768478 
0.10097618 0.7946247 0.59864455 
0.16292341 0.74479914 0.6470938 
0.025278535 0.6845669 0.72851163 
-0.02429838 0.26726252 0.9633174 
-0.15824234 0.23338881 0.9594212 
0.052992806 0.17665248 0.9828457 
0.020089537 0.76171243 0.6476037 
-0.28954062 -0.07892502 0.9539063 
0.70065874 -0.38590714 0.6001275 
0.12475625 0.011419462 0.9921217 
0.36979204 0.28895634 0.8830391 
0.606469 -0.4522532 0.65395904 
0.7762162 -0.3474626 0.52607816 
0.37807265 0.3192535 0.8689869 
0.4091958 -0.0331999 0.91184247 
0.4428389 0.7556729 0.4825479 
-0.21169405 0.8153761 0.5388389 
-0.48687264 0.87153673 -0.058126237 
-0.53256696 0.7792045 -0.3304735 
-0.7846548 -0.19863255 0.5872496 
-0.5536546 0.34138146 0.759556 
-0.09073048 0.8026276 0.5895396 
-0.047573302 0.49583203 0.8671145 
0.32616654 0.31714985 0.8905232 
0.0884494 0.23794022 0.9672441 
0.27650487 0.41507468 0.86675143 
-0.50629723 0.08926967 0.8577262 
-0.091685645 -0.0793526 0.9926213 
0.13829143 -0.2938683 0.9457891 
0.39273673 -0.14672479 0.90787095 
0.008029235 -0.18690774 0.9823446 
0.29343367 0.7043275 0.6463896 
0.21836099 0.85759145 0.4656774 
0.32819572 0.6657499 0.6701229 
0.37165692 0.35079172 0.8595442 
-0.15627445 -0.076749064 0.9847274 
-0.1530868 0.13847135 0.9784632 
0.056275625 0.6178418 0.78428614 
-0.25830573 0.77450055 0.5774315 
-0.57486767 0.74741834 0.33300608 
-0.33994725 0.87742364 0.33847272 
0.13239358 0.9562274 -0.26096174 
0.5684559 0.7964478 0.20622547 
0.84731126 0.24227782 0.47261536 
0.81098956 0.5393048 0.22681764 
0.5122717 0.6731968 0.5332765 
0.07391809 0.8332449 0.54794073 
0.029634165 0.10912635 0.9935861 
0.73796093 0.285785 0.6113433 
0.8995193 0.41944942 0.12217724 
0.17111802 -0.11783134 0.9781791 
-0.13470864 0.044133108 0.989902 
-0.3157843 -0.34182116 0.8851207 
-0.48310483 0.50221163 0.71721214 
-0.43191898 0.8230622 0.36880177 
-0.19181308 0.67763054 0.70994693 
-0.47016975 0.49957985 0.7275716 
-0.05524195 0.3577132 0.9321962 
-0.24984162 -0.046999622 0.9671454 
-0.36618143 0.6663142 0.6495665 
0.2202575 0.5927046 0.7747179 
0.67646486 0.4679844 0.56867033 
0.6126202 0.49261555 0.6180829 
-0.30153376 0.5008677 0.8113009 
-0.15304106 -0.23150678 0.9607201 
0.62275547 -0.65253764 0.4317064 
0.31813067 -0.20151564 0.9263824 
-0.54229283 -0.2734154 0.79445744 
-0.94659966 -0.3117991 -0.082039535 
-0.47568843 0.7996371 0.36647096 
0.39272508 0.55037737 0.73678476 
0.45421898 -0.0841667 0.8869053 
0.5577028 -0.020249367 0.8297937 
0.562444 -0.5818235 0.58748466 
-0.44659936 0.6506023 0.61421967 
-0.5049864 0.25387123 0.8249474 
-0.81335145 0.4333794 0.38812575 
0.07874191 0.7794096 0.6215469 
0.13235265 0.7213838 0.6797707 
-0.072134875 0.68158185 0.7281777 
-0.49608028 -0.20228447 0.84438455 
-0.6919391 -0.198017 0.6942691 
0.48646313 0.51559114 0.7053506 
0.5564952 0.5254548 0.64359176 
0.39988112 0.5406849 0.7401048 
-0.46412265 0.743594 0.48130894 
-0.054910384 0.7866623 0.6149368 
0.4597872 0.7710778 -0.44049388 
0.7218146 0.4308468 0.54162246 
0.4260163 0.8051059 0.41269198 
0.3689815 -0.27755493 0.8870264 
0.031664465 -0.053908143 0.9980438 
-0.43432757 -0.6605876 0.61235905 
-0.81671184 -0.47405413 0.32902065 
-0.13546003 0.5795323 0.8036125 
-0.17552038 0.3718408 0.91155195 
-0.08743973 0.5071082 0.85743546 
-0.14299075 0.48811796 0.8609846 
-0.26066002 -0.06808975 0.96302664 
-0.0034312282 0.11454782 0.9934119 
-0.3551493 0.43630782 0.8267433 
0.5729996 0.60178214 0.556354 
-0.6525118 -0.28167787 0.7034814 
-0.33578572 0.1763817 0.925277 
-0.24359436 0.2952411 0.9238477 
0.23109229 -0.21081264 0.9498181 
0.4275719 0.25701925 0.8666737 
-0.44240004 0.5350185 0.7197482 
-0.6384593 0.7426868 -0.20195562 
0.023055036 0.8933351 0.4487995 
0.44187117 0.85835075 -0.26073712 
-0.07189702 0.61811435 0.78279346 
0.09356891 0.57979137 0.80937433 
-0.28889224 0.93532294 -0.20423587 
0.45498002 0.65473044 0.6035903 
0.99538016 0.0700601 -0.06564954 
0.55224216 -0.014627779 0.83355546 
0.19702064 0.5273002 0.8265212 
-0.56720495 0.28702107 0.7719439 
-0.21383828 0.5260716 0.82311726 
-0.6293987 0.77669096 -0.02466676 
-0.4496356 0.5255774 0.72221625 
0.13843735 0.73918146 0.6591251 
-0.32392305 0.067412466 0.9436787 
0.3194285 0.8077524 0.49548116 
0.5431324 0.3803047 0.74858236 
0.3930124 0.22129875 0.8925066 
-0.5733244 0.7936744 0.20342144 
-0.4412738 0.85252714 0.28013375 
0.35337588 0.05351733 0.93394935 
0.7073286 0.48068964 0.5182892 
-0.16868511 0.7243817 0.66844344 
-0.4074104 0.85823065 0.31218126 
0.05189683 0.98784983 -0.14649065 
-0.11481042 0.9930173 0.027113948 
0.2776675 0.89752126 0.3425732 
0.020031694 0.84895426 0.5280866 
0.009486466 0.58398163 0.81171143 
-0.54574597 0.7522492 -0.36916462 
0.2386554 0.94866997 -0.20753074 
0.6900249 0.6223317 0.36955234 
0.6098886 0.78766704 0.0872731 
0.2582179 0.29784763 0.9190269 
0.045127086 0.4216461 0.90563685 
-0.03923663 -0.0076482384 0.99920076 
-0.26372355 0.46631458 0.8443936 
-0.42055815 0.5642407 0.710467 
-0.87835085 0.06520197 0.47354883 
-0.8618288 0.48790205 0.13857454 
-0.7309031 0.6751663 0.099655576 
0.16744076 0.768941 0.6170035 
-0.109140255 0.09077879 0.9898726 
-0.79371107 0.5402609 0.27953693 
-0.43029535 0.61358374 0.6620884 
-0.55697685 -0.1288019 0.8204797 
-0.4583546 0.5719314 0.6802982 
-0.6569765 0.26085827 0.7073435 
-0.63768846 -0.026387002 0.7698423 
-0.07683132 -0.043858252 0.996079 
0.32281637 0.5058718 0.7999271 
-0.5049554 -0.45880693 0.7311063 
-0.2331809 0.64349794 0.72906595 
-0.3332756 0.6395286 0.69277024 
0.069370344 0.8431358 0.53320724 
0.54703164 0.5265644 0.6507583 
0.60439205 0.639596 0.47500244 
-0.1004164 0.65320325 0.7504945 
0.3333535 0.5025752 0.79768026 
0.5544705 0.5342951 0.6380371 
-0.15174843 0.7661602 0.6244765 
-0.18442206 0.9380268 0.2934181 
-0.30150574 0.8057605 0.5097493 
-0.045632504 0.74977046 0.6601227 
0.744376 0.60999256 -0.27168626 
0.69003177 0.47638592 0.544897 
0.611877 0.48036036 0.6283792 
0.008335215 0.7592153 0.6507862 
0.17670596 0.3686897 0.91260237 
-0.35776004 0.88003385 0.312327 
-0.084421806 0.2481113 0.96504605 
0.15505001 0.13983785 0.9779595 
0.41054496 0.3886228 0.824879 
0.06196594 0.5257013 0.8484094 
0.5954741 0.42436013 0.68215036 
0.16147317 0.19667794 0.9670803 
0.7168218 0.5331275 0.44937924 
0.52684635 0.22157307 0.82057196 
0.5167206 0.6249382 0.5851942 
0.5247161 -0.29590985 0.7981921 
0.68937963 0.17614202 0.70265913 
0.46980006 0.16433461 0.86734194 
-0.025139438 0.172383 0.9847092 
0.35006467 0.21221751 0.9123697 
0.37686858 0.055760134 0.9245869 
0.5287724 0.15817899 0.833894 
0.16195521 0.47475836 0.86508673 
0.27063552 0.7141176 0.6455948 
-0.0498626 0.3926607 0.9183307 
-0.0026521166 0.3220467 0.9467202 
0.13399827 0.14112431 0.9808815 
-0.43398765 0.501873 0.7481833 
-0.460462 0.24807139 0.85231185 
0.2650719 0.11088087 0.9578321 
0.5059473 0.29270625 0.8113818 
-0.048967443 0.04803885 0.99764454 
-0.46892035 0.6030962 0.64528185 
-0.22141944 0.24312311 0.9443859 
-0.43283576 -0.15966943 0.8872198 
-0.33876008 0.8428398 0.41816604 
-0.35036823 0.4695837 0.8103908 
-0.08453586 0.033599705 0.99585384 
0.12054417 0.8328349 0.5402361 
0.05484224 0.28634372 0.9565561 
0.20216294 0.6340101 0.7464324 
0.24322505 0.90834546 0.34022066 
0.29094017 0.7053134 0.64644176 
0.53977174 0.43833566 0.7186852 
0.4688344 -0.16213618 0.8682778 
0.11083842 0.29042134 0.950458 
0.08558835 0.47114024 0.8778962 
0.63680464 0.41252187 0.6513875 
0.57360345 0.66563 0.47740546 
0.41108096 -0.19527909 0.8904373 
0.19578132 0.60211515 0.774033 
0.22587304 0.9034883 0.36426678 
0.1903719 0.822155 0.53648823 
-0.026853418 0.6725137 0.7395973 
-0.32911864 0.1498743 0.93231905 
-0.1410019 0.24214137 0.95994073 
0.48965585 -0.41876125 0.7647721 
-0.4652348 0.25108293 0.848831 
-0.4733252 0.33743888 0.8136943 
-0.36954844 0.8026017 0.4682569 
-0.21467386 0.8043972 0.55394965 
-0.06591884 0.8617044 0.50311077 
-0.276228 0.944573 0.17742589 
-0.4849931 0.36252123 0.79583925 
-0.79073375 0.5227221 0.3185936 
-0.5021693 0.23970906 0.8308825 
0.30351207 0.094367124 0.94814306 
-0.11740707 -0.534922 0.8367043 
-0.46272406 -0.7598816 -0.45658126 
-0.5854064 0.454656 0.671258 
0.5300849 -0.06089367 0.8457552 
0.5925282 0.3367731 0.7317747 
0.08790786 0.12754282 0.98792976 
0.21384694 -0.0061150496 0.97684807 
0.10597124 -0.058146227 0.99266773 
-0.23124605 0.29857084 0.92594856 
-0.4018751 0.7915895 0.46030712 
0.14074028 0.97171843 -0.1896193 
-0.083312005 0.9892066 -0.12053805 
0.6049213 0.76678103 0.21474873 
0.5827006 0.8124503 0.019614026 
-0.050830852 0.39358675 0.91788113 
-0.071716465 0.7515982 0.655711 
-0.18220784 0.09928944 0.9782342 
0.16663323 0.2081347 0.9638015 
-0.49056998 0.4193858 0.7638434 
-0.09171627 -0.18778102 0.9779195 
-0.049795326 0.5423803 0.8386562 
0.29261386 0.64208883 0.7085895 
0.043660127 0.46553445 0.8839523 
0.41236633 0.3249043 0.8511118 
0.3674696 0.2630891 0.89204836 
0.08374788 0.48102066 0.8727001 
0.31798658 0.10494957 0.94226867 
0.6149994 0.12455056 0.77862895 
0.338848 -0.25614738 0.9053014 
0.090138905 -0.23075332 0.96882814 
0.75014156 0.24247624 0.61521786 
-0.15269424 0.5277898 0.8355373 
0.08961193 0.167476 0.9817951 
-0.78100526 0.1738649 0.59983486 
-0.4653964 0.78663486 0.4057237 
-0.61375725 0.4421712 0.6540541 
-0.77096164 0.47911054 0.4196083 
0.031408504 0.7956204 0.60498095 
0.15378828 0.5159888 0.84267724 
0.26195988 0.7038359 0.660297 
0.25679162 -0.06106471 0.9645358 
-0.071329474 0.51568305 0.85380507 
-0.2831264 -0.016046666 0.9589484 
0.071990184 -0.27343404 0.95919305 
-0.12243431 0.17219502 0.9774245 
0.20396374 0.21733241 0.95454985 
-0.47764623 -0.092321835 0.87368804 
-0.22358587 0.5578824 0.79923505 
-0.61264765 0.4091127 0.6762319 
-0.41042006 0.41195065 0.8135429 
0.26656234 0.33465594 0.9038529 
-0.15150902 0.4867156 0.8603214 
-0.15283497 0.59649247 0.7879329 
-0.37412244 0.5259235 0.76383036 
-0.4826938 0.31683758 0.8164685 
0.18734714 0.9092681 0.3716622 
0.037407372 0.8893831 -0.4556298 
0.8948048 0.16473964 0.41495222 
0.67380685 0.73529685 -0.07295895 
0.260652 0.52227783 0.81196463 
0.71501726 0.59919775 0.36015615 
-0.17022733 0.51885283 0.8377437 
-0.13902959 0.8167058 0.5600557 
-0.4044067 0.47276714 0.782909 
-0.2725364 0.7735679 0.57211596 
0.6453843 -0.22019456 0.7314325 
0.13729322 0.19492404 0.97116184 
0.62065154 0.048338532 0.7825951 
-0.5369038 -0.31596112 0.78224224 
-0.25521582 -0.28558773 0.9237449 
-0.5772521 0.6898716 0.43687212 
0.08609483 0.34342316 0.9352263 
-0.05112314 0.27503857 0.9600731 
0.37722105 0.3286437 0.8658508 
0.222148 0.4142569 0.88263327 
-0.09798466 0.04304704 0.9942565 
-0.37956974 -0.03139092 0.9246304 
-0.1821578 0.6622938 0.7267637 
0.49296921 -0.018104048 0.8698585 
-0.051697098 0.572514 0.81826353 
0.6057997 0.49970436 0.6191143 
0.801957 -0.063439175 0.5940037 
0.20059375 0.5815404 0.7883989 
-0.95694816 0.10678716 0.26990142 
-0.59546775 -0.052126665 0.80168635 
-0.7337023 0.6275492 0.2605052 
-0.0908679 0.47766846 0.87382823 
0.03930382 -0.3081682 0.95051974 
0.24738187 0.18036991 0.95198154 
-0.46941587 -0.12036202 0.8747353 
-0.26357973 -0.041598007 0.9637403 
-0.92333215 0.10435641 0.36955065 
-0.23794763 0.24377988 0.94018745 
-0.027859688 0.8456797 0.53296316 
-0.2734653 0.33983955 0.8998477 
0.078059226 0.5944511 0.80033416 
0.15639059 -0.26119253 0.9525337 
0.23808822 -0.29182926 0.9263637 
0.47491157 -0.16339393 0.864732 
0.39013705 0.055995032 0.91905266 
0.17566106 0.7111929 0.6806966 
-0.21634156 0.90421915 0.3682176 
0.7807396 0.6028748 0.16427973 
0.54278535 0.83733165 0.06526768 
0.18708563 0.46833506 0.8635168 
0.70888585 0.46507755 0.5302676 
0.60218626 0.49752688 0.62437075 
0.16173732 0.42691284 0.88971156 
-0.21047306 0.19704351 0.95753586 
-0.4385487 0.3158534 0.841375 
0.13099323 0.5777506 0.80563337 
-0.4158011 0.19631898 0.88801366 
0.15990466 0.32915854 0.93063706 
-0.36844578 0.5563539 0.744794 
-0.17285551 0.11251861 0.9784992 
-0.14525874 0.24374494 0.9588996 
-0.14194514 0.46557438 0.8735515 
-0.41697207 0.2879391 0.86210525 
-0.62304854 -0.06871547 0.779159 
-0.75241685 -0.09870061 0.65125054 
0.6997955 0.13342132 0.70177287 
-0.024051223 0.38299358 0.92343795 
0.372836 0.43687263 0.8186181 
0.08452515 0.6272457 0.77422106 
-0.053762607 0.9634941 0.26227587 
0.30012345 0.8700269 0.3911256 
0.17542641 0.9717695 0.15776435 
-0.15575574 0.95697117 0.24483953 
0.12907651 0.68281317 0.7191004 
0.08592962 0.7985936 0.59570515 
0.22429158 0.51519144 0.82720685 
0.33439654 0.36228627 0.87001586 
0.6656236 0.34274992 0.66292363 
0.20305437 -0.47889298 0.85406697 
-0.21035333 0.1244956 0.9696661 
-0.2482135 0.68819386 0.6817472 
-0.3044201 0.75644934 0.5788893 
-0.6341724 -0.019947268 0.7729343 
0.67936754 0.7075855 0.19437708 
0.29637748 0.24132666 0.92407894 
0.006293797 0.12897152 0.99162835 
0.05764774 -0.08296819 0.9948834 
0.25466394 0.4772654 0.84104943 
-0.78158337 0.5903685 0.20147578 
0.42405874 0.30190423 0.85383147 
0.20504776 0.2418348 0.94840467 
0.09765776 -0.08077576 0.9919367 
0.32058826 -0.045051787 0.94614667 
0.10374333 0.9054013 0.41168654 
0.31303912 0.9276297 0.20373921 
0.7642884 0.2673047 0.5868658 
0.6154725 0.42177922 0.66580474 
0.65532947 0.58396745 0.47908807 
-0.14262071 0.90810436 0.39370787 
0.13500352 0.9330366 0.33349177 
-0.0061039445 0.9648311 0.26279962 
0.032796137 0.97151583 0.23469467 
0.49472076 0.29025233 0.81914896 
0.35717866 -0.2837755 0.8898847 
0.24657758 -0.5632341 0.7886488 
-0.5215987 0.0061831567 0.8531686 
-0.57222396 0.5420631 0.61540836 
-0.8154541 -0.1374696 0.5622604 
-0.30361286 -0.057422124 0.9510636 
-0.5728966 0.59557986 0.5630935 
-0.026771149 0.79794115 0.60214067 
-0.55296993 0.4854668 0.67716044 
-0.71681225 0.5653129 0.4081686 
-0.5209094 0.5437363 0.6580306 
-0.09773247 0.42422166 0.90026903 
-0.077183545 -0.094014905 0.9925744 
-0.18287824 -0.030092457 0.982675 
-0.20825626 -0.06417989 0.97596633 
-0.11126126 0.08076365 0.9905041 
-0.016761499 -0.12047828 0.9925745 
0.1447624 -0.08250835 0.98602045 
-0.48368615 0.18243484 0.8560171 
-0.067612395 0.53835464 0.8400018 
-0.0013115194 0.8284494 0.5600624 
-0.007908201 0.78399134 0.6207214 
0.6080642 0.76841456 0.1994922 
0.66983366 0.7224832 0.17129193 
-0.24331027 0.94893456 0.20080666 
-0.08701207 0.42741615 0.89985806 
0.15882991 0.51376516 0.84310055 
0.60290796 0.78574646 0.1382197 
0.6174828 0.3350119 0.7116756 
0.43899295 0.44780374 0.7789461 
0.31830987 0.4059728 0.85665923 
0.6715182 0.57069355 0.4726228 
0.84696853 0.05536599 0.5287523 
0.68156815 0.04231999 0.73052984 
0.40957215 0.29103938 0.86460793 
0.2723386 0.19645023 0.94193375 
-0.28868786 0.20440699 0.9353487 
-0.11968102 -0.011173875 0.9927496 
0.40433392 -0.11111069 0.90783733 
0.10724746 -0.1276775 0.9860003 
-0.012544416 0.56155866 0.8273418 
0.72340614 0.33121473 0.6057892 
0.93049335 0.15908134 0.3299626 
0.18367149 0.2252164 0.9568398 
0.6101182 0.35618794 0.707733 
0.079425655 0.82262856 0.5630045 
0.5864304 0.55877644 0.58640295 
0.9480554 0.24826483 0.19888613 
0.74590087 0.17282285 0.64324504 
0.7335299 -0.1746469 0.6568352 
0.23917714 0.10354656 0.9654391 
-0.037749853 -0.18112563 0.9827353 
-0.12521322 0.45757693 0.88030964 
0.8345923 0.51644707 0.19167219 
0.7161663 0.53187156 0.45190537 
0.116224125 0.46771935 0.87620234 
-0.13215347 -0.01962293 0.99103504 
0.6251395 0.16726422 0.7623801 
-0.40872413 0.44862026 0.79478586 
0.2652605 0.8621173 0.4317298 
0.5550436 0.7912466 0.25662315 
-0.6098889 0.57772744 0.54246354 
-0.33131486 0.36845052 0.8686051 
0.106761314 0.5490567 0.82893836 
0.21948938 0.07413725 0.972794 
-0.33841398 -0.18377481 0.92287755 
0.48943755 0.84799033 0.20337977 
-0.04011951 0.56194466 0.82620144 
-0.0638789 0.62917477 0.7746345 
-0.008010009 0.9445663 0.32822326 
0.31730998 0.3915479 0.86371565 
0.09202087 0.9441805 0.3163153 
0.08567175 0.94946814 -0.3019447 
0.5908807 0.6980392 0.40447652 
0.9135383 0.40286654 0.056092635 
0.8734312 -0.15912348 0.46021488 
0.40005115 -0.049017075 0.9151811 
-0.0065386123 0.37881908 0.92544764 
-0.6752573 0.60715324 0.41879886 
0.73099625 0.6775326 0.081204526 
0.26920608 0.013509649 0.9629879 
0.3418465 0.46475214 0.8167904 
-0.1597941 0.7424777 0.65053266 
0.6005434 0.5121196 0.61406934 
0.08337504 0.18364233 0.979451 
0.07357265 0.16719864 0.9831744 
0.009191584 0.042665042 0.9990472 
0.23595071 -0.2329133 0.9434399 
-0.0056103673 0.474358 0.88031423 
-0.8022691 0.4437092 0.3993577 
-0.23869725 0.7665476 0.59617805 
-0.50051534 0.8438607 0.19334844 
-0.36281678 0.53950894 0.7597987 
-0.65648186 0.12805367 0.7433935 
-0.2453545 0.5573729 0.7931814 
-0.4567591 0.75987357 0.46256164 
-0.1655995 0.30322096 0.93842095 
-0.38784885 0.30726877 0.86899894 
-0.4060254 0.44347233 0.79904675 
-0.46053085 0.3489408 0.8161812 
-0.4355736 -0.1180563 0.8923779 
0.5298962 0.01672391 0.8478977 
-0.25585777 -0.20693798 0.9443059 
-0.39842385 0.46574178 0.79015386 
-0.1522241 0.42644286 0.8916133 
-0.27875578 -0.022959072 0.9600876 
0.28759304 0.18351872 0.9400059 
-0.60571533 0.76338893 0.22437967 
-0.7356623 0.60618967 0.30221698 
-0.29427665 0.9555749 -0.016671542 
0.53567183 0.8123327 0.23058926 
0.004076272 0.86757904 0.4972826 
-0.027142096 0.67800444 0.7345566 
-0.09544851 0.6044561 0.7908998 
-0.54224104 0.50337493 0.67274696 
0.10311871 0.99453276 -0.016469562 
0.1548041 -0.6728451 0.72340524 
0.12996054 -0.78026456 0.6117987 
-0.4584293 -0.0014942638 0.8887297 
-0.4601174 -0.3085586 0.83251643 
-0.36971897 -0.042919815 0.9281519 
-0.035702303 0.25148487 0.96720254 
-0.24753942 0.18902916 0.95025903 
-0.36323124 0.051364236 0.9302821 
0.5874273 0.22756384 0.7766234 
0.33110002 0.41770217 0.84610736 
-0.026784245 -0.4738024 0.8802239 
-0.57872605 -0.14964326 0.80167526 
-0.79124177 0.59693 0.13270696 
-0.11697643 0.91645414 0.3826595 
-0.26699942 0.69036955 0.67238474 
-0.5881177 0.7624557 -0.2697757 
-0.51722 0.24314302 0.8205882 
-0.41140714 -0.15639648 0.8979333 
-0.25804165 0.4206369 0.8697581 
-0.062781475 0.75874794 0.6483518 
0.06609033 -0.044034965 0.9968416 
0.45846778 0.7390752 0.49353343 
0.5835059 0.5105412 0.6315605 
0.070033595 0.122253805 0.990025 
-0.6296324 0.06551953 0.7741254 
-0.13849705 0.0784542 0.98725057 
0.07556003 -0.5868494 0.8061629 
-0.43000183 0.08671896 0.89865357 
0.5514478 0.592828 0.58690745 
0.45599368 0.2511598 0.85380834 
0.12391658 0.2893072 0.9491818 
0.019180931 -0.17877302 0.9837034 
-0.47336328 0.58334565 0.66002655 
0.11478599 0.5791637 0.80708957 
0.17132142 0.31265712 0.93428826 
-0.5768045 0.6632428 0.47687066 
-0.7001145 0.67212355 0.24101809 
-0.7057609 0.5655874 0.42662925 
-0.4367659 0.89315176 0.10731034 
-0.46343443 0.8150386 0.34776515 
-0.55885947 0.81023914 -0.17660294 
0.34042847 0.81261075 0.47304595 
0.110207975 0.9831814 0.14563146 
0.20099919 0.50879246 0.837096 
-0.15378292 0.3762414 0.9136702 
-0.5025665 0.15091299 0.8512651 
0.19981593 -0.008678241 0.97979504 
0.1632751 0.0669405 0.984307 
0.33588335 0.18003128 0.9245384 
0.6280679 -0.027450915 0.77767414 
-0.09056332 -0.10023886 0.9908333 
-0.071204804 -0.7291075 0.68068516 
-0.42516962 0.18957037 0.8850389 
-0.32047343 0.17900121 0.93019104 
0.20416474 -0.30994746 0.92857385 
-0.19647601 0.16155605 0.9671075 
-0.14520046 0.44032088 0.8860217 
0.13934033 0.08071062 0.98694986 
0.33079562 0.5127853 0.79222816 
0.19677947 0.35549533 0.91372913 
0.16430335 0.033546332 0.98583925 
0.2704312 0.5075166 0.8181039 
-0.3542867 0.08940064 0.9308536 
0.6198152 0.5321566 0.57674825 
0.19440179 0.53606176 0.82148993 
0.11989995 0.40367252 0.907013 
0.06635061 0.0068618394 0.9977728 
0.5003702 0.030213116 0.8652843 
0.56330633 0.32237118 0.7607647 
0.025046455 0.23029837 0.9727977 
-0.3457824 -0.18008296 0.92087173 
-0.24973164 0.16444251 0.9542499 
0.10723618 -0.22957775 0.9673647 
0.09070873 -0.19649811 0.9762994 
-0.5799649 0.22764246 0.7821891 
-0.58282155 0.46468177 0.66662574 
-0.397428 0.17749399 0.9003038 
-0.7041097 -0.015458674 0.70992297 
-0.14041077 -0.18714072 0.9722465 
0.5085663 -0.080894634 0.85721433 
0.2663587 -0.519021 0.81220096 
0.028555298 -0.23632728 0.9712539 
0.37378946 0.3167873 0.8717381 
0.5019499 0.8647271 -0.017127886 
0.46039283 0.76822245 0.44482887 
0.86712843 -0.323395 0.37881926 
0.37443504 0.046690684 0.92607695 
0.23556894 0.7915399 0.56388986 
-0.14637657 0.56532747 0.8117752 
0.22051239 0.40989438 0.88507676 
0.042972073 0.35698292 0.933122 
-0.031422008 0.51808596 0.8547512 
-0.14392704 0.89988506 0.4116938 
-0.22323523 0.007810075 0.97473335 
0.1380201 0.29739136 0.9447269 
-0.43984875 0.22309284 0.869921 
-0.46978384 -0.20506223 0.85863423 
0.14717719 -0.043062244 0.9881723 
0.35387 0.5906844 0.7251675 
-0.042515013 0.103185095 0.99375314 
-0.24082914 0.2600446 0.93508196 
0.3210336 0.20648688 0.92428386 
0.37556642 0.5414202 0.75220615 
0.20375058 0.21313678 0.95554096 
-0.1411081 0.4370228 0.8883129 
0.035502438 -0.2806612 0.95915014 
0.17687081 0.7387815 0.65032184 
0.4608715 0.55298996 0.6941179 
-0.1270529 0.67030084 0.73113227 
-0.12446687 0.8804327 0.45754364 
0.49064377 0.7245021 0.48411313 
0.44038656 0.39366084 0.80690193 
-0.059341975 0.08505568 0.99460757 
0.3210765 -0.12251484 0.9390953 
0.6316217 -0.3590776 0.687108 
0.17466126 -0.20147668 0.9637949 
-0.24014032 0.4571238 0.85637057 
-0.18679729 -0.39915523 0.8976536 
-0.6761721 -0.03662108 0.73583305 
-0.41965201 0.4186227 0.8053865 
-0.38949195 0.19894473 0.89928705 
-0.37162673 -0.14905095 0.91633916 
-0.4213205 0.022327919 0.90663695 
0.7477442 -0.16837521 0.6422838 
0.3353642 -0.72692436 0.59925956 
0.8075658 -0.40655577 0.42725888 
0.67647296 0.063961826 0.7336847 
0.44270363 0.19285072 0.8756838 
-0.035870757 -0.40049627 0.915596 
-0.61497176 -0.13888296 0.7762225 
0.0075032674 0.6510967 0.7589577 
0.27785176 0.87935245 0.38670114 
0.57533336 0.7691759 -0.27813676 
0.83950114 0.4205641 0.34404033 
0.38783482 0.82353675 0.41397035 
0.17360249 0.3644812 0.9148856 
0.3488438 0.5244017 0.77673095 
0.7059283 0.37472156 0.60103995 
0.15066838 0.21810903 0.9642238 
-0.20870101 0.42113256 0.88266146 
0.09994654 -0.19618794 0.9754594 
-0.31700665 -0.47016463 0.823682 
0.011949629 0.6118102 0.79091436 
0.0035846683 0.5422146 0.84023243 
-0.49339095 -0.77810365 0.38874152 
0.15313943 -0.06125565 0.9863043 
0.14428315 0.30315644 0.9419547 
0.01111365 0.16760406 0.98579174 
-0.49099997 0.5288251 0.6922884 
-0.5830602 0.5657032 0.58311296 
-0.1635634 -0.14744142 0.9754528 
-0.13544148 0.09443312 0.98627484 
-0.32690775 -0.08239608 0.9414575 
0.2406393 0.0024050418 0.97061163 
-0.24986574 0.54297984 0.8017108 
-0.23888242 0.071547806 0.9684091 
-0.03876811 0.255501 0.9660312 
0.43734685 -0.37206605 0.8187152 
0.4625174 0.6155916 0.6380632 
0.38919383 0.50028145 0.7734641 
-0.17824616 0.79374856 0.5815425 
0.22784838 0.9689082 -0.09644755 
0.2261136 0.6239628 0.7480262 
0.103002846 0.932798 0.34536713 
-0.31105015 0.9210717 0.23425354 
-0.4686311 0.59014505 0.6573536 
-0.40907207 0.724845 0.55431014 
0.093128435 0.8260169 0.55589867 
0.21337062 0.47019085 0.85638404 
0.55433285 -0.2800988 0.78374726 
0.0018949661 0.20902099 0.9779093 
0.12819758 0.08056696 0.9884708 
0.56494564 -0.12234504 0.81600755 
0.90883034 0.0492498 0.41424856 
0.58162344 -0.3148487 0.7500563 
-0.095005296 -0.17248687 0.98041946 
-0.24604952 0.32385066 0.9135537 
0.1817464 0.03348031 0.98277533 
-0.29732534 -0.6311495 0.7164133 
0.31727386 -0.8730444 0.37031186 
0.319443 -0.16294163 0.9334914 
0.34193626 0.13136084 0.93049663 
0.7949474 0.14852634 0.5882165 
0.67642856 -0.30246937 0.67153317 
0.73301166 0.42292178 0.5327581 
0.428481 0.6411284 0.6366776 
-0.23012762 0.84181106 0.48825768 
-0.24140966 0.24226776 0.9396956 
0.925319 -0.20475268 0.3191569 
0.451758 -0.10279849 0.88619816 
0.37676802 -0.55319166 0.74298376 
-0.33493468 -0.25025356 0.9084008 
0.7625842 0.18840092 0.6188461 
0.38836274 0.61934054 0.6823429 
0.6013051 0.38518605 0.70004565 
0.22108574 0.23261935 0.9471058 
-0.2711975 -0.015000036 0.96240693 
-0.28044388 0.13099825 0.95088947 
-0.020593353 0.84519625 0.5340593 
0.49828655 0.5093792 0.7016006 
0.6924789 0.5710991 0.4408161 
-0.009827331 0.16589329 0.9860948 
0.4214766 0.093673706 0.9019883 
-0.21289149 -0.34643474 0.9135974 
0.07057981 0.1774002 0.98160464 
0.2301819 0.1313392 0.96424395 
0.10843703 0.47232848 0.8747271 
0.28713143 0.60713583 0.740906 
0.22006075 0.56838167 0.79278976 
0.28057966 0.3888748 0.8775258 
0.67694134 -0.03777166 0.73506725 
0.09864996 0.9765205 0.19150952 
0.76848096 0.60192615 -0.21707615 
0.5477794 0.7073237 0.44680098 
0.5928201 0.37254003 0.7139876 
0.74735177 -0.61067367 0.26180723 
0.43423375 -0.5980254 0.6736519 
0.47366315 -0.5521768 0.68610793 
-0.29169995 0.6252852 0.72382987 
-0.0067157466 0.4942966 0.86926746 
-0.29444182 0.7198869 0.62854356 
0.62239474 0.5447624 0.5620131 
0.17153257 0.9822749 0.07558318 
-0.14816074 0.46926996 0.8705366 
0.01075458 0.08082629 0.99667025 
-0.14660622 0.14424564 0.9786214 
-0.00044313588 0.05547778 0.9984598 
-0.27530682 0.18006307 0.94434285 
-0.18853028 0.7035069 0.68522584 
-0.6957719 0.427184 0.5774214 
-0.69475996 0.25566188 0.672269 
0.13194041 0.66934603 0.7311413 
-0.09836443 0.5515602 0.8283151 