# OOMMF: rectangular mesh v1.0
# Segment count: 1
# Begin: Segment
# Begin: Header
# Desc: Time (s) :  3.4000000000000007e-08
# Title: m
# meshtype: rectangular
# meshunit: m
# xbase: 2e-09
# ybase: 2e-09
# zbase: 5e-10
# xstepsize: 4e-09
# ystepsize: 4e-09
# zstepsize: 1e-09
# xmin: 0
# ymin: 0
# zmin: 0
# xmax: 1.024e-06
# ymax: 1.024e-06
# zmax: 1e-09
# xnodes: 256
# ynodes: 256
# znodes: 1
# ValueRangeMinMag: 1e-08
# ValueRangeMaxMag: 1
# valueunit: 
# valuemultiplier: 1
# End: Header
# Begin: Data Text
0.29231215 0.8163823 -0.4980701 
-0.30021834 0.4293674 0.8517704 
0.32592365 0.32176647 0.8889545 
0.47468257 -0.22560784 0.85075116 
0.38612103 0.25918975 0.885286 
-0.029913012 0.80671215 0.59018713 
-0.5398114 0.83193135 0.12842856 
0.5930586 0.61654896 0.517831 
0.17761542 0.3336196 0.92582434 
-0.60402924 0.23902117 0.7602747 
0.7562718 0.3093609 0.576497 
0.20252806 0.18579622 0.96148956 
-0.12579359 -0.6823381 0.7201324 
-0.3896776 0.2999282 0.87074363 
-0.46914527 0.30549672 0.82859784 
-0.49154404 0.27216145 0.827232 
-0.4092645 0.33273602 0.8495819 
-0.2910036 0.88756704 0.3571297 
0.17613249 0.8061422 0.5649002 
-0.22456698 0.9721158 0.06753245 
0.40276256 0.7989976 0.44652554 
-0.082452364 0.37183636 0.92462933 
0.11429652 0.23835877 0.964428 
-0.25411418 0.26438656 0.9303364 
-0.24602841 0.4752044 0.84477854 
-0.0023805995 0.3639924 0.9313989 
-0.1368591 0.4656278 0.8743342 
0.5851586 0.6784864 0.4441236 
0.22789393 0.74371886 0.6284478 
0.45607325 0.78076124 -0.427094 
0.5771054 0.77018094 -0.2716074 
0.73562175 0.64189065 0.21641873 
-0.005869517 0.7652173 0.6437453 
0.0023003742 0.38142818 0.9243956 
0.4674286 0.6649291 0.58256316 
-0.32466605 0.7279973 0.6038311 
-0.5792014 0.73044974 0.36189628 
-0.5507086 0.8000534 0.23798038 
-0.5080253 0.69564855 0.5079206 
-0.39234132 0.91694844 0.07262082 
-0.40256113 0.63636005 0.65802014 
0.14583631 0.8320684 0.53515804 
0.50545 0.32181308 0.80059767 
0.32685032 0.43278855 0.84015644 
0.09938661 0.23310816 0.96735877 
0.13719031 0.17569096 0.9748392 
0.31585786 0.24370603 0.91697395 
0.29812646 -0.15269576 0.9422339 
-0.5763727 -0.27167085 0.77070725 
-0.710456 0.12080999 0.6932945 
0.15997288 0.94298446 0.2918716 
0.42323557 -0.0060052983 0.9059998 
0.71436775 0.45195964 0.5342389 
0.89663243 0.4360375 0.076953195 
0.9957184 -0.011185369 0.09175872 
0.9964577 -0.0612386 0.057636727 
0.77487516 -0.6319 0.016462393 
0.56719136 -0.2895769 0.77099884 
0.12797631 0.6375735 0.75968564 
-0.7534626 0.65739834 0.011019305 
-0.026113342 0.847218 -0.5306033 
0.078313984 0.9234739 -0.37558353 
-0.5004833 0.5318619 0.6831101 
0.27715382 0.79774904 0.5355206 
0.8210763 0.46915337 0.32515985 
-0.39129472 0.30206951 0.86927706 
0.4587377 0.8884353 -0.015572205 
0.76571214 0.2320594 0.599861 
0.5369255 0.7585747 -0.36915496 
0.28899118 0.8967431 0.33516556 
0.23604968 0.9715767 -0.017872103 
0.83474857 0.54891336 -0.04346334 
0.5259575 0.611989 0.5906252 
0.8057601 0.108166605 0.5822807 
0.29441428 -0.17434746 0.93964 
0.38603094 -0.31129918 0.86837375 
0.4069691 -0.35390472 0.8420971 
0.48766053 0.4516395 0.7471339 
0.9097345 0.22872192 0.34651044 
0.6993611 0.18053105 0.6915943 
0.4580913 -0.41179708 0.7877662 
0.5718215 -0.2392703 0.78471005 
0.4083795 0.22059418 0.88575643 
-0.42593116 -0.12849717 0.8955843 
-0.53637135 -0.502017 0.6784429 
-0.19316603 0.55726635 0.80755264 
-0.34211215 0.138302 0.92942554 
-0.6197953 0.5249213 0.58336216 
-0.6793936 0.7008947 0.21718907 
-0.6713663 0.7382146 -0.06562447 
-0.8657777 0.3139874 -0.38966775 
-0.034896668 0.2766869 -0.9603263 
-0.6712569 -0.114202954 -0.7323742 
-0.4693723 0.0049634455 -0.88298655 
-0.03103685 0.29472107 -0.9550792 
-0.32654023 0.57961273 -0.7466061 
-0.8456911 -0.27865592 -0.4551456 
-0.4200364 0.9025421 -0.094800316 
0.21171752 0.80790216 -0.54997265 
0.12571345 0.8013442 -0.58484507 
0.44453055 0.60498196 0.66059774 
0.3504351 0.06700777 0.93418694 
0.70661837 0.34453222 0.61805195 
0.6965901 0.6665269 0.26552612 
0.69218993 0.4011123 0.5999851 
0.40860415 0.122979365 0.90438867 
-0.4525181 0.091308124 0.88706833 
-0.32894784 0.35414657 0.87542766 
-0.6046474 -0.71868545 0.3433552 
-0.50709134 0.38811585 0.7695612 
-0.67909086 0.52716964 0.5108109 
-0.43141907 0.7702579 0.46965998 
-0.07706375 0.82769626 0.5558597 
0.31990862 0.34008777 0.884307 
-0.15724061 0.91148645 0.38008943 
0.781168 0.6242986 -0.005282656 
0.7866047 0.48593742 0.38094342 
0.5446191 0.7236365 -0.42395782 
0.38325837 0.35766488 -0.8515802 
0.21466969 0.6576116 -0.72212464 
0.17107606 0.89980376 0.40135545 
-0.09555331 0.27318028 0.9572054 
0.30153453 0.51418436 0.80292684 
0.08670358 0.56591094 0.8198947 
0.052608423 0.6428787 0.76415926 
0.2272946 0.6199169 0.7510262 
0.11404802 0.0035107194 0.9934691 
0.2421405 0.144896 0.9593608 
0.5892838 0.4830605 0.6476088 
0.3884552 0.24732545 0.88765574 
0.51591194 -0.110351495 0.84950423 
0.420289 0.67922956 0.6016681 
0.52658856 0.5998728 0.60237616 
-0.132809 0.9846385 0.11335307 
0.30101183 0.95086306 0.07246673 
0.48678258 0.42456448 0.76340544 
-0.13767116 0.07764063 0.98743033 
-0.16813524 0.5266431 0.8332932 
0.54238653 0.6012657 0.58676773 
0.56006855 -0.20079282 0.80374473 
0.12466373 -0.1906412 0.9737119 
0.39631516 -0.26356584 0.87947005 
0.5792175 -0.2732533 0.76801026 
0.4546864 0.32039464 0.83102804 
-0.058422554 -0.39380756 0.91733444 
-0.13469177 -0.8245819 0.549475 
0.14812191 -0.71061444 0.6878132 
-0.033776715 -0.48153916 0.87577355 
0.7384727 -0.0730833 0.6703111 
0.8279942 0.2247225 0.51373667 
0.49096474 0.10129708 0.8652703 
-0.40777618 0.58423704 0.701702 
-0.8786839 0.45965308 0.12897198 
-0.26795185 0.93677324 0.22507253 
-0.8384701 0.31631488 0.4437487 
-0.42475933 0.81143236 -0.40144384 
-0.40049297 0.7761346 -0.4870529 
0.53208524 0.8072903 -0.25527945 
0.5552593 0.8252608 0.10311017 
0.4853603 0.3453633 -0.8032121 
0.8489524 0.31920776 0.4211726 
0.39288726 0.48231223 0.78295237 
0.06710534 0.19473378 0.97855794 
0.24512023 0.92993194 -0.2741218 
0.20041399 0.9775695 -0.06474691 
0.48312297 0.72759676 -0.48702684 
0.7080474 -0.06532126 -0.7031374 
0.53042233 0.7930664 0.2994962 
0.58037436 0.6283329 0.51803803 
0.5702847 -0.073964395 0.81811035 
-0.006631532 -0.45490748 0.89051414 
0.02429638 -0.17102459 0.98496723 
0.8744699 -0.45866176 0.15789835 
-0.19045728 0.5009114 0.8442831 
-0.57941306 0.5020445 0.6420528 
-0.10115692 0.6621754 0.7424898 
0.3848784 0.4016277 0.8310017 
0.16413566 -0.10936089 0.980357 
0.018763239 0.18972875 0.98165727 
0.45431787 0.71938026 0.5254402 
0.47322378 -0.00074711675 0.880942 
0.11255897 -0.5485191 0.8285273 
0.07783087 0.47957245 0.8740438 
-0.35417646 0.27714992 0.8931669 
-0.14039159 0.4299213 0.8918845 
-0.048740506 0.8041749 0.592391 
-0.87397474 0.4143715 0.25389847 
-0.114074625 0.8621909 0.49357265 
0.4869697 0.756734 -0.43613538 
0.3010158 0.8629014 0.4059442 
-0.052320767 0.6525778 0.75591314 
-0.44623893 0.38239893 0.8090994 
0.27983016 0.9180875 0.28073198 
0.31601432 0.599164 0.73562044 
-0.102762446 0.8154852 0.5695822 
-0.2475828 0.96841025 -0.029741006 
-0.09125707 0.98132575 0.1693277 
0.565881 0.7963456 -0.2135709 
0.3358888 0.71595734 -0.61203253 
-0.015343221 0.56281495 0.82644063 
-0.38961574 0.37041542 0.84320337 
0.534737 0.60844254 0.58639073 
0.6194402 0.1176785 0.77617365 
0.38074112 0.44828877 0.8087482 
-0.22531153 0.5337056 0.81510323 
0.50086915 0.34562463 0.7935199 
0.62941855 0.6483098 0.42840025 
0.14575446 0.433893 0.8890965 
0.24014923 0.51062834 0.8255829 
-0.018817648 -0.24310017 0.9698187 
0.19704466 0.17189282 0.96520793 
-0.30218846 0.44746855 0.84169716 
0.069212966 -0.109899506 0.99153 
0.62650806 0.3513815 0.6957146 
-0.48387694 0.7152377 0.50428003 
-0.00049559603 0.5523194 0.8336324 
-0.013786805 -0.13628256 0.99057406 
0.030688658 0.026375985 0.9991809 
-0.24852619 0.4114904 0.87687534 
-0.4349959 0.5567676 0.7076641 
-0.2824798 0.8079893 0.51706725 
-0.2215727 0.3667514 0.903548 
-0.35665154 0.25365672 0.899143 
-0.42670774 0.775137 0.46592182 
0.4154701 0.5810262 0.6998523 
-0.5553567 0.58929837 0.5867764 
0.17925702 0.6018026 0.7782677 
0.545611 -0.5294691 0.6495931 
-0.48165804 0.17729157 0.8582385 
-0.37223983 -0.2609953 0.89068455 
-0.16640024 0.91122854 0.37679404 
0.17500855 0.7146601 0.6772245 
-0.46163607 0.5246742 0.7152687 
-0.6151833 -0.024755973 0.78799534 
-0.781555 -0.60760415 0.1413825 
0.22558737 -0.5598452 0.7972977 
0.72176087 0.31293783 0.6173582 
0.30647916 0.9411683 -0.14238232 
0.82391685 0.50192195 -0.26312637 
0.71657443 0.49097735 0.49544156 
0.36303738 -0.06783484 0.9293021 
0.5256333 0.3539983 0.77355987 
0.57918656 -0.05203348 0.81353277 
0.6504516 0.16935861 0.7404258 
0.43051526 0.74700713 0.50659364 
-0.35055593 0.827228 0.43909496 
0.28512153 0.92020506 0.26819497 
-0.23675103 0.58269626 0.7774408 
-0.32496145 0.6678027 0.66965634 
-0.078646034 0.25002608 0.9650398 
-0.09246315 0.43711826 0.89463866 
-0.1342864 0.13586134 0.9815849 
-0.21943295 -0.36192057 0.90601474 
-0.58671176 -0.2719128 0.7627797 
-0.63874197 0.4091151 0.65163916 
-0.5230559 0.79580724 0.30512846 
-0.006732058 0.96192306 0.2732378 
0.41844618 0.74323446 0.5220205 
0.26178238 0.12983246 0.9563543 
0.56924784 -0.1710958 0.8041662 
0.5306113 0.39140454 0.7518339 
0.18388799 0.4053887 0.8954581 
-0.7056837 0.64894277 -0.28440094 
0.4672195 0.86574316 0.17942919 
-0.39713454 0.49858284 0.77051896 
0.26717475 0.16990909 0.9485508 
-0.02280331 0.27026954 0.96251464 
-0.23533519 0.42997986 0.8716277 
-0.49773547 -0.3572012 0.7903587 
0.15024002 -0.2814098 0.9477535 
0.14430897 -0.5488497 0.8233706 
-0.501916 0.46797752 0.7273772 
-0.47905695 0.65273213 0.5868945 
0.30148563 0.5662664 0.7671042 
0.26562768 0.6744169 0.68891495 
-0.073853076 0.9638189 0.25612265 
-0.1405962 0.3213331 0.93647087 
0.16153859 -0.0397407 0.9860659 
-0.265718 -0.5330754 0.8032588 
0.17852716 0.7121538 0.6789442 
0.12957898 0.11520636 0.98485374 
0.61462474 0.38861856 0.6864489 
0.2588379 0.7338783 0.62803316 
0.29353863 0.87986785 0.37372154 
-0.41523603 0.88923985 0.19191553 
-0.14257589 0.9870978 -0.0728709 
0.63482463 0.76402855 0.11514411 
0.7947698 0.39617488 0.45976794 
0.3296772 0.3392761 0.88102484 
0.6102378 0.64454496 0.46062094 
0.62695575 0.47795624 0.6152109 
0.044742513 0.49372318 0.8684674 
0.053990208 0.258554 0.9644869 
0.17321841 0.36168954 0.9160655 
-0.15648717 -0.28646263 0.9452254 
0.0036617036 0.6108248 0.79175735 
-0.7777462 0.12865284 0.6152718 
0.24179955 0.73450094 0.6340674 
0.112057954 0.2463713 0.96267563 
0.40203792 0.63994884 0.654852 
0.08533857 0.23825513 0.9674461 
-0.69261575 -0.102514915 0.71398467 
-0.62875354 0.03013402 0.7770206 
0.096916884 -0.34507504 0.9335579 
-0.40456882 0.5850692 0.7028643 
-0.3838925 0.25999215 0.8860195 
-0.16770452 0.59546435 0.78568286 
0.5443271 0.11570636 0.83085513 
0.6990117 0.4556748 0.5511291 
0.49923977 0.26345184 0.82544106 
0.73488075 -0.24531381 0.63227487 
0.6244908 -0.34075716 0.70277727 
0.22911033 -0.96214336 0.14760956 
0.54638016 -0.6423907 0.53740394 
0.13575496 0.07803328 0.98766464 
-0.8050768 0.5929135 0.017469842 
-0.22495824 0.96615297 0.12626322 
0.54581326 0.5830764 0.6017557 
0.06453066 0.47277042 0.87881964 
0.42559475 0.3837407 0.81951946 
0.16545896 0.5439448 0.8226466 
0.18052313 0.30510172 0.9350532 
-0.039421014 0.28799647 0.9568197 
0.21137637 0.73684627 0.6421664 
-0.101168565 0.256162 0.9613251 
0.64936334 0.4033267 0.6447131 
-0.080508836 0.9332841 0.34999895 
0.54450303 0.4565692 0.70360583 
0.66916573 0.4448053 0.5952861 
0.50663775 -0.18558517 0.84194803 
-0.20339866 0.19022779 0.96043867 
-0.5831661 0.20726614 0.78546673 
-0.37812322 0.8682535 0.3211834 
-0.32665408 0.57311326 0.7515573 
0.6300344 0.12830526 0.7658946 
0.3769994 0.17730403 0.90908456 
0.52793765 0.005887958 0.8492628 
0.7393073 -0.27448973 0.6148823 
0.72035104 -0.112565055 0.6844148 
-0.2713363 0.1891694 0.94371164 
-0.32091948 0.031322505 0.9465884 
-0.08974011 -0.094828255 0.99144053 
-0.1658933 0.24869038 0.9542707 
-0.664392 -0.25023994 0.70424664 
-0.48378482 0.7006984 0.52437973 
-0.89491814 0.33467212 0.29515433 
-0.788256 0.49176332 -0.36989373 
0.22986929 0.96527004 -0.12415314 
-0.3710283 -0.4524064 -0.8109664 
-0.34221444 -0.7882166 -0.5114724 
-0.50532883 -0.21515651 -0.8356737 
0.14428823 0.689789 -0.7094872 
0.430933 0.5887446 -0.6838689 
-0.07889238 0.9871709 0.13881522 
-0.07421048 0.99067956 -0.11422348 
0.005373086 0.884401 -0.4666968 
0.13757783 0.5642611 0.81405264 
0.30802068 0.26277813 0.9143691 
0.13491513 0.3457069 0.9285928 
-0.03280281 0.25591552 0.96614254 
0.054362934 0.4816062 0.8747001 
0.07848633 0.47704044 0.8753699 
0.13302588 -0.0730435 0.9884174 
0.22801794 0.519937 0.8232093 
-0.54429203 -0.4378323 0.71557605 
-0.61296564 0.045641378 0.78879017 
-0.050312914 0.51037145 0.85848105 
-0.2569651 0.21242414 0.9427858 
0.06293342 0.53529304 0.8423187 
0.3966864 0.17145076 0.9018008 
0.5157771 0.45859593 0.7236462 
0.1266625 0.9890351 0.07593638 
0.23533683 0.90846366 -0.3454135 
0.46716464 0.8409626 -0.27301866 
0.65949684 0.74815965 -0.072946616 
0.034470715 0.8638214 0.5026176 
-0.0099101765 0.10786609 0.99411607 
0.7112969 0.39660463 0.58031154 
0.38429382 0.42610297 0.81899613 
-0.24399577 0.021576405 0.9695363 
0.27113864 0.1610924 0.9489642 
0.08746795 0.10548805 0.9905664 
0.38666835 0.17474791 0.9055113 
-0.028636083 -0.08670396 0.9958225 
0.854442 -0.15210266 0.49678326 
0.80616325 0.336861 -0.48644182 
0.13717468 0.52842706 0.83782345 
0.25736603 0.67935055 0.68720126 
0.5415773 0.81666654 0.1993741 
0.01018697 0.93055975 0.3659983 
-0.22515419 0.96691793 0.11989719 
0.14066204 0.39061803 0.9097428 
-0.2942116 0.22740395 0.9282925 
-0.14207268 0.69959885 0.70026916 
0.6136324 0.785109 0.084018685 
0.42897293 0.82375205 0.3706951 
0.74473566 -0.23272136 0.6254675 
0.5943276 -0.5337639 0.601557 
0.4074808 -0.40687978 0.81756246 
0.4336071 -0.463731 0.77261806 
-0.06720431 -0.51907974 0.85207975 
-0.25599158 -0.7851517 0.5639194 
0.015974209 -0.5018889 0.86478466 
-0.0058569657 -0.16512743 0.9862549 
-0.5303062 0.07265305 0.84468746 
0.19694878 -0.09221639 0.97606725 
0.0803184 -0.099336796 0.9918071 
-0.25164995 -0.11825152 0.960567 
-0.6063183 0.36544013 0.7062802 
-0.5585108 0.25709632 0.788649 
-0.4122382 0.64434206 0.64411414 
-0.6588861 0.515389 0.5479446 
0.01173123 0.9919673 -0.12594907 
0.4849279 0.8738187 0.035861418 
0.3935339 0.912595 -0.11091224 
0.7690922 0.4606047 0.4431032 
0.8326481 -0.097892985 0.5450818 
0.5686583 0.10433502 0.81593007 
0.012977636 0.011018972 0.99985516 
0.26338232 0.6899571 0.67423224 
0.34313303 0.82074463 0.45676923 
0.25593385 0.9666529 -0.008949071 
0.5852001 0.40958506 0.6998436 
0.67603093 0.070619404 0.73348147 
0.28295216 0.34401172 0.8953179 
0.3893291 0.15431976 0.9080795 
-0.19278665 0.5843198 0.78829175 
0.79412305 -0.36657098 0.48476213 
0.72567874 0.14375336 0.67284876 
-0.6092961 0.21445629 0.7633916 
-0.7905676 -0.28026432 0.5444768 
-0.44796097 0.8939467 -0.0137996655 
-0.09533757 0.76784366 0.63350374 
-0.18274666 0.40698996 0.8949653 
-0.16835248 -0.15425022 0.97358334 
0.39033982 0.5313931 0.75183517 
0.132592 0.79810053 0.58775413 
0.52726936 -0.060877588 0.8475146 
0.38960335 -0.15898307 0.90715694 
-0.16260618 0.29674983 0.94100946 
0.16779551 -0.22745007 0.9592242 
-0.55276644 0.21101776 0.8061766 
-0.20056254 0.78253657 0.58941597 
0.023936363 0.90409327 0.42666426 
0.0387396 0.5807133 0.81318593 
-0.08076285 0.58112496 0.80979705 
-0.17639914 -0.0064913044 0.98429734 
0.119974524 0.52528286 0.84242755 
0.36091155 -0.23907124 0.9014365 
-0.18724756 0.035562787 0.9816689 
-0.24760655 0.75514823 0.6069945 
-0.2344351 0.9585291 0.1620558 
-0.03434785 0.9958855 0.08385986 
0.309446 0.75791484 0.5742895 
0.7055717 0.6786111 0.20409706 
0.5126965 0.42923558 0.74357194 
0.5212556 0.26514566 0.81116605 
0.33472615 -0.19842592 0.92118704 
-0.09599965 0.23818424 0.9664638 
0.21427144 0.41237783 0.885456 
-0.25586995 0.30312273 0.91795826 
0.81026053 0.07276913 0.5815346 
0.5922773 0.43160823 0.6803838 
0.37156343 -0.00739652 0.9283781 
0.58332026 -0.33661124 0.7392093 
0.5133925 0.2463748 0.82202655 
-0.06227755 -0.03817727 0.99732846 
0.10339518 -0.13267556 0.98575187 
0.13655502 -0.35304034 0.9255892 
-0.09450479 0.5418601 0.8351387 
0.2105304 0.65949464 0.7216258 
0.4682878 0.038937762 0.88271767 
0.5577971 0.5117872 0.65340376 
0.34919876 0.069264345 0.9344853 
-0.21396492 0.34655243 0.91330194 
0.08148908 -0.055549093 0.9951251 
-0.21361503 0.43234074 0.8760424 
-0.82518786 0.06908415 0.5606179 
-0.0340134 -0.6907403 0.7223026 
-0.45933864 0.59539473 0.6591762 
-0.33994833 0.77693695 0.52990955 
-0.79746026 -0.5899967 -0.12633756 
-0.22659041 -0.33686268 0.9138821 
0.20650125 -0.096291184 0.97369677 
-0.109845586 0.093822755 0.98951066 
0.17428589 -0.43299556 0.8843864 
-0.00972001 0.83269304 0.55364966 
0.5960887 0.5551362 0.58008796 
-0.08474127 0.08044399 0.9931505 
-0.20158708 0.4616197 0.8638692 
-0.29407978 0.17611536 0.93941504 
0.18421029 0.21149434 0.9598629 
0.65565485 0.33846238 0.67495185 
0.16697906 0.060291532 0.98411536 
0.16636811 -0.6741474 0.7196159 
0.44840232 0.6111759 0.65222657 
0.22239344 0.18827723 0.95660484 
0.75524634 -0.08757573 0.6495641 
0.43064243 0.03742752 0.90174633 
0.3968451 -0.32253876 0.85935026 
0.45129934 0.20205854 0.8691958 
0.023162404 0.16524805 0.98598003 
0.19152512 0.7924668 0.57906353 
-0.23552518 0.42479447 0.8741153 
-0.13924949 0.52309537 0.84082156 
-0.04039658 0.14354105 0.98881954 
0.15676844 0.056378286 0.9860249 
-0.95785666 0.28697708 0.012448041 
-0.565642 0.07826963 0.8209283 
-0.30406508 0.10717498 0.9466035 
0.035135947 0.2727354 0.9614473 
-0.28218296 0.29969433 0.9113485 
0.3442739 0.73033744 0.5899854 
0.05715732 0.5418319 0.83854115 
-0.10848234 -0.09935288 0.9891212 
0.4875321 -0.33701378 0.8054404 
0.120494455 0.50974655 0.8518448 
-0.22065699 0.16177025 0.9618424 
0.0016061676 0.9853947 -0.17027865 
-0.16134882 0.67309797 0.721738 
-0.59528613 0.27744117 0.75409615 
0.54592687 0.37800515 0.74771386 
0.34712327 0.16768551 0.9227064 
-0.64691144 -0.26973122 0.7132676 
-0.14039312 -0.21054459 0.96745074 
-0.09837214 -0.6685302 0.7371501 
0.25199643 -0.810016 0.5295016 
-0.078258395 0.33930233 0.9374165 
-0.09839798 0.209243 0.9729004 
0.18448536 -0.122089155 0.97522277 
0.4649657 -0.21171291 0.8596421 
-0.08044591 0.76114964 0.643568 
0.56128496 0.45954555 0.6883147 
0.12288272 0.5890901 0.79866946 
0.23220512 0.5245462 0.8191045 
0.15493244 0.8285014 0.53812766 
0.71420467 0.6367022 0.29072693 
0.668451 0.35651672 0.65273976 
0.75803965 -0.045640133 0.6506096 
0.75562733 0.35405168 0.551067 
0.5964482 0.33108076 0.7311875 
0.32389536 0.2096755 0.922566 
-0.5162971 -0.1643783 0.84048635 
0.49354836 0.20868793 0.84431 
0.5320885 0.007311374 0.8466572 
0.5939614 0.5600704 0.5775215 
0.55709016 0.34202278 0.7567504 
0.8936996 -0.20240554 0.40041614 
-0.12963225 -0.3677458 0.9208467 
0.14906946 -0.24381018 0.9582979 
0.46372336 -0.60550284 0.646782 
-0.1768165 -0.053756822 0.98277473 
-0.7797648 0.3922268 0.48798048 
0.44559547 0.72817844 0.5207696 
0.18158416 0.5149538 0.83776486 
0.52905124 0.70849794 0.46704978 
-0.28048667 0.65706384 0.69971025 
-0.50271344 0.06580871 0.8619446 
-0.6730103 -0.23873025 0.70004654 
-0.79319763 -0.057151385 0.6062765 
-0.016934076 0.26267827 0.9647349 
0.27912256 0.47542587 0.8343026 
0.40610945 0.4611252 0.7889479 
-0.35015494 0.040197164 0.935829 
0.61675996 0.1541515 0.77190965 
0.50831115 0.6565338 0.5572999 
0.3975021 0.17419624 0.90091497 
-0.017904356 -0.18630068 0.98232967 
-0.2574376 -0.2793992 0.92502 
0.33144352 -0.07339942 0.94061565 
0.0005323875 0.074917614 0.99718964 
-0.32141304 0.1919714 0.9272759 
0.39341328 0.22953781 0.89024633 
0.031163992 0.077123 0.99653447 
-0.1007351 0.08859962 0.9909604 
0.6791409 0.31656855 0.66223264 
0.015512598 0.5656546 0.82449645 
0.03131512 -0.17693108 0.983725 
-0.23026185 -0.12864293 0.9645883 
0.0742676 0.18751273 0.9794505 
-0.173752 0.38539112 0.9062472 
-0.32495016 0.80385166 0.4982267 
-0.25013155 0.905826 0.34192613 
-0.007243988 0.4159069 0.9093784 
0.19357614 0.09834364 0.97614384 
0.47456017 0.3992678 0.7844603 
0.30694258 0.07340791 0.9488928 
-0.13598235 0.32878572 0.9345634 
-0.13748571 0.66433126 0.7346848 
-0.16798198 0.76206887 0.6253266 
-0.25853297 0.0017364493 0.9660009 
0.5677111 -0.65365666 0.50043684 
0.6976753 0.12581183 0.7052806 
0.36092585 -0.50361335 0.7849244 
0.19713038 0.67899716 0.70717925 
-0.2927546 0.5184414 0.8034384 
0.024384197 -0.090385005 0.9956084 
-0.06276526 0.2494861 0.9663422 
-0.3916632 -0.15155296 0.9075416 
-0.27647007 0.4142856 0.8671401 
-0.19552256 0.73013586 0.6547309 
-0.020722982 0.9234933 0.3830544 
-0.24889489 0.90690637 0.33995917 
-0.19209696 0.6234289 0.757915 
-0.9684644 0.17919543 0.17310636 
-0.84359205 0.22630005 0.486971 
-0.13745764 0.98974425 -0.03888309 
0.5809481 0.76549196 0.27662516 
0.21129031 0.9067333 -0.36495382 
0.6816365 0.55449736 0.4773933 
0.18027231 0.9829074 -0.03734973 
-0.719508 0.6537074 0.23446754 
-0.20445895 0.32606533 0.9229724 
-0.30917725 0.6857152 0.65894175 
0.16090946 0.14225341 0.97666377 
-0.09446645 -0.3357312 0.93720895 
0.36699343 0.3099752 0.8770583 
0.46560797 -0.17362976 0.8677914 
0.09998042 -0.3734236 0.9222574 
0.024132298 0.5220725 0.8525597 
-0.28718907 0.26780573 0.91967535 
-0.12390253 0.54380757 0.83001304 
-0.1983923 0.38364887 0.9019169 
0.19747321 0.38054854 0.90343076 
-0.46905804 0.030781569 0.8826308 
-0.3340829 0.5367029 0.77481526 
-0.4890245 0.2669839 0.8304064 
0.051349748 0.79215115 0.608161 
0.50624144 0.75550777 0.41584554 
0.71810305 0.67253107 0.17896934 
0.23326668 0.9223924 0.30786192 
0.31232005 0.9370735 -0.15604353 
0.2659923 0.963519 0.02965514 
0.18334559 0.40160882 0.8972708 
-0.23184976 -0.08178956 0.96930707 
-0.15795982 -0.044728074 0.9864321 
0.28798476 -0.060892556 0.95569706 
-0.06623257 0.03319761 0.99725187 
-0.35163385 0.009968438 0.93608457 
0.09410714 -0.04619651 0.99448967 
0.9845652 -0.016236614 0.17426348 
0.7725018 0.6160333 -0.15409064 
0.3954204 0.5104905 0.76357204 
0.37697887 0.43744344 0.8164129 
0.29066756 0.8399729 0.45821166 
-0.4602031 0.51981634 0.719725 
-0.5708975 0.45832223 0.6811878 
-0.51210594 0.83717334 0.19206333 
-0.31449068 0.3309162 0.8897135 
-0.10350571 -0.33442175 0.9367223 
0.8149162 0.3611574 0.45329592 
0.5154544 0.5436709 0.662366 
0.010374839 0.26841062 0.9632488 
0.2505639 0.38267115 0.8892585 
-0.032227818 -0.38539678 0.922188 
0.37846202 -0.46486646 0.800416 
-0.46486634 -0.45788637 0.757786 
-0.68845785 -0.70081383 0.18677773 
0.06615339 -0.80400074 0.590937 
0.320949 -0.70649624 0.63075745 
0.036264062 -0.31024995 0.9499631 
0.2469623 0.292588 0.9237976 
0.030000735 -0.81493855 0.5787704 
0.01506474 -0.4564627 0.88961506 
-0.19174905 -0.078726836 0.97828144 
-0.65779155 -0.48159626 0.579116 
-0.13817896 0.31016856 0.94058603 
-0.20960379 -0.16026644 0.96456265 
-0.06358932 0.46389616 0.8836044 
-0.3019449 0.5061586 0.8078569 
0.32182702 0.91315323 0.25015748 
0.4999983 0.78628963 0.36297426 
0.49073943 0.090485856 0.8665951 
0.09208833 0.24468245 0.9652204 
-0.18906091 -0.0004655517 0.98196524 
-0.2668348 0.6395709 0.7209357 
-0.44874692 0.6249297 0.6388185 
0.5940447 0.73107356 0.33562258 
0.75454164 0.3339318 0.5649394 
0.8085555 0.24291457 0.535939 
0.43462384 0.36879194 0.82164145 
-0.53101987 0.30333665 0.79120475 
-0.051311802 0.7677259 0.6387207 
-0.5177885 0.8254427 0.22480978 
-0.15524429 0.6872808 0.7096087 
0.083922856 0.25437635 0.9634572 
-0.8716092 0.13914186 0.4700395 
-0.49801183 0.3992855 0.7697762 
-0.36358258 0.5794844 0.72938716 
-0.56595826 0.46558633 0.6803827 
-0.16931942 0.27835292 0.9454367 
0.36834392 0.24994537 0.8954608 
0.50651693 0.7144585 0.48268995 
0.47130245 0.48894247 0.7340363 
0.65039057 -0.24400695 0.71934193 
0.5598912 0.54319656 0.6256672 
0.917024 0.081804 0.39035243 
0.45139733 0.61809075 0.6435872 
0.93622357 0.14958799 0.31797633 
-0.023145452 0.80921024 0.5870631 
0.013701461 0.5452269 0.8381766 
0.61395425 0.5554311 0.5608533 
0.14742175 0.20167701 0.968294 
0.34735334 0.073202744 0.93487275 
0.09403563 -0.5101454 0.8549322 
0.34382623 -0.34645745 0.87278336 
0.2433975 0.046058 0.96883255 
-0.03554904 0.8828557 0.46829697 
-0.31040964 0.890334 0.3330935 
-0.13780993 0.94572705 0.29429376 
0.47077364 0.8529309 0.22556847 
0.37277353 0.7251498 0.5789626 
0.49153265 0.6578136 0.5706812 
0.21551919 0.8682156 0.44693747 
0.74715817 0.02998498 0.66396964 
0.76192516 -0.25318417 0.5961273 
0.1217056 -0.46720746 0.8757311 
0.16705805 -0.103924334 0.9804547 
-0.10513057 0.21553835 0.9708197 
0.7396999 -0.17121854 0.6507906 
0.20943387 0.10283165 0.9724007 
0.5865518 -0.14588502 0.79666466 
0.4190695 -0.43115574 0.7990529 
0.12435848 0.07782779 0.9891804 
0.23560105 0.13844806 0.96193784 
0.33211082 0.2492202 0.90972066 
-0.113866806 -0.04385032 0.99252784 
-0.008693063 0.36199272 0.93214047 
0.46539906 0.7149434 0.521785 
0.49795428 0.3164994 0.80738443 
0.55001265 -0.22220778 0.80505264 
-0.28247473 0.30302894 0.91015476 
-0.14181854 0.40092647 0.90506667 
-0.72771335 -0.0951298 0.6792522 
-0.48812753 0.10508197 0.8664233 
-0.5299664 -0.20299168 0.82336503 
-0.5737201 0.32348284 0.7524654 
-0.78142977 0.034472086 0.6230404 
-0.62301135 -0.70518637 0.3384806 
0.36021617 0.057401367 0.93110126 
-0.5200704 -0.07779669 0.85057306 
-0.23911738 -0.0021718289 0.9709883 
0.3804015 0.3955386 0.83596885 
-0.19791566 0.3672712 0.90881306 
-0.28063226 0.15258807 0.94760877 
0.21607609 -0.27081615 0.938067 
0.7644316 0.32489687 0.5568541 
0.30564606 0.31128657 0.8998229 
0.32351428 0.68039936 0.65756774 
-0.19953005 0.21130958 0.95683646 
0.6665604 -0.6572555 0.35172784 
0.55863917 0.09117388 0.8243845 
0.31928477 -0.4567905 0.83030105 
0.44571596 0.08707832 0.89092916 
0.29002708 -0.12834105 0.9483738 
0.22953197 0.14857204 0.9618947 
-0.051871 -0.08353308 0.9951541 
0.25734532 -0.13735588 0.9565076 
0.7397052 -0.027184637 0.67238176 
0.48384848 -0.027016126 0.87473476 
0.72565323 0.29131413 0.6233486 
0.4966801 -0.5493117 0.6719864 
0.04646036 -0.14608541 0.98818046 
-0.26482293 0.005279494 0.9642826 
-0.32200304 -0.18295586 0.9288925 
-0.047683146 -0.08540546 0.9952046 
-0.38574436 0.12505333 0.91409135 
-0.38202184 -0.1348034 0.9142688 
0.18980601 -0.17215392 0.9666109 
0.13392745 0.31662634 0.93904805 
0.15160887 -0.12649389 0.98031324 
-0.22728531 -0.6386908 0.73512954 
0.046504047 0.79608154 0.6034 
0.05372094 0.60326505 0.7957296 
-0.049863923 0.5725244 0.81837004 
0.06306483 0.39370355 0.9170717 
-0.67941445 0.23875947 0.6938227 
0.54083234 -0.3289982 0.7741192 
0.16662085 0.14355086 0.9755156 
-0.15270159 -0.1105003 0.9820754 
-0.25699767 -0.64968747 0.7154429 
0.4987639 -0.6290877 0.59622425 
0.73219746 -0.60864574 0.30567524 
-0.30026004 0.1492101 0.9421148 
0.34447715 0.7506719 0.5637617 
0.3902331 0.37626514 0.8403229 
-0.220774 0.15841722 0.9623736 
-0.07214322 0.14853092 0.98627275 
0.62632805 0.18542528 0.757186 
0.3974088 0.61171997 0.68400663 
0.21972938 -0.1448133 0.9647529 
0.030526638 0.2731327 0.96149194 
-0.14576858 0.7431858 0.65301335 
-0.07755967 0.99563533 0.051912196 
-0.06586492 0.5192865 0.8520584 
-0.055233773 0.77644414 0.62776107 
0.41849098 0.84924257 0.32195097 
-0.1669036 0.2083221 0.9637143 
-0.38022497 -0.50141597 0.77718145 
-0.28110772 0.28410318 0.9166592 
0.014825163 0.009269112 0.9998472 
0.6821172 0.0036456909 0.7312338 
0.4691906 0.16209543 0.8680929 
0.52100337 0.14328776 0.84144175 
0.3178184 -0.347549 0.8821572 
0.7194454 0.08069946 0.6898449 
0.46263573 -0.19759206 0.86424863 
0.37459907 -0.0797443 0.9237513 
-0.11265505 0.20414029 0.97243804 
0.08890889 0.8265417 0.5558095 
0.42904735 0.34855497 0.8333234 
0.25060695 0.3876191 0.88710076 
-0.36325327 0.13001896 0.92257375 
-0.7203329 0.59796804 0.35150352 
-0.89984953 0.38997006 0.19543359 
0.21103476 0.802268 0.5584178 
0.19931956 0.47524095 0.8569818 
-0.007023402 0.16093744 0.98693967 
0.19395098 0.38853452 0.90079075 
-0.33529356 0.24627975 0.909354 
0.6391834 -0.43995908 0.63077784 
0.62879866 -0.31144714 0.71246964 
0.28815848 0.072637744 0.95482385 
0.34844887 0.37989593 0.85689116 
-0.25960198 -0.31994337 0.91117674 
-0.2204592 -0.26316002 0.9392255 
0.25229225 0.20007195 0.9467417 
0.017601848 -0.16677755 0.98583746 
0.0048363917 0.23012736 0.9731486 
-0.2886141 -0.16023153 0.94394267 
-0.03804217 -0.17375973 0.984053 
-0.19806494 0.3318497 0.9223048 
-0.67289954 0.20380922 0.71110344 
-0.43209645 0.23983766 0.8693507 
-0.47355884 -0.008349983 0.8807227 
-0.07480281 -0.6014391 0.79540914 
0.015427418 0.092362925 0.9956059 
-0.5699703 0.15053606 0.80775785 
-0.5063362 0.12785329 0.8528056 
0.056731213 -0.19542159 0.9790771 
0.55362415 -0.06190254 0.8304627 
-0.0066284016 -0.014853118 0.9998678 
-0.07719024 0.12006978 0.9897601 
-0.2801051 0.30209374 0.91119725 
-0.5338536 -0.039134346 0.84467095 
-0.21432851 -0.30437717 0.92812604 
-0.39609134 -0.7041618 0.58929425 
-0.095860474 -0.6908401 0.7166246 
0.82057995 -0.1286515 0.556864 
0.96330655 -0.0069654826 0.26831332 
0.4700825 0.17315836 0.8654703 
-0.17618869 0.49404868 0.851395 
-0.33263293 0.013567776 0.94295883 
-0.11839728 -0.47279274 0.87318337 
0.08114808 -0.7931972 0.60353386 
0.5897949 0.017811794 0.80735666 
-0.022849618 0.39868486 0.9168033 
-0.54268944 0.6930925 0.47445872 
-0.22857298 0.7135102 0.6623124 
-0.4026764 -0.28166857 0.8709274 
-0.3234668 0.74689883 0.5809573 
-0.82383364 -0.08996048 0.5596474 
-0.22997928 0.6212277 0.7491233 
0.34774444 0.8511863 -0.39313594 
0.36966833 0.83518755 0.40719435 
0.04410746 0.7859665 0.61669374 
-0.31222063 0.7997188 0.5128043 
-0.5580466 0.6894974 0.46171135 
0.62284845 0.6836731 0.38033006 
0.41082203 0.6865087 0.5999426 
0.3007473 0.21019065 0.9302532 
-0.11678397 0.9241582 0.36372143 
0.16159698 -0.49683905 0.85266495 
0.77610266 -0.4220367 0.46856123 