# OOMMF: rectangular mesh v1.0
# Segment count: 1
# Begin: Segment
# Begin: Header
# Desc: Time (s) :  4.300000000000001e-08
# Title: m
# meshtype: rectangular
# meshunit: m
# xbase: 2e-09
# ybase: 2e-09
# zbase: 5e-10
# xstepsize: 4e-09
# ystepsize: 4e-09
# zstepsize: 1e-09
# xmin: 0
# ymin: 0
# zmin: 0
# xmax: 1.024e-06
# ymax: 1.024e-06
# zmax: 1e-09
# xnodes: 256
# ynodes: 256
# znodes: 1
# ValueRangeMinMag: 1e-08
# ValueRangeMaxMag: 1
# valueunit: 
# valuemultiplier: 1
# End: Header
# Begin: Data Text
-0.21647245 0.5885986 0.7789041 
-0.69853127 0.4802097 0.5305213 
-0.3141286 -0.7371996 0.598214 
-0.387867 -0.20725365 0.898112 
-0.64579487 0.5186344 0.56032795 
0.054028176 0.60112566 0.79732615 
-0.72742116 0.5069681 0.4624305 
-0.20588848 0.85626626 0.473728 
0.40222794 0.50985974 -0.76043135 
0.08369665 -0.27545077 -0.9576647 
0.6024147 0.1957516 -0.77380735 
0.8407333 -0.21959898 -0.49491808 
0.9724239 -0.18461055 0.14251564 
0.24179734 0.40742996 0.88064456 
0.14491425 0.16630849 0.97536737 
0.22299463 -0.019477561 0.97462505 
-0.3291634 0.8663215 0.37568423 
0.18683876 0.9775934 0.09696677 
0.07521945 0.98119056 0.17778394 
-0.044540066 0.99689263 -0.06497117 
0.46808776 0.7704474 -0.4327873 
0.45204538 0.88946444 0.06714233 
0.46177045 0.7970194 0.3892661 
0.6339169 0.3696255 0.6793573 
0.013461207 0.33903116 0.9406789 
-0.7381239 0.49886107 -0.4542144 
-0.48583716 0.5680704 -0.6642728 
0.504874 0.86064726 -0.066245444 
0.3735798 0.907657 0.19130315 
0.6046431 0.2849132 0.74379516 
0.7775078 0.62817633 -0.02959964 
0.5718103 0.80949646 0.13322334 
0.74510235 0.65990067 -0.09671487 
0.40985137 0.7760429 -0.47935325 
0.7161109 0.67912513 -0.1611657 
0.8460155 0.27740952 0.4553041 
0.10970109 0.6848568 0.7203728 
-0.18016893 0.47907248 0.859086 
0.10409396 0.36216903 0.9262818 
0.6351733 -0.07161519 0.76904243 
0.35169187 0.4210196 0.83609533 
0.4392397 0.43820104 0.78425026 
0.55073726 0.014120342 0.8345592 
0.5626986 0.32300523 0.76094544 
0.007459044 0.5935435 0.80476743 
0.036196575 0.16047278 0.98637635 
-0.79316133 0.16169405 0.58715445 
-0.942119 0.27215445 -0.19581594 
-0.8568059 0.45050433 0.25085738 
-0.61208296 0.5149259 0.60017157 
-0.98067087 0.19440001 -0.02221376 
-0.5645999 0.5971078 0.56981516 
-0.76250154 0.5640517 0.3169182 
-0.37350446 0.6196939 0.69027096 
-0.019410841 0.96553344 0.25955456 
-0.0084511265 0.3920422 0.9199084 
-0.36852425 0.5318583 0.7624412 
0.13707185 0.9170942 0.3743658 
-0.38318366 0.13841097 0.91324306 
-0.45895633 0.7759384 0.4327572 
-0.32748356 0.8160039 0.47633204 
0.14224768 0.7593909 0.6348946 
0.22232577 0.5379056 0.8131598 
-0.31941423 0.54897356 0.77240056 
-0.5776206 0.54447836 0.6081922 
-0.6504663 0.6143202 0.446659 
-0.5806093 0.5832058 0.5681231 
-0.15112256 0.6987449 0.6992265 
0.011418594 0.7103122 0.70379424 
0.5347545 0.18566214 0.8243587 
-0.37094492 0.92756724 -0.04493233 
-0.44309995 0.890655 -0.10196183 
-0.24014212 0.95912117 0.14972779 
-0.19498594 0.9805727 0.021393117 
-0.49884567 0.83738524 -0.2234705 
-0.8927363 0.40287438 0.20177735 
-0.3135183 0.6894782 0.6529366 
-0.25667983 0.92911714 0.26618958 
-0.5928032 0.5048773 0.6274418 
-0.030339353 0.99937636 -0.018067816 
0.7651588 0.37956154 0.5200626 
-0.15583332 0.5130499 0.8440947 
-0.80569357 0.4373824 0.3994431 
-0.13749206 0.7829217 0.60673684 
-0.22635874 0.6817743 0.695662 
-0.44328126 0.38396665 0.80998236 
0.031102791 0.14622357 0.9887625 
-0.22543785 0.14762332 0.9630084 
-0.18212314 0.86146194 0.47404057 
0.14049831 0.7979668 0.5860967 
-0.4115434 0.8812779 0.23233879 
0.18804501 0.54956955 0.81401014 
-0.20349318 0.5319253 0.821977 
0.308804 0.73034835 0.6092876 
0.05311393 0.63786364 0.7683157 
0.6351394 0.56479466 0.52688235 
0.33862802 0.45806122 0.8218949 
0.09309479 0.83008426 0.5498124 
-0.30412918 0.53914785 0.78538215 
-0.9864957 -0.10092939 -0.12899499 
0.66456515 0.5002172 0.5551001 
0.4001791 0.050541252 0.91504234 
0.34698915 0.24170204 0.90618914 
0.7050415 0.3753228 0.6017053 
0.6383246 0.22698472 0.73554045 
0.24179418 0.18172686 0.9531585 
-0.6853304 0.70055693 0.19885279 
-0.8024731 0.5394635 0.25498262 
-0.35253686 0.9357528 0.009194762 
-0.43080485 0.77580154 0.46101984 
-0.39140493 0.8781421 0.2750793 
-0.6925205 0.7196503 0.050188653 
-0.6214676 0.5720934 0.53524494 
-0.5256255 -0.05665081 0.8488277 
-0.23822659 -0.32164496 0.916402 
-0.07600143 0.28805304 0.95459384 
-0.812097 0.27381992 -0.5152876 
-0.7716511 0.6186828 -0.14760128 
-0.036401954 0.8818713 -0.47008288 
0.75361156 0.26358506 -0.6021567 
0.7736517 0.6252706 0.10246828 
0.5676591 0.41662216 0.71006286 
-0.036204707 -0.4332985 0.900523 
0.43020505 -0.31175047 0.84719265 
0.32040417 -0.016720591 0.94713336 
0.47250795 0.15792848 0.86706114 
-0.20362541 0.97742265 -0.056407053 
0.21768859 0.7219685 0.6567902 
0.69172335 0.4107037 0.5940046 
0.25652438 0.63085204 0.73227113 
-0.48961142 0.7148431 0.49927962 
-0.4525892 0.6304345 0.6306468 
-0.18568558 0.73710114 0.6497714 
-0.22273442 0.018800508 0.9746978 
0.14278191 -0.44835332 0.88237906 
-0.58827764 -0.5067958 0.63014877 
-0.8061808 -0.21913238 0.5495941 
-0.55529934 -0.036062233 0.83086836 
-0.40689492 0.19355795 0.8927329 
-0.2358001 0.52854395 0.81549954 
-0.094966345 0.48072058 0.8717162 
-0.13917366 0.92181396 0.361787 
-0.2860442 0.25779623 0.9228867 
-0.24808846 0.5136769 0.8213331 
0.0598689 0.75969875 0.6475134 
-0.3979909 0.901675 0.16907229 
-0.14013685 0.77418154 0.6172556 
-0.36319244 0.65278363 0.66480434 
-0.012779982 0.7808346 0.6246071 
0.6856739 -0.056459684 0.725716 
0.12920107 0.51878 0.84508836 
0.087826125 0.91022974 0.40468305 
-0.07801207 0.90322155 0.42202476 
-0.32979542 0.9429771 -0.045048118 
0.29329363 0.7807044 -0.55179673 
0.83607835 0.54802054 -0.025430059 
0.50340253 -0.7280713 0.46529368 
0.15486932 -0.8207912 0.54983395 
-0.112833604 -0.07349465 0.99089205 
-0.85532343 -0.50925285 0.09530712 
-0.7704489 0.5965657 0.22476183 
-0.051278815 0.392713 0.9182304 
-0.23225135 0.94440246 0.23273003 
-0.6428114 0.7522221 -0.14475979 
-0.43721026 0.882031 0.17569397 
0.07375366 0.96027267 0.26914126 
0.6528333 0.6893897 0.31392768 
-0.035820648 0.5443684 0.8380811 
0.18525359 0.11768996 0.9756178 
0.02190934 0.6925286 0.7210577 
0.54708594 0.19138227 0.81490475 
0.06195633 0.013157721 0.99799216 
-0.19941074 -0.05484337 0.9783801 
0.17193128 0.32288185 0.93069166 
-0.23870389 0.3245871 0.91523975 
-0.47065648 0.5160671 0.71565163 
-0.15895702 0.40051743 0.90239596 
0.018141486 0.46478945 0.8852354 
0.081174485 0.7596999 0.6451875 
0.05630491 0.91969585 0.3885734 
0.25211778 0.7889177 0.56039757 
0.52234834 0.2073487 0.82713896 
0.3255173 -0.047349993 0.9443498 
0.63552123 0.60804623 0.47580743 
0.39196497 -0.23668511 0.88901275 
-0.3777913 -0.3481623 0.8579375 
-0.61985886 0.037559528 0.7838139 
-0.9955279 0.09265723 -0.018410483 
-0.7796052 0.46082243 -0.42409727 
-0.26837045 0.92749983 -0.26023358 
-0.16677628 0.816659 -0.5524979 
0.3842728 0.8492511 -0.3620872 
0.0063567385 0.95787925 0.2871011 
0.44218242 0.6748724 0.59078085 
0.08691955 0.78154683 0.61776185 
-0.00047068144 0.94290847 0.33305186 
0.24133623 0.38475412 0.8909103 
0.17652223 0.2628351 0.9485556 
-0.24247837 0.6061942 0.75745165 
-0.35303476 0.30489025 0.88453853 
-0.3804606 0.6446648 0.6630665 
0.084648155 0.5129165 0.85425496 
-0.36234376 0.4715779 0.80394113 
-0.083277196 0.5762672 0.8130075 
0.2982568 0.06450232 0.9523037 
0.6096748 0.6102809 0.50582016 
0.94146955 -0.06220358 0.33130944 
0.8714641 0.3488013 0.34480175 
0.09279362 0.9532138 0.28770253 
-0.30162945 0.52209574 0.79776925 
-0.01593988 0.9018553 0.43174413 
0.068920605 0.5568096 0.82777596 
0.028530372 0.73234165 0.6803395 
-0.90434873 0.42115265 -0.069166675 
-0.53257143 0.6672964 -0.52065665 
0.53365695 0.6986889 0.4764914 
-0.32134822 0.8809312 0.34741265 
-0.5354672 0.73010665 0.4245225 
0.21664241 0.41539636 0.88346595 
-0.4247834 0.45329908 0.7836321 
-0.70602864 0.6660972 0.24049586 
-0.38120607 0.9220526 0.067089885 
0.30621555 0.7135922 0.63009393 
0.18352485 0.9290996 0.32108042 
0.06324041 0.23714411 0.9694139 
-0.024176918 0.5643413 0.82518756 
0.009172192 0.96468204 0.26325756 
0.17710502 0.8767795 0.44709238 
-0.18758315 0.8197562 0.54112154 
-0.10576363 0.36443266 0.92520434 
-0.1619715 0.98377424 0.077159494 
0.0006624057 0.8433669 -0.5373379 
0.22128364 0.79013234 -0.57159823 
0.07526701 0.82703227 -0.557093 
0.38511497 0.76910394 -0.5100642 
0.7770551 0.62914383 -0.019070305 
0.8263365 0.47228143 0.3067872 
0.8459981 0.5032085 0.17626227 
0.4770415 0.048941415 0.87751704 
0.40577397 0.22406836 0.8860818 
0.42350858 0.4562432 0.7826128 
0.39127144 0.47495654 0.7882405 
0.4590648 0.59919536 0.65591496 
-0.13352108 0.71475714 0.68650883 
-0.4780697 0.59818125 0.64313966 
-0.020272963 0.6814065 0.73162436 
0.24583817 0.9409263 -0.23285468 
0.29892266 0.93062174 0.21116 
0.4769409 0.7203667 0.50358635 
-0.26972377 0.59837765 0.75444907 
0.19170515 -0.1063568 0.9756728 
0.116931975 0.8126857 0.57084936 
-0.6100011 0.54516983 0.57505536 
-0.4394559 -0.25084257 0.86252916 
-0.54883754 0.81096834 0.20275049 
0.24376926 0.5355344 0.80856633 
0.020565499 -0.5795687 0.81466395 
-0.67551434 -0.39770183 0.6208975 
-0.63225806 -0.010228267 0.77469033 
-0.80391794 -0.27049434 0.5296686 
0.2498134 -0.08420171 0.964626 
-0.096298374 0.9632005 0.25094092 
0.47051942 0.79425925 0.3844007 
0.43151978 0.33349603 0.8381951 
0.561778 0.76067024 0.3252479 
0.43174872 0.56492317 0.7031749 
0.27216956 0.70476454 0.65515697 
0.5193169 0.1906876 0.8330356 
0.6669212 -0.18926033 0.7206918 
0.5319587 0.368999 0.7621415 
0.3508974 0.31187746 0.88295156 
-0.24224819 0.4911797 0.8366949 
0.1404852 0.3856894 0.91187036 
0.25198457 0.94929516 0.187996 
-0.22114125 0.9724588 0.07362474 
-0.03005163 0.9519858 -0.30466378 
0.5033294 0.863359 0.0356491 
-0.032118086 0.9994799 0.0028822361 
0.42586237 0.75631523 0.4966172 
0.49402094 0.37665048 0.78363115 
-0.04169429 0.7820777 0.6217846 
-0.0044804364 0.7370509 0.6758224 
-0.37541857 0.9214209 0.100223094 
0.11518893 0.9849364 0.12896432 
0.5814846 0.76427394 0.27885637 
0.8078758 0.27170464 0.522985 
0.5238221 0.6472571 -0.55377674 
0.5076719 0.621729 0.5964247 
0.62925005 0.24102353 0.73888576 
0.13317068 0.63950986 0.7571611 
0.319254 0.80782413 0.49547675 
0.22903222 0.58879614 0.7751537 
-0.3604149 0.70140046 0.6149297 
-0.72785586 0.41373208 0.5468561 
-0.14631669 0.6126696 0.7766772 
-0.23890543 0.1297249 0.96233875 
0.055286597 0.59976566 0.7982635 
0.3855929 0.35348955 0.85226953 
0.14515541 0.2814807 0.9485245 
0.7739133 0.17746302 0.6079187 
0.1284211 0.2527978 0.95895845 
-0.4876152 0.28065085 0.8267205 
-0.73905104 0.5163061 0.43270278 
-0.7929615 0.3325105 0.51053804 
-0.85279214 -0.13653944 0.50408584 
-0.31072703 0.2843678 0.90696406 
-0.86313796 -0.2799734 0.4202473 
-0.8272749 0.080260746 0.5560346 
-0.9274569 0.22758912 0.2966935 
-0.23964457 0.89601713 0.3737966 
0.31518716 0.88016754 0.3549115 
-0.069605455 0.6957065 0.7149459 
-0.26543787 0.53062385 0.8049727 
-0.21426477 0.75714904 0.61710286 
-0.6150634 0.4124832 0.6719782 
-0.26542205 0.61725223 0.7406422 
-0.5368655 0.44551072 0.71644664 
0.21850936 0.37854472 0.8994207 
-0.10389773 0.31381714 0.94378185 
-0.35611942 0.2733178 0.893575 
-0.075341165 0.57767487 0.8127825 
-0.6788058 0.7260628 0.10979762 
-0.5553291 0.32293487 0.7663698 
-0.04559127 0.89244646 0.44884378 
0.45355105 -0.05023602 0.8898134 
0.35851726 0.12046494 0.9257179 
-0.10451922 0.78550977 0.60995924 
-0.43223205 0.8749576 0.21823056 
-0.59274155 0.45735416 0.6629365 
-0.016851654 0.99804157 0.060241997 
-0.17386413 0.93366313 0.3131204 
-0.42396688 0.59301746 0.6845308 
-0.39054117 0.84276253 0.37044424 
-0.45401493 0.069622226 0.8882698 
-0.62125695 0.07835292 0.77967995 
0.075818546 0.54147303 0.8372924 
-0.3293432 0.66010916 0.6751214 
-0.32619235 0.61655277 0.7165621 
0.22407934 0.47684923 0.8499431 
0.51597345 0.44285718 0.73324555 
-0.5107776 -0.23523301 0.82690495 
-0.28475472 0.264076 0.9215089 
-0.50020295 0.32352808 0.8031977 
-0.6485502 -0.43558627 0.6242174 
-0.3807075 0.6649202 0.6426063 
-0.3445698 0.6408952 0.6859484 
-0.40629187 0.8861947 0.22267886 
0.38759637 0.79878277 0.46012533 
0.17345177 0.41003543 0.8954248 
0.052384958 0.2773804 0.95933104 
0.15466426 -0.04621017 0.9868858 
0.14207907 0.23885983 0.9606038 
0.14545907 -0.31814712 0.9368159 
-0.3809434 -0.6020785 0.7017006 
-0.06408346 0.14326161 0.987608 
0.62240034 -0.35749298 0.6962878 
0.74829894 -0.27851045 0.6020638 
0.12581465 0.12388512 0.9842882 
-0.09037698 0.060338102 0.9940782 
0.46706372 -0.26093835 0.8448448 
0.5711276 0.34484982 0.74491066 
-0.2123629 0.05411585 0.97569126 
-0.7803545 0.5608022 0.276673 
-0.6000227 0.6455828 0.47243598 
-0.7919668 0.5151978 0.32765812 
-0.48809087 0.60726476 0.6268947 
-0.2448731 0.8749723 0.41768497 
-0.34721184 0.848637 0.3990729 
-0.28900573 0.78391576 0.5495013 
-0.40042785 0.6626076 0.63293666 
-0.3838625 -0.6744874 0.6306476 
-0.5551047 0.0106095495 0.8317129 
-0.5566618 0.5612397 0.61248493 
-0.6697252 0.24469723 0.7011359 
-0.22806542 0.9339867 -0.2750547 
0.79405713 0.6010454 -0.090651505 
0.6907595 0.7057137 -0.15754199 
0.4165965 0.4994373 0.7596116 
0.0077171787 0.37465817 0.92713094 
0.51652247 0.4394214 0.7349241 
0.27543923 0.2472097 0.92898905 
-0.1145521 -0.011855284 0.9933466 
-0.38770586 0.49324593 0.7787122 
0.26525366 0.6890226 0.67445415 
0.5734335 0.48748544 0.6584315 
0.011651635 0.52136946 0.85325146 
0.027054055 0.9864386 0.161886 
0.04344815 0.24592702 0.9683141 
0.3510656 0.3656072 0.8620235 
0.32031694 0.1476745 0.9357293 
0.08637254 -0.2776276 0.95679826 
-0.5655689 -0.5051087 0.65191805 
-0.5964411 -0.08820269 0.7977959 
-0.19034548 0.22790597 0.9548967 
0.49021742 0.42541635 0.76072854 
0.16411357 0.22898637 0.9594957 
0.55239195 0.4400521 0.70796704 
0.18978563 0.57851964 0.79328203 
0.4749305 -0.046217654 0.8788089 
-0.41634265 0.07432609 0.90616465 
-0.51178974 0.39318794 0.76385504 
0.46505734 0.651206 0.5997103 
0.028341647 0.8210725 0.5701199 
-0.29691073 0.7420936 0.60095024 
0.2115045 0.6453095 0.7340583 
-0.1308179 0.13346049 0.9823823 
-0.7473302 0.32293877 0.5806964 
-0.00950988 0.7522646 0.6587926 
0.36976263 0.9185291 0.13992825 
0.2349223 0.9560081 0.17567077 
0.7980895 0.60230213 -0.01688987 
0.28173718 0.43750316 0.85394096 
0.023986993 -0.5640678 0.82538 
-0.22398299 -0.54420036 0.8085033 
-0.5273802 -0.55061156 0.647068 
-0.67091006 -0.6325936 0.38691756 
-0.7872069 0.41813198 0.45328915 
-0.6676743 0.3764826 0.6422398 
-0.6580778 -0.07557744 0.7491473 
-0.35989404 0.7997672 -0.48046726 
-0.16697189 0.9679587 0.1875541 
-0.31352943 0.69190854 0.6503553 
0.19810298 0.8865864 0.41799513 
-0.18308438 0.3806818 0.9064003 
0.19658971 0.4528791 0.8696281 
-0.24699676 0.5384858 0.8056213 
0.3130254 0.2226633 0.92327476 
0.4152034 0.59974545 0.68404067 
-0.123755395 0.1243165 0.98449486 
-0.41392007 0.37167436 0.83098036 
-0.47917283 0.17171396 0.86076003 
-0.68848246 0.46017838 0.5605603 
-0.7121902 0.1786401 0.6788762 
-0.11096329 0.5110819 0.8523394 
0.25547078 0.25773123 0.9318311 
0.07536602 0.779835 0.6214317 
0.20489803 -0.28072926 0.93766093 
0.30507955 0.16387045 0.9381221 
0.11005676 0.5954428 0.79582375 
0.394979 0.23794195 0.88734174 
-0.15111315 0.5656777 0.8106624 
-0.7993502 0.40041307 0.44800508 
-0.7627901 0.075649254 0.64220613 
-0.9801742 -0.092147976 0.17540658 
-0.7083877 0.70185393 0.07475316 
-0.31097177 0.8468479 0.4314455 
-0.05113086 0.96725076 0.24861929 
0.6353419 0.7531506 0.17060187 
0.7093066 0.53414726 0.45996833 
0.23946726 0.039770685 0.9700896 
0.26580513 0.32795984 0.9065264 
-0.004061506 0.16232182 0.9867295 
0.4398169 0.26082617 0.8593783 
-0.47332323 0.007959839 0.8808529 
-0.29149064 0.90835005 0.29988918 
-0.08766215 0.86262834 0.4981846 
-0.17581885 0.3899775 0.9038835 
-0.7522417 0.104837276 0.65049344 
-0.76646066 0.08654165 0.63643426 
-0.098345704 0.88221514 0.4604614 
0.14731213 0.5410058 0.8280168 
0.5582142 0.61068803 0.56165564 
0.7613076 0.1945444 0.6185171 
0.15065487 0.52318656 0.83879614 
0.45160317 0.52903265 0.7184561 
-0.19845872 0.35491562 0.9135914 
-0.7900597 0.2299079 0.56828517 
-0.5413952 0.14034197 0.8289725 
-0.4413134 0.17705944 0.87971157 
0.038918365 0.94807285 0.31566346 
0.2678428 0.8799351 -0.39239603 
0.03798301 0.9124006 0.40753207 
0.49114418 0.25749117 0.83215123 
0.018131452 0.75677246 0.65342695 
-0.51439005 0.66121674 0.5460727 
0.017006602 0.9137579 0.40590313 
-0.023303404 0.87697023 0.4799795 
0.07984895 0.5153785 0.8532345 
0.07346962 0.9598062 0.2708771 
0.1297236 0.049314834 0.9903231 
0.52050996 0.37388542 0.7676453 
0.0960127 0.79847956 0.5943164 
-0.33883834 0.27502355 0.89975035 
0.14642395 0.48027286 0.86481106 
-0.37408328 0.76353943 0.52637386 
-0.41069198 0.6296486 0.6594503 
-0.42236397 0.3452544 0.83809793 
0.06593778 0.9974518 -0.027241342 
-0.6264457 0.77596754 -0.07375702 
-0.35217735 0.83597606 0.4208507 
0.22213201 0.953788 -0.20235121 
0.08210362 0.98954374 0.11858479 
0.8840304 0.44383174 0.14664172 
0.26131257 0.75511885 0.6012581 
0.56597674 0.32471508 0.75778 
0.7401917 -0.20582376 0.6401195 
-0.2668287 0.43360546 0.86069083 
0.10379174 0.57833827 0.8091676 
-0.116137005 0.35612845 0.92719185 
-0.03494958 0.85728925 0.51364744 
0.28580773 0.6889817 0.66604674 
0.6244589 0.36479324 0.6906352 
0.36292505 0.8923675 0.26826444 
0.4616115 0.85334295 0.24232352 
0.6714223 0.092118785 0.7353273 
0.753876 0.5011301 0.42489958 
0.83692634 0.30268514 0.4560002 
0.340613 0.28190783 0.89694524 
-0.26478225 0.41125867 0.8722137 
-0.41765714 0.08318773 0.90478855 
-0.4874874 0.19821905 0.85033256 
-0.11454326 -0.05843325 0.99169827 
0.7139257 -0.44914287 0.5371972 
-0.06180325 -0.0266614 0.9977322 
-0.31917205 -0.15514538 0.9349114 
-0.76770824 0.03312815 0.63994265 
0.12267799 -0.03040261 0.9919808 
0.4108033 -0.13487072 0.9016932 
0.41055077 0.6669562 0.6217857 
0.2983149 0.677668 0.6721416 
0.3316213 -0.026054962 0.9430528 
0.28866458 -0.15283863 0.9451524 
-0.09494683 0.7163564 0.6912443 
0.41040567 0.47530806 0.77823484 
0.760173 0.09616186 0.6425652 
0.4327902 0.76576847 0.47570083 
0.3937538 0.24479419 0.8860214 
0.009423382 0.5065943 0.862133 
0.19086862 0.6163304 0.7640067 
0.28502342 0.4078904 0.86740243 
0.1277848 0.74120253 0.6590068 
0.08487693 0.79286575 0.6034565 
0.7236349 0.18928678 0.6637192 
0.54209334 0.7482075 0.3825185 
-0.029628808 0.90329635 0.4279931 
0.27742207 0.63105816 0.7244327 
0.28562745 0.57946795 0.7633047 
0.44207272 0.28607684 0.85013646 
0.373379 0.7584243 0.5342105 
0.36394057 0.80204916 0.47356588 
0.0737393 0.9957881 -0.05448435 
0.48290133 0.49051705 0.72539604 
0.117503256 0.6639324 0.73850316 
0.62554884 0.56717265 0.5357274 
0.45562682 0.07958755 0.88660586 
0.30109692 0.61610365 0.72784406 
0.25663546 0.2189045 0.9413921 
-0.13579072 0.25756514 0.9566719 
-0.13240385 0.22887355 0.96440977 
-0.66130805 -0.045430444 0.74873745 
-0.5443871 0.079064816 0.83509976 
-0.24843311 0.53584516 0.8069393 
0.12848349 0.6627261 0.7377575 
-0.2083398 0.42922875 0.8788386 
-0.31143957 0.12511873 0.94199294 
-0.4899102 -0.43230304 0.75703514 
-0.4284927 0.14443348 0.8919265 
0.2979615 0.21733427 0.92950785 
0.5086214 0.09773127 0.85542554 
0.12768778 0.03262229 0.99127775 
-0.0040933653 -0.11769149 0.9930418 
-0.6712219 0.2639155 0.6926831 
-0.9506209 0.23692489 0.20046587 
-0.47883728 0.2915452 0.8280799 
-0.073718846 0.44737512 0.891303 
0.20058802 0.8650459 0.45984787 
0.26996022 0.7501053 0.6037082 
0.59342444 0.7265266 0.34641957 
0.7868749 0.19963627 0.58392924 
-0.51636416 0.5489661 0.6572704 
-0.40970716 0.9059525 0.106725104 
-0.7047166 0.39012563 0.5926015 
-0.4125021 0.659002 0.6289344 
0.25314245 0.3561424 0.89948964 
-0.2711027 0.15195635 0.95048016 
0.028829789 0.6451895 0.76347846 
0.57013667 0.7390388 0.35883957 
-0.10367314 0.435879 0.8940143 
0.062204808 0.3919233 0.9178925 
0.8488512 0.5120901 0.13120767 
0.08791822 -0.09918976 0.99117696 
-0.40033907 0.3614078 0.84208864 
-0.2897583 0.47776353 0.82932633 
0.5769379 0.8123867 -0.08467849 
0.19471247 0.54008657 0.8187756 
0.16551772 0.93074936 0.32605147 
-0.4175425 0.90830046 0.02546457 
-0.15185876 0.9883874 -0.005408056 
-0.47703594 0.11313887 0.87157124 
-0.1952656 0.42588672 0.88345456 
0.29938704 -0.1472973 0.94269353 
0.1403589 0.58142245 0.80140334 
0.15366076 0.82287025 0.5470586 
-0.19187914 0.88973856 0.41418323 
0.58294713 0.4371317 0.68490034 
0.09617549 0.341683 0.9348813 
-0.3444177 0.60000455 0.72206026 
0.020150132 0.7799469 0.62552124 
-0.38322902 0.35403126 0.85311043 
-0.48690605 -0.059463676 0.87142795 
-0.32740417 0.019652816 0.9446801 
0.16937344 0.09732626 0.9807345 
-0.10009781 0.5757555 0.81147164 
0.1332405 0.6382406 0.75821906 
-0.4336193 0.57990557 0.6896984 
-0.27784252 0.009626478 0.9605785 
-0.13462317 0.34427622 0.92916656 
-0.4794628 -0.34292215 0.8077871 
-0.04131269 -0.512994 0.8573975 
0.005687345 0.048938505 0.9987857 
0.048146147 0.018601017 0.9986671 
-0.34719592 0.02650577 0.93741804 
0.255452 -0.0714607 0.9641772 
-0.03366908 0.69960356 0.7137376 
-0.0025286293 0.33385912 0.9426196 
0.6097734 -0.23257409 0.75768447 
-0.027059762 0.016784508 0.9994929 
-0.36673552 -0.7856807 0.49820775 
0.21436118 0.29729652 0.9304107 
-0.24524201 0.6630065 0.7073039 
-0.2447233 -0.4072212 0.8799326 
-0.96846616 -0.13570632 0.20894267 
-0.81724775 0.06409881 0.5727106 
-0.8210916 0.2674334 0.5042699 
-0.65963745 0.4204563 0.62297267 
-0.47077987 0.20639433 0.857769 
-0.6865234 -0.0381702 0.72610515 
-0.5878802 0.29057103 0.7549606 
-0.14041452 0.5348337 0.83320874 
0.23829967 0.3141948 0.918964 
0.037524547 0.631091 0.77480066 
-0.14901242 0.82253593 0.54884434 
0.4514794 0.74845695 0.48577622 
0.7426837 0.52636516 0.41395733 
0.49446315 0.2897104 0.81949633 
0.78458476 -0.13080512 0.6060667 
0.41188604 0.1298552 0.9019354 
0.3440438 0.022870265 0.9386751 
-0.9355654 0.16022944 0.31471232 
-0.47119334 0.69709283 0.5404058 
-0.2723722 -0.3418954 0.8994004 
-0.8497034 0.1033354 0.5170357 
-0.19956638 0.46143985 0.8644342 
0.05032039 0.2706234 0.96136934 
0.46669963 0.5998169 0.64993167 
0.41744968 -0.81586206 0.40013108 
0.14514154 -0.2865832 0.9469974 
-0.63904154 -0.035927847 0.7683327 
-0.04306983 -0.539664 0.8407782 
0.2902497 0.2134684 0.93283784 
-0.2252788 -0.20867953 0.95168394 
-0.26598272 0.19304624 0.9444503 
0.6676898 -0.45500666 0.5892023 
0.5140344 0.031386353 0.8571952 
0.6374347 -0.13407667 0.75874925 
0.3331404 0.14423935 0.93177927 
0.46022218 0.622104 0.6333894 
0.3005137 0.5123909 0.80445457 
0.03586807 0.30494064 0.95169574 
-0.45644653 0.18315415 0.87069577 
-0.1736057 0.29106054 0.94082147 
-0.32775515 0.8472268 0.41807082 
-0.30866638 0.81144565 0.4962672 
-0.28785947 0.5611831 0.7760223 
-0.16995096 0.61313367 0.77148163 
0.30475688 0.8822476 0.35883492 
0.5801387 0.42271346 0.6962417 
0.8620686 0.34367687 0.37245664 
0.39224032 0.500403 0.77184474 
-0.18857266 0.56390005 0.80402565 
-0.37256423 0.2124111 0.90337014 
-0.47257566 -0.20702735 0.8566283 
-0.19339323 0.4399088 0.87697166 
-0.85322756 0.04285098 0.5197756 
-0.82129556 0.44521156 0.35673547 
-0.092354 0.94040376 -0.32727918 
0.13119906 0.94136566 0.3108336 
-0.28199136 0.8781608 0.38641247 
0.081854746 0.3049288 0.9488511 
0.101948515 0.27842063 0.9550333 
-0.06139324 -0.0788087 0.9949975 
0.10680542 -0.39458063 0.9126329 
-0.071512654 0.7181376 0.69221705 
0.5179037 0.84778446 0.1141808 
0.13496247 0.82563925 0.5478184 
-0.33298042 0.6517624 0.68141747 
-0.765889 0.13449669 0.62874854 
-0.5811696 0.8050762 0.11871999 
-0.39095333 -0.06274636 0.9182693 
0.13848771 0.6627437 0.7359294 
0.20290391 0.71717274 0.6667033 
0.54377574 0.22550516 0.8083659 
0.75228065 -0.24496329 0.61160994 
-0.21527325 0.22565846 0.950124 
0.08692262 0.8937376 0.44008815 
0.12774785 0.49230283 0.8609985 
0.13780567 0.8078624 0.573034 
-0.78800696 0.47260356 0.39457697 
-0.8301494 0.48811576 0.2694345 
-0.94274765 0.07005083 0.3260672 
-0.939829 0.15216886 -0.3058861 
-0.85722435 0.26486504 -0.4416028 
-0.71218723 0.6573052 0.24645343 
0.08951373 0.9887896 -0.11950943 
0.68014497 0.6924561 0.2406395 
0.25296208 -0.0053268266 0.9674615 
0.026240652 0.17498325 0.98422164 
0.14275895 0.13235693 0.98086774 
0.14727986 0.3199009 0.9359338 
-0.31158027 0.17243904 0.93444246 
-0.052357186 0.38878036 0.9198416 
-0.3741682 0.6618819 0.64954644 
-0.1506976 0.8843042 0.4419235 
-0.72792125 0.39444727 0.56084055 
-0.48848686 0.46294266 0.7396382 
0.2433209 0.62575614 0.74109674 
-0.2979669 0.20394847 0.9325347 
0.28174606 -0.15536657 0.9468266 
0.48899218 0.0015446224 0.8722868 
-0.13758041 -0.15386122 0.9784674 
-0.21879493 0.14778462 0.9645146 
-0.17087445 0.08074218 0.98197895 
-0.41816545 0.36418697 0.8321692 
-0.16913548 -0.15135416 0.973902 
0.07798452 0.29816657 0.95132285 
0.090764545 0.3673105 0.9256592 
0.41410863 -0.13623656 0.89997435 
-0.086778596 0.9072523 0.41153714 
-0.6745098 0.7277945 0.12390165 
-0.714081 -0.47500995 0.5142509 
-0.3313081 0.43545187 0.83702844 
-0.3537523 0.78242296 -0.5125169 
-0.28734568 0.6965044 0.65750605 
-0.23608588 0.57753634 0.78148276 
0.43181548 0.8162103 0.38384402 
0.55807835 0.29716358 0.7747531 
-0.16802916 0.7234371 0.6696305 
0.37756068 0.23600067 0.8954059 
-0.083115466 0.08921879 0.99253815 
0.15078719 0.027119897 0.9881942 
-0.061568055 0.03993401 0.9973037 
-0.21846691 0.2105217 0.9528656 
-0.094033465 0.35557985 0.92990357 
0.19330609 0.85619736 0.47912303 
-0.47428188 0.6682386 0.5731615 
-0.6473625 0.6240809 0.43754414 
-0.50101185 0.7193547 0.48116112 
-0.6089889 0.54969835 0.5718079 
0.20634326 0.9774903 -0.043991894 
0.6155444 0.18343298 0.7664578 
0.12959465 0.36407143 0.9223108 
0.093539774 0.35573766 0.929893 
0.20966849 -0.05805918 0.9760473 
-0.63776815 0.065277204 0.76745725 
0.1462996 0.49088848 0.8588511 
-0.274519 0.73233837 0.62315315 
0.03949621 0.43208513 0.90096766 
-0.17873484 0.6837072 0.70752984 
0.53736556 0.618322 0.57351214 
0.5722761 0.57926387 0.58047706 
0.53620815 0.84391934 -0.016762769 
0.62178457 0.62861514 0.46714768 
0.92659163 0.09405827 0.3641167 
0.73131925 -0.36195272 0.57806784 
0.39055917 -0.014440161 0.92046463 
-0.08426122 -0.07800972 0.9933854 
-0.08842634 0.21686828 0.97218776 
0.32366586 -0.24853112 0.91294736 
0.70767444 0.3166445 0.63161165 
0.079576895 -0.0040340954 0.99682057 
0.12788662 0.07206652 0.9891671 
-0.4096302 -0.39051712 0.824439 
-0.24758396 -0.43529525 0.8655751 
0.0119237285 -0.30261597 0.953038 
0.0059955735 0.2149639 0.9766036 
0.11064137 0.041469306 0.9929949 
-0.028075984 0.3534364 0.9350372 
-0.06949422 0.38833317 0.91889495 
0.22151978 0.3916977 0.8930297 
0.16260143 0.110996954 0.9804288 
0.7290129 -0.3079125 0.6113348 
0.6320895 -0.29170233 0.7178947 
0.4784602 0.12882999 0.86860734 
0.19091386 0.41971102 0.8873525 
0.5146615 -0.17622085 0.8390886 
0.17117083 -0.057635352 0.9835541 
0.28524882 0.4361467 0.85346895 
0.07757513 0.63595444 0.7678178 
-0.043224704 0.33789307 0.9401915 
0.036574226 0.3735108 0.92690456 
0.15055944 0.54007757 0.82803863 
0.12241082 0.3745483 0.9190916 
0.05811453 0.23754495 0.9696367 
-0.50108963 0.17483813 0.84754986 
-0.09386505 0.6401806 0.7624686 
-0.26310822 0.879704 0.3960995 
0.018695172 0.5562877 0.8307795 
-0.1977772 0.25194493 0.9473163 
0.020216838 0.6058705 0.7953064 
0.58802766 0.09414421 0.8033433 
-0.15310834 -0.20089887 0.96757305 
0.79820806 0.017645199 0.6021234 
0.46444535 -0.070035115 0.88282824 
0.075408384 0.61150706 0.7876374 
0.26850525 0.08704829 0.95933706 
0.09612601 0.02823254 0.9949687 
-0.4180969 0.05567285 0.9066949 
-0.45602 -0.0065740678 0.88994527 
0.09866667 0.1442623 0.98460823 
0.19725671 -0.12766428 0.97200394 
0.15357842 0.1479933 0.9769912 
-0.023188306 0.3666256 0.9300796 
0.37343472 0.07601885 0.92453647 
0.7746859 -0.12437528 0.619994 
0.03299296 -0.44314104 0.8958446 
-0.041007873 0.18648127 0.9816023 
-0.44991198 -0.6136263 0.6488775 
-0.7144432 -0.47822148 0.5107595 
-0.7595965 -0.16803923 0.628312 
-0.6340942 0.08538079 0.76852775 
-0.6284134 -0.23804098 0.74056274 
0.66430837 0.3760982 0.6459448 
0.1354315 0.79425734 0.5922952 
0.6546186 0.12364073 0.7457798 
0.3211196 -0.07416079 0.9441305 
-0.16400902 0.706778 0.68816125 
-0.339648 0.93171954 0.12859994 
-0.60435927 -0.044570625 0.7954642 
-0.24062955 0.38150477 0.8924973 
0.16384502 0.26999056 0.94882023 
0.30964494 0.88058376 0.35873726 
0.11046635 0.6589927 0.74399316 
0.5111043 -0.12347502 0.85060364 
0.31303227 -0.0333194 0.9491579 
0.14556746 0.5153736 0.84451187 
0.32036287 0.8291885 0.4580545 
0.4331109 -0.10067089 0.89570105 
0.15502355 0.28931615 0.94459724 
0.60557765 0.5329433 0.5909714 
0.7769701 0.43026465 -0.45955402 
0.6351141 0.75053567 0.18255554 
0.2330549 -0.109530635 0.96627563 
0.1236612 0.44727272 0.88580763 
0.27869824 0.6950129 0.6627854 
-0.2801651 -0.056047693 0.9583143 
-0.022984624 0.21461976 0.97642726 
-0.29067808 0.27850395 0.9153916 
-0.2166875 0.44117084 0.8708702 
-0.3718773 0.70740664 0.6010684 
-0.45494217 0.5135481 0.7275274 
-0.30085143 0.92774856 0.22084183 
0.09279462 0.50692976 0.8569782 
-0.10561637 0.66552556 0.7388646 
0.047589358 0.26725197 0.96245086 
-0.32590488 -0.4188736 0.8475441 
-0.49398956 -0.17167632 0.85235065 
0.09998158 -0.4966338 0.8621825 
0.12983483 0.0901037 0.98743325 
0.34032148 0.40242162 0.84984595 
0.08666589 -0.16852123 0.9818807 
-0.17759584 -0.15330322 0.97208947 
-0.021313217 -0.1535928 0.9879044 
0.22736223 -0.49272114 0.83995974 
0.09700911 -0.24340865 0.96506035 
-0.03416097 -0.22422871 0.9739377 
0.24792747 0.19657849 0.9486248 
0.2693066 0.3159414 0.9097555 
0.71560735 -4.0948933e-05 0.6985028 
0.5702274 -0.32291368 0.75535923 
-0.26687062 0.065926336 0.96147484 
-0.31610164 0.5072333 0.8017445 
-0.041014966 0.3561271 0.93353707 
0.08958209 -0.15823516 0.9833294 
-0.374 -0.5243013 0.7650047 
0.23146509 -0.010265087 0.97278905 
0.1160673 0.5512833 0.82620525 