# OOMMF: rectangular mesh v1.0
# Segment count: 1
# Begin: Segment
# Begin: Header
# Desc: Time (s) :  5.500000000000001e-08
# Title: m
# meshtype: rectangular
# meshunit: m
# xbase: 2e-09
# ybase: 2e-09
# zbase: 5e-10
# xstepsize: 4e-09
# ystepsize: 4e-09
# zstepsize: 1e-09
# xmin: 0
# ymin: 0
# zmin: 0
# xmax: 1.024e-06
# ymax: 1.024e-06
# zmax: 1e-09
# xnodes: 256
# ynodes: 256
# znodes: 1
# ValueRangeMinMag: 1e-08
# ValueRangeMaxMag: 1
# valueunit: 
# valuemultiplier: 1
# End: Header
# Begin: Data Text
0.54841477 0.4113742 0.7280196 
0.37762687 0.030798191 0.92544556 
-0.07856973 0.54332983 0.83583474 
0.55945504 0.7999078 0.21715784 
0.5837161 0.7493343 -0.31268802 
0.6396274 0.61213315 0.46494076 
0.78257847 0.46815938 0.4103631 
0.43913534 0.7485236 0.49686283 
0.09740706 -0.443744 0.89084405 
0.13255838 0.22847158 0.9644838 
0.053653244 0.5650423 0.8233156 
-0.24680835 0.3416125 0.90685534 
-0.106813036 0.39381632 0.912962 
0.07804243 0.5188689 0.851284 
0.59066135 0.16065677 0.7907645 
0.7338917 -0.0030417498 0.67925966 
0.31006855 0.53115255 0.7885015 
0.7714233 0.53354913 0.3467441 
-0.3515995 0.6408398 0.68242383 
-0.036906432 0.28711903 0.9571838 
-0.38955185 0.31671056 0.8648375 
-0.6404011 0.012107413 0.7679453 
-0.72121525 0.6872518 0.08679657 
-0.5354836 0.56758857 -0.6253804 
-0.2156853 -0.35701975 -0.9088547 
-0.16643253 0.380836 -0.9095407 
0.15741919 0.3809049 -0.91111517 
-0.73083407 0.6676883 -0.14168265 
-0.82523763 0.53702444 0.17489308 
-0.24092859 0.9695209 0.04452615 
0.8937758 0.37566277 -0.2450354 
0.3715188 0.4601074 0.80639625 
-0.01758708 0.8297708 0.5578271 
-0.8534133 0.5205847 -0.026028536 
-0.5732015 0.75698686 -0.31370524 
-0.0135009885 0.98980457 0.14179079 
-0.20288396 0.8628547 0.46294713 
0.1818489 0.85559183 0.48465824 
-0.37802374 0.5655431 0.7329796 
-0.69215596 0.5527795 0.46406358 
-0.20134373 0.84478194 0.49578646 
0.035098102 0.41276667 0.9101604 
-0.3831781 0.28411078 0.8788946 
0.50482327 0.8531352 0.13158229 
0.8023454 -0.056265432 0.5942021 
0.01248696 -0.24934676 0.96833384 
0.54215664 0.59865016 0.58964753 
0.26393023 0.35906434 0.89521706 
0.34992492 0.42367327 0.83549595 
0.048037108 -0.050994948 0.997543 
0.29135022 0.34206888 0.89336663 
-0.31824422 0.7044621 0.6343925 
0.0005162207 0.99468887 -0.10292704 
0.20131531 0.85195386 -0.48337018 
-0.0693034 0.93981165 0.334591 
0.23244113 0.97259545 -0.0054012993 
0.23646317 0.8955256 0.37698698 
-0.08747535 0.76339746 0.6399785 
-0.16013244 0.1927129 0.96810097 
-0.22507851 0.26281586 0.93822575 
0.28138044 0.9586564 -0.04246242 
0.55686235 0.58950967 0.5851348 
0.14498465 0.68210834 0.7167341 
0.1245888 0.7454921 0.6547666 
0.044470772 0.9849217 -0.16718765 
0.41473877 0.16922596 -0.8940663 
0.9532851 0.077372275 -0.29199496 
0.81608295 0.5412232 0.20269714 
0.7765204 0.5442293 0.31753853 
0.41659713 0.2684711 0.8685448 
-0.28677833 0.51832336 0.8056669 
-0.73112726 0.13867469 0.66799873 
-0.76478124 -0.46098784 0.45011103 
-0.6514396 0.41940776 0.632237 
-0.21718219 0.7560111 0.617478 
-0.670617 0.44262758 0.59527624 
-0.80510205 0.43112087 0.40736398 
-0.39239955 0.709281 0.5856135 
-0.20276144 0.9752259 -0.0884439 
0.5349015 0.84485835 -0.009743506 
0.46296543 0.6503799 0.6022202 
0.96696776 0.19211216 0.16753054 
0.162457 0.755001 0.63528055 
-0.05738218 0.84381634 0.5335553 
-0.11806114 -0.009724713 0.9929587 
-0.040692855 0.48110253 0.8757195 
-0.31241342 0.5075057 0.80301684 
-0.14402346 0.23638459 0.9609265 
0.41010973 0.5565586 0.72253203 
0.20210981 0.91302717 0.35430658 
-0.13127975 0.9236475 0.36005706 
0.37512448 0.41255912 0.8301063 
0.5332648 0.8342333 0.14029773 
0.59690815 0.40272903 0.6939092 
0.89640427 0.4422347 0.029797474 
0.44023097 0.5149446 0.73554665 
-0.12015324 0.057670794 0.9910789 
-0.31226963 0.8288236 0.46426198 
-0.6448806 0.6934909 0.32124674 
-0.614628 -0.019539658 0.78857505 
-0.23471099 0.959481 -0.15590703 
-0.47167718 0.8816231 0.016168248 
-0.2629557 0.7174583 0.6450643 
-0.65830684 0.73382246 0.16774014 
-0.22380035 0.9629914 -0.15020284 
-0.26819313 0.84581906 -0.46115348 
0.2361248 0.7719903 0.5901492 
0.26407918 0.29997626 0.916666 
0.4789379 -0.12200718 0.86932904 
0.33677107 -0.7740432 0.5361366 
0.9233281 0.19222026 0.33244047 
0.7349034 0.05413235 0.6760079 
0.32875797 0.3243201 0.88698065 
0.33313924 0.52233714 0.7849727 
0.60907537 0.57262903 0.54874694 
0.7123492 0.43255752 0.5526777 
0.4576929 0.082715176 0.88525456 
0.8163952 0.27656034 0.5069647 
0.9483951 0.31673717 -0.014984101 
0.6590395 0.7424413 -0.12019957 
0.004748286 0.8908685 -0.45423657 
-0.32219833 0.84772056 -0.42137656 
-0.061015673 0.8250546 0.5617492 
0.53670985 0.64064467 0.5491057 
0.32094595 0.68027997 0.6589484 
0.4435399 0.6159576 0.65105194 
-0.5196764 0.7783299 0.3523335 
-0.19260609 0.6346312 -0.7484292 
0.17076243 0.5342822 0.8278785 
-0.3293886 -0.36070228 0.87258065 
0.00093549036 -0.43909112 0.89844203 
-0.7217195 -0.53567797 0.43837208 
-0.0593257 -0.34534717 0.93659806 
0.9383661 -0.22820018 0.25960302 
0.3498163 0.4769502 0.80631703 
0.57250315 -0.37814432 0.72749364 
-0.17664847 0.23489036 0.95583576 
0.33007255 0.561705 0.7586433 
0.17613484 -0.7456167 0.6426759 
-0.2895962 0.47467545 0.83115417 
0.22970843 0.869982 0.4363089 
0.13961087 0.6584159 0.7395927 
-0.8432379 0.19184376 0.5021414 
0.06689821 0.3235883 0.94383013 
0.6757881 0.34268075 0.6525951 
0.3598879 0.91126966 -0.20017096 
0.019180931 0.9789401 0.20324492 
0.036519106 0.690327 0.72257537 
-0.06659435 0.7196651 0.6911203 
-0.09409488 0.94603175 0.31011292 
0.66371226 0.6578644 0.35595027 
0.119037844 0.40465975 0.90668654 
0.57899415 0.61954695 0.5300259 
-0.119132094 0.9866623 0.11092817 
0.28060487 0.64237535 -0.7131724 
0.6465085 0.6874667 0.33078155 
0.8491811 0.37659466 0.37022707 
0.07250059 0.7437963 0.66446275 
0.106416635 0.7874899 0.607071 
-0.14902912 0.8963656 0.4175154 
-0.13704124 0.82707363 0.5451321 
0.90518737 0.19259834 0.37886912 
-0.039272748 0.25463963 0.9662383 
0.5709048 0.57565004 0.5854015 
0.16474791 0.2904798 0.942592 
-0.3053457 0.48376182 0.82020634 
0.08859719 0.72262585 0.6855381 
-0.4796094 0.29063505 0.82795304 
-0.48765358 0.3388675 0.80458874 
-0.35461155 0.7254305 0.58991635 
-0.49650088 0.7709114 0.39897686 
-0.6923257 0.53040266 0.48924237 
0.0024623554 0.24114949 0.97048485 
-0.63359964 0.7610517 0.13911125 
0.1541034 0.5831146 0.79764 
-0.71868926 0.693651 0.048312653 
-0.08338286 0.9596368 0.2685973 
-0.29688215 0.25932655 -0.91902715 
-0.35362378 0.5931428 -0.7232785 
0.39453217 0.74939543 -0.53174335 
-0.17301854 0.14244388 -0.9745637 
0.38317767 0.7841978 -0.48806617 
0.20846033 0.9471779 0.24371783 
0.015225096 0.49692065 0.86766255 
0.25711697 0.37003422 0.8927293 
-0.023657085 0.13409029 0.9906867 
0.41567975 0.41138062 0.81115735 
0.18695444 0.017527135 0.9822122 
-0.5805486 0.41300848 0.70170325 
-0.0022416143 -0.086984605 0.9962072 
-0.7237815 0.24739736 0.6441544 
-0.44003496 0.79948133 0.4088995 
-0.20077558 -0.048713766 0.97842544 
0.64237756 -0.10443128 0.75924 
0.6707745 -0.30314234 0.6768799 
0.4479796 0.21366352 0.86813724 
0.2753139 0.7775507 0.56534714 
-0.31484234 0.3999271 0.86077446 
0.35409915 0.5261766 0.7731442 
0.18133873 0.5973224 0.7812312 
-0.10646771 0.5383214 0.8359873 
-0.08084398 0.2990804 0.95079714 
0.4302575 0.36696026 0.8247537 
0.5628612 0.39340746 0.7269235 
0.42347574 0.7690899 0.4787159 
0.39637402 0.6761367 0.6210692 
-0.034767594 0.7329746 0.67936695 
0.14315972 0.309251 0.9401432 
-0.55106366 0.57559216 0.604171 
-0.9157062 0.24574658 0.31794757 
-0.17009324 0.69574326 0.6978608 
0.014293308 0.54035586 0.84131527 
0.654776 0.55942816 -0.5082407 
0.5586746 0.80578727 -0.19644263 
0.64440817 0.51823753 0.56228817 
0.26681703 0.70987326 0.65183485 
0.7973092 -0.2792971 0.53506184 
0.97804636 -0.18229322 0.10096742 
0.5884747 0.624885 0.5130461 
0.19392432 0.65355116 0.73161757 
0.749057 -0.51256174 0.419755 
0.8987114 -0.42781943 -0.09637672 
0.55543226 -0.1582414 0.8163668 
0.31976998 0.4718911 0.82162404 
0.90603447 0.33901873 0.25331417 
-0.05534481 -0.028439663 0.9980622 
-0.78710073 0.27842814 0.55040926 
-0.27566725 0.4899509 0.82701623 
-0.6807508 -0.16682333 0.71326596 
0.34198815 0.372704 0.86263305 
-0.30801478 0.4985113 0.81031686 
-0.44966137 -0.29607692 0.8427 
-0.51962376 0.08836005 0.84981394 
-0.82749397 0.09408234 0.5535363 
-0.691814 0.62259084 -0.36575148 
-0.36104327 0.92541426 -0.11513564 
-0.8402865 0.5370512 0.07412546 
-0.84347165 -0.043243658 0.53543043 
-0.19106062 0.35836703 0.9138211 
-0.030318424 0.9309175 0.36396915 
-0.24339226 -0.24508105 0.93845385 
0.3504625 0.28391084 0.8925081 
0.49455354 0.56099576 0.66385293 
-0.1212875 -0.32443064 0.9381014 
0.19838564 0.42913812 0.88118315 
0.27846193 0.35996184 0.8904417 
-0.047431942 0.76464146 0.6427081 
0.3142205 0.27981687 0.9071759 
-0.021043804 0.77391124 -0.63294446 
0.08016269 0.9380372 -0.33713546 
0.056164168 0.013541814 0.99832976 
0.3097523 0.49059933 0.81447285 
0.39911497 0.7250669 0.5612354 
-0.3993752 0.37467015 0.8367328 
-0.6820316 0.3461553 0.6442123 
-0.5834873 0.33391878 0.7402978 
0.7215721 0.51714617 -0.46031904 
0.9588116 0.27078736 0.08575856 
0.25977355 0.5565425 0.78916293 
0.4790354 0.32775 0.8143127 
0.6706695 0.72611845 0.15150714 
0.18137597 -0.22545578 0.95722127 
0.57565856 0.76309055 0.29378593 
0.12235822 0.6098362 0.7830251 
0.1457077 0.5517904 0.8211557 
0.23622055 0.20176399 0.9505216 
0.43667778 0.104264885 0.89355546 
-0.15935177 0.13451514 0.9780147 
-0.4054417 0.2009264 0.89176553 
-0.5566658 0.14532964 0.81792575 
0.023331052 0.43358088 0.90081257 
0.2215773 0.2501068 0.94252336 
0.22259992 0.30589166 0.92567796 
0.33127233 0.68993646 0.6436198 
0.10518379 0.36235878 0.9260845 
0.17228785 -0.4550829 0.87362266 
-0.12284727 0.46748763 0.8754222 
-0.46271524 0.8548589 0.2347574 
-0.69009674 0.5850028 0.42607316 
-0.7036767 0.5232888 -0.48063284 
-0.51187944 0.42712247 -0.7453496 
-0.82347816 0.5256603 -0.21346009 
-0.2167871 0.8027589 0.55550116 
-0.56004584 0.39064753 0.7305773 
0.04838677 0.38893119 0.91999525 
-0.49873236 0.36601308 0.7856848 
0.23919478 0.59490895 0.7673782 
0.4480784 0.69050044 0.5678336 
-0.22353025 0.8487645 0.47920048 
-0.10005712 0.9917783 0.079776816 
-0.26729798 0.86075795 0.4331831 
0.56043446 0.8227716 0.09465797 
-0.07907738 0.4329395 0.8979478 
-0.37117755 0.6406949 0.6721141 
-0.7099387 0.37504488 0.59609437 
-0.7759432 0.6290069 -0.047564648 
-0.33909178 0.89131045 -0.30096942 
0.57559586 0.66438496 0.47674108 
0.0044294493 -0.25545558 0.9668107 
0.08209172 0.21543139 0.97306234 
0.27168924 0.23521042 0.93319935 
-0.072258145 0.2057563 0.97593194 
0.33225363 -0.043313842 0.942195 
-0.34098625 0.20469372 0.91751236 
-0.1393976 0.57434547 0.8066571 
-0.16721565 0.4895649 0.8557834 
-0.4033834 0.45011348 0.79666793 
-0.5991686 0.5695979 0.5626325 
-0.36177182 0.6624036 0.6560051 
-0.26078972 0.6137654 0.74517167 
-0.36690348 0.9256007 0.092979535 
-0.13612413 0.99054545 -0.017030014 
0.4695922 -0.050689623 0.8814271 
0.70040405 0.27647656 0.65802354 
0.47073996 0.6625348 0.58262485 
0.12658179 0.5257304 0.8411806 
-0.19476679 0.56921136 0.7987893 
0.14189307 0.5730321 0.80715597 
-0.18345878 0.47172728 0.8624479 
-0.2343262 0.84430563 0.4819121 
-0.49336627 0.86765075 0.061415106 
-0.06984682 0.997549 0.0041777226 
0.45618102 0.7974526 0.39492798 
0.5550488 0.17119431 0.8140107 
0.368375 0.6922583 0.6205469 
0.30785444 0.52701974 0.79213375 
-0.6643731 0.3628672 0.6534032 
-0.71142054 0.4474483 0.54191417 
-0.3270206 0.2446143 0.91280967 
-0.77913594 0.18987107 0.5974078 
-0.1261603 0.8014029 0.5846683 
-0.06103756 0.65239507 0.7554172 
-0.29107276 0.29314014 0.9106841 
-0.28544718 0.64406246 0.7097208 
0.10077067 0.6717567 0.7338857 
0.32260016 0.9407684 0.10432628 
-0.028155185 0.86412984 0.50248086 
-0.26732332 0.7749789 0.57266587 
0.11132597 0.58919513 0.8002847 
-0.21639225 0.32629853 0.92016506 
-0.5688552 0.17820051 0.8029 
-0.3353764 0.1480785 0.93037385 
0.05813512 0.27021658 0.9610428 
0.21084435 -0.33061567 0.919912 
0.03458966 -0.2401794 0.970112 
-0.026993882 -0.077994846 0.99658823 
-0.3350438 0.51163286 0.7911874 
0.14987898 0.94044447 0.30512363 
-0.047477715 0.8419854 0.5374071 
0.20056039 0.80806416 0.55390245 
0.36495885 0.7160713 0.59501845 
-0.31794706 -0.47128364 0.8226795 
-0.46465233 0.10336993 0.87943894 
-0.20989037 -0.08164421 0.97431016 
-0.3182429 0.90494865 0.28247017 
-0.214913 0.2000093 0.9559335 
-0.31853163 0.6599606 0.6804334 
-0.16447617 0.5480553 0.82011163 
-0.42230284 0.20201233 0.88365793 
-0.20807849 0.55683833 0.8041359 
-0.052990824 0.22328441 0.9733119 
-0.5920215 0.6738802 0.4420363 
-0.11514243 0.7242785 0.67982566 
-0.13119282 -0.27835566 0.95147604 
-0.12505217 -0.121764176 0.9846499 
0.42014578 -0.2304985 0.8776948 
0.16962285 0.28359514 0.94382304 
-0.069355145 0.23727961 0.9689625 
0.82061535 0.45517734 0.3455489 
0.4453883 0.6237225 0.6423391 
0.27451077 0.8279956 0.48894483 
0.31873962 0.047276825 0.9466626 
0.78488415 0.018129261 0.61937726 
0.91281545 0.15033405 0.37969413 
0.8269394 0.4244042 0.36885288 
0.7006202 0.59328115 0.39642015 
0.27099118 0.9617005 0.04118154 
-0.5793079 0.7984365 0.16401699 
-0.10999253 0.84268636 0.5270497 
0.3826216 0.3161511 0.86812985 
-0.08276805 0.63156456 0.7708928 
-0.12534966 0.08712349 0.9882799 
0.062362235 0.49303612 0.8677709 
0.4872353 0.74968266 0.44785914 
-0.18742606 0.7223118 0.6656855 
0.16973595 -0.2357191 0.9568836 
-0.17679688 0.032818433 0.9837001 
-0.1117026 -0.26120284 0.9587991 
0.3459677 -0.4077005 0.84503657 
-0.31951144 -0.3673801 0.8734669 
0.6633759 -0.28611085 0.6914283 
0.48054022 0.03408734 0.87631005 
0.12020529 0.22932239 0.9658996 
0.2673529 -0.4801746 0.83543694 
0.24812339 -0.39516723 0.88446456 
0.049869735 -0.030501079 0.99828994 
-0.10274781 0.5531739 0.8267052 
0.577001 0.50893545 0.63879156 
0.5341948 0.6243432 0.5699399 
0.21413685 0.09155588 0.9725034 
-0.25683987 0.79771775 0.54560024 
0.11784362 0.86084116 0.49504077 
-0.71800524 0.32128918 0.61744785 
-0.3457071 0.17082702 0.9226618 
-0.32136214 0.66218513 0.6769322 
-0.31558046 0.7156362 0.6231163 
0.43498465 0.518578 0.736115 
0.6926223 0.31534287 0.6487166 
0.29159972 0.69365615 0.6586431 
0.4291187 0.82010025 0.37854034 
0.39336404 0.87037414 -0.29616496 
0.1567366 0.8620646 0.48195258 
0.8969081 0.032734297 0.4410037 
0.38761157 0.17916498 0.90424395 
0.841656 0.23047392 0.48836157 
0.5818082 0.35907406 0.72977054 
0.7066029 -0.2273655 0.6700876 
0.66452575 0.049366757 0.745633 
0.47871393 -0.0016816752 0.8779693 
0.641275 0.047544498 0.7658368 
0.78663963 0.00078108127 0.61741203 
0.039680034 0.2679931 0.9626034 
-0.10066274 0.49250433 0.864469 
-0.7163104 0.0406227 0.6965984 
-0.11809294 -0.26752624 0.95628643 
-0.3293044 -0.39278734 0.8586482 
-0.6164885 0.2578101 0.74395967 
0.0025103667 0.8317169 0.5551942 
0.19611572 0.7404873 0.6428197 
-0.020710075 0.1667705 0.9857783 
0.29537278 0.37582663 0.878356 
-0.47328576 0.35734117 0.80517566 
-0.014320104 0.7915639 0.6109187 
-0.26300517 0.917407 -0.29865178 
-0.35684842 0.55809706 -0.7491241 
-0.19427578 0.94133115 -0.2759578 
-0.45278117 0.79164565 -0.41022724 
-0.019047963 0.9861922 0.16450584 
0.5050919 0.83279353 0.22657719 
0.5789043 0.14958034 0.8015583 
0.04159072 -0.14002122 0.9892746 
-0.2530346 0.06514612 0.9652614 
0.50629735 -0.47991705 0.71647936 
0.13845293 -0.48050195 0.8659958 
-0.24774113 0.23076844 0.9409412 
-0.049353074 0.0415577 0.99791646 
0.23127975 0.34243533 0.91063046 
-0.08356256 0.62941045 0.7725671 
-0.08044776 0.3793765 0.92173845 
-0.1269563 -0.111021504 0.9856756 
0.13171555 -0.4331833 0.89162964 
0.42993042 0.1768218 0.8853779 
0.0071648182 0.3209514 0.9470686 
0.34554982 0.24640524 0.9054722 
-0.285707 0.84388345 0.4541281 
-0.26090398 0.89278543 0.3672374 
0.29006827 0.58580476 0.756765 
0.37316936 0.23494858 0.8975209 
0.18276869 0.09944042 0.9781141 
-0.116153054 0.10388219 0.98778385 
-0.29456165 0.7712057 0.56433624 
0.058139607 0.78800863 0.6129129 
0.17195405 0.36806616 0.9137611 
0.024432829 0.20470451 0.97851884 
-0.40690613 0.2110118 0.888764 
-0.7483995 0.45222327 0.4851725 
-0.27287608 0.79486287 0.54197025 
-0.41654083 0.9072741 -0.057856843 
0.23473121 0.96455824 -0.120534964 
0.15701303 0.9416856 -0.29761565 
0.19910324 0.9612627 -0.19060972 
0.13192943 0.62574714 0.7687881 
0.75083333 0.47780824 0.45601404 
0.8985683 0.32430345 0.29563907 
0.47414938 0.0017846214 0.88044274 
0.11567658 0.29864037 0.94732934 
0.6267931 -0.12002879 0.7698854 
0.23516695 0.46813825 0.8517882 
0.40448436 -0.10494436 0.9085038 
-0.02940647 0.50550437 0.8623228 
0.0019293673 -0.24470188 0.9695965 
-0.25875583 0.24043506 0.93554074 
-0.28657594 0.024444219 0.9577457 
-0.5047375 0.4959217 0.70661294 
-0.27270725 -0.029728867 0.96163774 
-0.7243269 -0.04147392 0.6882082 
-0.22197989 0.06701532 0.97274554 
-0.76337403 -0.22826937 0.60427904 
-0.32308507 -0.53514385 0.7805364 
-0.9551751 0.17266002 0.2404768 
-0.98150986 0.11206198 0.1551791 
-0.6407764 0.7556953 -0.13538957 
-0.33643198 0.79501677 0.50473946 
-0.5520849 0.59925276 0.57974 
0.13475855 0.1686355 0.9764232 
-0.06388252 0.2780436 0.9584419 
0.6575555 0.21916804 0.7208232 
0.30128074 -0.031151213 0.9530266 
0.29444182 0.20340186 0.93377286 
-0.16370347 -0.09618407 0.9818095 
0.043397855 0.5772626 0.8154045 
-0.77079123 0.15609512 0.6176693 
0.30174574 0.5197349 0.7992654 
0.024304267 0.8051768 0.5925367 
0.28497103 0.89941895 0.33141676 
0.15137449 0.8947406 0.42014882 
0.0636358 -0.14899239 0.98678863 
0.124322765 -0.49194586 0.86170363 
-0.4828445 0.21595825 0.8486597 
-0.37046558 0.24551274 0.8958118 
-0.92993385 -0.042428125 0.36527097 
-0.6805344 0.003121818 0.7327095 
0.46113542 0.67944515 0.5707088 
0.15564676 0.8306236 0.53463864 
0.03276977 0.8485376 0.52811944 
0.3546252 0.878598 0.3198541 
0.7820558 0.36803228 0.50293237 
-0.10593924 0.058457445 0.9926529 
-0.24337836 0.4361854 0.8663195 
-0.025950452 0.45918122 0.8879636 
0.34438488 0.57468987 0.7423818 
0.4110959 0.444574 0.79583555 
0.2754426 -0.07339793 0.9585115 
-0.060328152 -0.139681 0.9883572 
-0.3071513 0.7835231 0.54013866 
-0.54692334 0.5636272 0.619031 
-0.27847195 -0.36138833 0.8898607 
-0.32663816 0.4021568 0.8553231 
0.53145957 0.37144822 0.7612995 
-0.31612274 0.6345598 0.7052661 
0.019282984 0.49248606 0.87010676 
-0.18340681 0.30579624 0.9342648 
-0.83760273 0.23069707 0.4951773 
-0.34531027 0.9383052 0.018550154 
-0.8697358 0.4930286 -0.021965807 
-0.7923756 0.4049338 -0.4562558 
-0.37603047 0.69911665 -0.6081423 
-0.08118545 0.6554599 0.7508537 
0.2958699 0.556641 0.7762807 
-0.3767693 0.53736585 0.75450844 
0.2959009 -0.018343978 0.95504254 
-0.01981013 -0.28075135 0.95957613 
-0.2449833 0.21362534 0.9456994 
0.77206135 0.39838362 0.49518877 
0.6006938 0.24608527 0.76066357 
0.3009918 0.17582256 0.9372782 
0.21102966 0.6041208 0.768443 
0.4486828 0.79814357 0.4020581 
0.49826115 0.7477065 0.43894297 
-0.048407428 0.20542133 0.97747576 
-0.8029627 0.59503406 0.03443177 
-0.7728959 0.633952 0.027147764 
0.17485833 0.9534923 -0.24551414 
0.7304258 0.38666624 0.5629987 
0.20025612 -0.0017773511 0.97974205 
0.0511399 0.7449895 0.66511303 
-0.18596433 -0.2157563 0.95857525 
-0.166512 0.5050862 0.8468541 
0.20487021 0.2580155 0.94416964 
-0.12887874 0.5940863 0.79401 
0.42095327 0.46337503 0.77979624 
-0.001513898 0.8131936 0.5819914 
0.29096103 0.069863 0.9541807 
-0.5412442 0.43187872 0.72148156 
-0.4492692 0.03651049 0.8926501 
-0.36160758 0.39476234 0.84463173 
-0.10046531 0.9517885 0.28983694 
0.25844905 0.800429 0.540849 
0.5402647 0.42171848 0.7281948 
0.3942192 -0.46150196 0.7947372 
-0.011333702 0.43393478 0.9008731 
0.16648196 0.48040488 0.86110103 
0.22478598 0.3519214 0.9086379 
0.70224136 -0.11064307 0.7032889 
-0.0490461 0.32285827 0.9451757 
-0.12206592 0.6695142 0.73270094 
-0.16126244 0.9792715 0.12256355 
0.36519584 0.92519295 0.10319949 
0.2854151 0.31558084 0.90495694 
-0.49141544 0.40670112 0.77013314 
-0.520276 0.28176442 0.8061773 
0.32909197 0.6094331 0.7213112 
-0.40466473 0.50696963 0.76107043 
-0.55765694 -0.029705325 0.8295399 
-0.34391734 0.6645144 0.6634316 
-0.30389187 0.4632961 0.8324701 
-0.057239797 0.30102134 0.951898 
0.6624519 -0.33199748 0.6715171 
-0.47575042 -0.13851367 0.86860555 
0.22026446 -0.4742866 0.85237074 
0.48627755 -0.10134865 0.8679071 
0.11431413 -0.042064857 0.9925538 
0.16266592 -0.39803913 0.90283144 
-0.6163883 0.6149973 0.49177608 
0.13246238 0.5806035 0.8033389 
0.22559349 0.6478956 0.7275568 
-0.36149246 0.049753003 0.9310467 
-0.22864096 -0.6923087 0.684421 
-0.13710886 0.26002494 0.9558181 
-0.66283077 -0.42279366 0.6179814 
-0.27528322 -0.47494477 0.83585083 
0.07935297 0.007244918 0.99682033 
0.3647156 0.5984438 0.7133355 
0.04687225 0.19632648 0.9794177 
0.18308872 0.90852064 0.3755913 
-0.16281077 0.49424753 0.85393924 
-0.5628069 0.025068955 0.8262083 
-0.70805615 0.03585076 0.70524555 
-0.69608605 -0.26606524 0.66683847 
-0.10477007 0.33934215 0.9348103 
-0.7264136 0.23856594 0.6445228 
-0.41002452 0.055761628 0.91036844 
-0.4697882 -0.12554237 0.8738068 
-0.16805619 0.17246965 0.9705727 
-0.8271487 0.2941413 0.4788592 
-0.38079077 0.57849616 0.7213464 
0.035872962 0.1268742 0.99126995 
-0.5496907 0.36870205 0.74959916 
-0.38298032 0.17527041 0.9069766 
-0.41124764 -0.35783827 0.838348 
0.34656206 -0.38758153 0.8542103 
0.5392584 0.15991959 0.8268169 
-0.14593202 0.41369322 0.89864445 
0.17022336 -0.094352424 0.980878 
-0.20323077 -0.2909803 0.93489456 
0.26194018 0.4061457 0.87546164 
0.3085535 0.20019773 0.92990094 
0.17685314 0.27016094 0.9464333 
0.14366373 -0.041987047 0.98873556 
0.39823878 0.36721206 0.84057206 
0.8302429 0.1869495 0.5251158 
0.23785076 0.82818896 0.50747424 
0.57973236 0.7286845 0.36459476 
0.099343605 0.4882308 0.8670419 
-0.24522911 0.31839925 0.9156881 
0.32171807 -0.40642953 0.8551682 
0.5085067 0.1667993 0.8447479 
0.21412414 0.2139189 0.9530948 
0.36280632 0.48040584 0.79848725 
-0.1724602 0.14306346 0.97457194 
0.501007 -0.15132558 0.85211074 
0.16241567 -0.2254656 0.9606177 
-0.26036665 0.36871555 0.8923329 
-0.6467513 -0.10984734 0.7547492 
0.41063535 -0.24400795 0.87854356 
0.42031154 -0.26245475 0.8685941 
0.20095661 -0.57201385 0.79524636 
-0.06097617 -0.080434255 0.9948931 
-0.42627525 0.027909994 0.90416294 
0.95448375 -0.035392456 0.29615566 
0.49646756 -0.7420942 0.45035118 
0.31905198 -0.39005297 0.8637503 
-0.15709896 0.14938104 0.97621983 
0.73754287 0.39344355 0.5488467 
0.40883127 0.6527735 0.63776475 
0.07173686 0.25439736 0.9644355 
0.75071883 0.06304765 0.6576066 
0.09135965 0.5143836 0.85267985 
-0.4605591 -0.107547544 0.88108957 
-0.75524604 0.53962976 0.37202576 
-0.3673742 0.92391324 -0.10686788 
-0.05085159 0.9422067 0.3311507 
0.55361015 0.7047454 0.44367766 
0.92796487 0.02633271 0.37173635 
0.904248 0.14150435 0.40287998 
0.4207486 0.8053119 0.41766426 
0.3535796 0.47866887 0.8036527 
0.5913569 0.7830298 0.19277301 
0.6370147 0.5716793 0.5171026 
0.2740823 0.62789285 0.7284432 
0.7940548 0.15055412 0.5889062 
0.27670693 0.38271666 0.8814541 
0.08415001 -0.24960679 0.96468407 
0.30721727 0.6382483 0.7058731 
-0.114506364 0.40806893 0.90574175 
-0.23052523 0.15657881 0.96038604 
0.09753636 0.42713875 0.89891 
0.030345246 0.14822644 0.98848784 
-0.1807725 0.1626448 0.9699836 
-0.41870454 0.33724654 0.8431793 
-0.11171844 0.01794118 0.993578 
-0.5480479 0.3538109 0.75793236 
-0.7179411 0.37369916 0.58729005 
0.17518647 0.6509292 0.738648 
0.31074235 0.46856788 0.82697254 
-0.33309862 0.63692755 0.6952472 
0.27417305 0.25053152 0.92847353 
-0.13274539 0.6423982 0.754787 
-0.14640744 0.538882 0.8295608 
-0.8300768 0.55314976 0.07069487 
-0.63190365 0.7573499 -0.16467805 
-0.40644282 0.8971478 0.17300329 
0.09149677 0.99537385 -0.029314253 
-0.11903639 0.7863078 -0.60625935 
0.47600725 0.8344052 0.27782208 
0.4819712 0.5936146 0.6444576 
0.340556 0.50266683 0.7945739 
0.024709081 9.428181e-05 0.9996947 
0.30369744 0.017815355 0.95260197 
-0.1307348 0.30304047 0.9439677 
-0.318485 0.13764031 0.937882 
0.34061685 0.03296729 0.9396241 
0.2292629 0.25776812 0.9386129 
0.13934103 -0.26647297 0.9537171 
-0.037515912 0.128394 0.9910134 
-0.4062366 0.014581461 0.9136517 
-0.4893419 0.28544524 0.8240544 
0.3075425 0.35436985 0.88308537 
-0.14182337 0.7152297 0.6843484 
-0.2516177 0.7959309 0.5506202 
-0.21867165 0.7974041 0.56243175 
0.6937764 0.71738964 -0.063453965 
0.35077393 0.33111313 0.87596905 
-0.3200337 -0.051229086 0.94602007 
-0.6900949 0.21543911 0.6909089 
-0.6879305 0.5319596 0.49373135 
-0.58010435 0.643904 0.49886534 
0.11320855 0.9561203 0.27021828 
0.22825488 0.40721428 0.88435084 
-0.10816304 0.71993774 0.68555856 
-0.031323634 0.7223072 0.69086266 
-0.5434221 0.8393463 -0.013797418 
0.115244575 0.9608707 0.2518855 
0.2294929 0.47004598 0.8522851 
0.02435002 0.7751239 0.6313398 
0.083701156 0.94997555 0.30089998 
-0.4218016 0.8075247 0.41229507 
-0.04657084 0.4283708 0.9024022 
0.7012443 0.115517795 0.7035 
-0.21278204 0.6123204 0.7614379 
0.21272828 -0.0020802373 0.97710925 
0.13224322 9.702341e-05 0.9912173 
0.27415022 0.25042492 0.928509 
0.30002263 0.71894073 0.6269854 
0.72229564 -0.3278505 0.60893613 
0.52523845 -0.34287715 0.7788195 
0.35271904 -0.19411924 0.91537267 
-0.73788136 -0.1797762 0.65054727 
-0.6474196 0.34975466 0.67714083 
-0.20721942 0.1050068 0.9726427 
0.24312375 0.31995803 0.9157062 
0.21348962 0.4843707 0.8484146 
-0.8666294 0.17199895 0.46836948 
-0.931486 -0.16168556 0.3258708 
-0.8849807 -0.3340442 0.3243822 
-0.9498459 -0.07358608 0.30393738 
-0.90699834 -0.18808366 0.37680072 
-0.9343393 0.35606647 -0.015061397 
-0.41448537 0.3960946 0.8193357 
0.25227222 0.43703622 0.8633413 
-0.29146534 0.032003883 0.9560459 
-0.26408276 0.76043475 0.5932954 
-0.25750515 0.9038341 0.3417236 
-0.07381516 0.21076044 0.9747469 
0.39046225 0.40249437 0.8279719 
-0.21986867 -0.39236012 0.8931468 
-0.30509645 0.22547902 0.92524344 
-0.33373556 0.011543527 0.94259614 
-0.7276173 -0.13693875 0.6721762 
-0.5302236 0.57375866 0.6242308 
-0.08661015 0.7459271 0.6603723 
0.29404008 0.71883583 0.62993294 
-0.2186054 0.3605651 0.9067549 
-0.23975563 -0.16783035 0.95621663 
-0.5073942 -0.16379018 0.8460048 
-0.6754824 0.018496918 0.7371441 
-0.82843906 0.19098951 0.526509 
-0.7208328 0.45931023 0.5190705 
0.8980277 0.2866615 -0.33372343 
0.8410869 0.07021664 0.5363231 
0.32680762 0.16762201 0.9301074 
-0.02514532 -0.3401043 0.94005156 
0.046128638 0.16847186 0.98462653 
-0.22159488 -0.15815835 0.96222746 
-0.044342827 -0.16577394 0.9851663 
0.6705553 0.09794527 0.7353655 
0.081454486 0.28054184 0.9563794 
-0.34281978 -0.063472256 0.9372544 
-0.8123511 0.09515355 0.5753534 
-0.8130953 0.22025894 0.5388526 
-0.28881672 0.89110225 0.35003105 
-0.4060334 0.3753436 0.8332192 
0.19973698 -0.5527136 0.80908155 
-0.03369042 -0.10243321 0.99416924 
0.24797702 0.17453216 0.9529144 
-0.11487588 0.6449388 0.7555511 
-0.48335844 0.7086615 0.5139685 
0.19224599 0.0004793666 0.98134667 
-0.40907267 -0.2796396 0.8685974 
-0.380073 0.9168136 0.12246398 
-0.11642156 0.93199414 0.34326813 
-0.44435754 0.87255096 0.2029811 
-0.48066294 0.850321 -0.21428362 
-0.33682048 0.90386224 0.2637896 
-0.00902741 0.99995506 0.002904533 
-0.93061125 0.20659235 0.3021299 
0.12117281 0.6487143 0.7513235 
-0.099942274 0.3226173 0.9412384 
0.008898835 -0.30582708 0.9520455 
0.013073295 0.19700664 0.9803151 
0.19218987 0.5745015 0.79561996 
-0.0873479 0.24071883 0.9666565 
0.5545119 -0.24004917 0.7968017 
-0.11254202 0.15109758 0.9820916 
0.20021503 0.14960043 0.9682632 
-0.12510224 -0.29344273 0.9477557 
-0.8020389 0.040096115 0.5959245 
-0.18719943 -0.57233644 0.7983655 
0.10044087 0.2650546 0.9589879 
0.165945 0.0019771552 0.9861331 
0.45444778 -0.045932185 0.8895884 
-0.6342596 0.06543967 0.7703456 
-0.34320816 -0.11939827 0.93163955 
0.020590376 0.069552235 0.99736583 
-0.14782046 0.03853054 0.98826337 
0.13335626 0.10446434 0.98554724 
0.39678112 0.49195492 0.7749486 
0.19982481 0.27217168 0.9412719 
-0.16905408 0.11527261 0.9788427 
0.07688805 0.33911413 0.93759793 
-0.33064345 -0.20220554 0.9218394 
0.24077906 0.19880891 0.9500003 
0.6018906 0.67717 0.4232831 
0.28012946 0.6547773 0.70199305 
0.19701947 -0.019630643 0.98020303 
0.33302763 -0.3321769 0.8824689 
-0.0008428476 0.01913296 0.9998166 
0.42815855 0.51109827 0.7452912 
0.67135644 0.5792836 0.46228898 
0.9298114 0.19392191 0.312802 
0.43837616 -0.5689678 0.6957744 
0.9031346 0.35290784 0.24454883 
0.5380908 0.80375665 0.25383762 
0.03596444 0.82805395 0.55949366 
-0.69593155 -0.35411042 0.624728 
0.084029354 -0.40821138 0.9090119 
0.3524947 -0.3469992 0.8691025 
3.444524e-05 -0.19991556 0.9798132 
-0.16324826 -0.4006133 0.9015869 
-0.86929935 0.31818762 0.37825316 
0.3058619 -0.08026651 0.9486864 
0.11046441 0.045055248 0.99285835 
-0.32576388 0.31046668 0.89302206 
0.0015684488 -0.38878775 0.9213261 
-0.2980716 0.24821545 0.9217063 
-0.08042718 0.097047836 0.9920248 
0.78112686 0.5268988 0.33499023 
0.76393175 0.022613771 0.64490074 
0.6319063 -0.12211586 0.7653642 
0.41556874 -0.07736818 0.9062653 
0.2263339 0.035944182 0.97338635 
0.7050268 0.37490168 0.60198504 
0.31338647 0.44767234 0.83748335 
0.42316264 0.1232378 0.8976335 
-0.35496697 0.08377463 0.9311178 
-0.1800132 -0.5122657 0.8397496 
-0.9018335 -0.038558286 0.43035993 
-0.8509096 0.3496829 0.39201376 
-0.31555542 0.42109436 0.8503555 
-0.6000422 0.32866707 0.7293335 
-0.21593626 0.22161779 0.95092434 
-0.30080828 -0.2605475 0.9174037 
0.020279981 -0.54011136 0.84134924 
-0.6129553 -0.04528293 0.78881896 
-0.21504338 0.1367406 0.9669842 
-0.003716381 0.40341094 0.91501135 
-0.43489277 -0.15190996 0.8875762 
-0.59545577 -0.17677456 0.78369844 
0.029631041 0.46215037 0.88630646 
0.16829026 0.024953933 0.98542166 
-0.6788805 0.28728503 0.6757134 
0.046572737 0.44492227 0.89435744 
0.096963085 0.31143707 0.94530696 
-0.73195857 -0.09415891 0.67481166 