# OOMMF: rectangular mesh v1.0
# Segment count: 1
# Begin: Segment
# Begin: Header
# Desc: Time (s) :  7e-08
# Title: m
# meshtype: rectangular
# meshunit: m
# xbase: 2e-09
# ybase: 2e-09
# zbase: 5e-10
# xstepsize: 4e-09
# ystepsize: 4e-09
# zstepsize: 1e-09
# xmin: 0
# ymin: 0
# zmin: 0
# xmax: 1.024e-06
# ymax: 1.024e-06
# zmax: 1e-09
# xnodes: 256
# ynodes: 256
# znodes: 1
# ValueRangeMinMag: 1e-08
# ValueRangeMaxMag: 1
# valueunit: 
# valuemultiplier: 1
# End: Header
# Begin: Data Text
0.9145818 0.40394872 0.019123124 
0.93075466 0.14330767 -0.33639082 
0.95851654 0.18320896 0.21835898 
0.85423505 0.037000205 0.5185688 
0.53691685 0.66521466 0.5188543 
0.52042365 0.29033545 0.80303466 
0.29244933 0.8101599 0.5080497 
0.24097605 0.5037883 0.82953477 
0.189535 -0.29901686 0.9352355 
-0.0028640684 0.5246107 0.85133755 
-0.3098274 0.82163876 0.47845268 
-0.51681155 0.33726746 0.78686506 
-0.45911887 0.8755248 0.15055346 
0.3671837 0.92967093 -0.029804513 
0.37793753 0.7911709 0.48084497 
-0.30042282 0.6637425 0.684976 
-0.35233027 0.17670666 0.91904193 
-0.09807787 0.60011196 0.7938806 
0.35099173 0.7611386 0.54541075 
-0.5702172 0.118438676 0.81291133 
0.15710178 0.022425009 0.98732775 
0.31529403 0.80223465 0.50696075 
-0.5743695 0.081762716 0.8145027 
-0.07992508 0.29995686 0.9505988 
-0.41721648 0.626767 0.65809846 
0.028293464 0.6402453 0.76764923 
0.22362077 0.533724 0.8155566 
-0.6088386 0.5150406 0.60336465 
0.09126786 0.9668825 0.23834524 
0.07022292 0.75421566 0.65286106 
-0.40433028 0.6979906 0.5910383 
0.7100266 0.70315665 0.037854597 
0.84076846 0.52336 0.13857378 
0.9019615 0.30935365 0.30127373 
0.17900379 0.8023064 0.56944025 
0.18805331 0.83688813 0.5140567 
0.1805458 0.9514563 0.24926746 
-0.011621544 0.6527316 0.7575002 
-0.5473931 0.108086966 0.8298663 
-0.08083331 0.37378633 0.92398584 
-0.15480223 0.17137523 0.97296804 
0.07984149 0.095297754 0.9922418 
-0.4427601 -0.2997029 0.845069 
-0.39655364 -0.09360688 0.9132268 
-0.23725696 0.7420871 0.62690985 
-0.48702753 0.67028946 0.5599253 
-0.07149893 0.13591851 0.9881367 
-0.74852306 0.4182641 0.5145566 
-0.6608441 0.44791886 0.6022074 
0.23862563 0.9600151 0.14638561 
0.119009934 0.62664646 0.77016294 
0.20961387 0.7686471 0.604354 
0.10059954 0.21054113 0.97239506 
0.14399187 0.89113134 0.43029198 
-0.5891639 0.46751222 0.65902835 
-0.770166 0.08080414 0.6327047 
-0.80916053 0.531783 0.24993263 
-0.50228494 0.6612673 0.5571674 
-0.2737657 0.6300189 0.7267246 
-0.17404073 0.52239585 0.834753 
-0.64562625 0.5782293 0.4988163 
-0.74784076 0.32043168 0.58142734 
0.0606509 0.45349583 0.88919234 
-0.16830452 0.89471614 0.41371095 
-0.20651592 0.7855208 0.5833596 
0.43107176 0.89952093 0.07098802 
0.27782625 0.8907508 0.35968822 
-0.5499229 0.7317448 0.4026591 
-0.69963735 -0.5318605 0.47710803 
-0.14066987 0.14613882 0.9792116 
0.3925935 -0.35831007 0.84704447 
0.49293166 0.13613266 0.8593523 
0.8173332 -0.4544436 0.35418558 
0.87220764 -0.11064448 0.47645748 
0.93088984 0.35454303 0.08799637 
0.87998945 -0.29786688 0.36999175 
0.8925091 -0.25579247 0.37148052 
-0.7032824 0.26023105 0.6615691 
-0.38397795 0.91836894 0.09570535 
0.62771595 0.6896998 -0.36095276 
0.60667294 0.7901033 -0.08766329 
0.92784256 0.30389166 -0.21623641 
0.83151203 0.52357703 0.18562014 
0.38149536 0.90205866 0.2018702 
0.08470331 0.9871566 -0.13545188 
-0.12611188 0.99201494 -0.0015250407 
-0.6806547 0.7325394 0.009762299 
-0.45979998 -0.09639275 0.8827755 
-0.48492688 0.59700286 0.63908803 
-0.203055 0.8601569 0.4678662 
0.18292174 0.97729826 0.106900536 
-0.21386826 0.01140074 0.9767961 
0.086083226 0.33442453 0.9384828 
0.5338964 0.52308446 0.6643322 
0.2655189 0.83377767 0.48406035 
0.4035285 0.90034115 0.16294385 
-0.2852567 0.27395406 0.9184649 
-0.24501106 -0.67439747 0.6965326 
-0.056403045 0.019287921 0.9982218 
-0.25080168 0.13024245 0.9592369 
-0.48168716 0.6460776 0.59208214 
0.16992474 0.90642095 0.38668695 
-0.47570732 0.2526599 0.84253526 
-0.0032239992 0.67797923 0.73507404 
-0.5850589 0.7520788 0.30345297 
-0.84115845 0.5332837 0.089783266 
-0.3018513 0.9106933 0.28199935 
-0.109667026 0.9405222 0.3215453 
-0.614122 0.7699458 0.1733145 
-0.81289583 0.41586977 0.40774122 
-0.49291298 0.732769 -0.46913382 
0.49547565 0.4887278 -0.7180871 
0.543055 0.77457714 -0.32422465 
0.7682872 0.6347631 0.08252585 
-0.12810414 0.3058488 -0.9434225 
0.12663023 0.8431407 0.5225691 
0.39114982 0.5104084 0.7658232 
-0.6285564 0.7073294 0.3234225 
0.30845892 0.7488295 0.5866068 
0.20771058 0.27679405 0.9382118 
0.12092684 -0.36307207 0.9238807 
-0.27111214 -0.69927955 0.66144264 
0.4849275 -0.2823804 0.8277117 
-0.62830424 0.32165673 0.7083578 
-0.6491659 0.6932802 0.3129635 
-0.55436623 0.09249545 -0.82711715 
-0.58349234 0.39724657 -0.70833045 
-0.8116906 -0.10817968 -0.57398224 
-0.52257484 0.20210248 -0.8282935 
0.13674894 0.04790061 0.989447 
0.109142564 -0.27021083 0.956595 
0.43831378 0.3768926 0.815986 
-0.12921943 -0.04081998 0.99077547 
0.22901686 -0.452272 0.8619753 
-0.024587566 0.18154725 0.98307484 
-0.95754164 0.11249437 0.26544127 
0.7033372 0.3253325 0.6320409 
0.39809275 0.79995817 -0.44898683 
0.7994857 0.43488696 0.41436246 
0.6506592 0.7525705 -0.10139135 
0.56779665 0.7668775 -0.29917538 
0.3479794 0.84385574 0.40843347 
0.44541562 0.7659611 0.46358243 
0.57342046 0.6259192 0.52859634 
0.7597087 0.5054068 -0.40915385 
0.14402658 0.7756402 0.6145231 
0.083447956 0.42935014 0.8992747 
-0.35973817 -0.26374993 0.8949997 
0.049197357 0.60850024 0.79202724 
-0.6830913 -0.053143818 0.72839695 
-0.48850328 0.41038483 0.7700317 
-0.23014402 0.102525875 0.9677408 
-0.51970816 -0.8525137 -0.05589188 
-0.76730514 -0.25285205 0.5893291 
-0.47171944 0.6763917 0.56566346 
-0.1740802 0.82428133 0.53875464 
-0.6632708 0.7343142 -0.14441127 
0.033618703 0.98764795 0.15304069 
0.77235585 0.52000475 0.3647761 
-0.04726506 0.81591946 0.57623047 
-0.3894391 0.779318 0.49091837 
-0.5947142 0.7905831 -0.14592272 
-0.4972908 0.7731136 -0.39369705 
0.4211981 0.86915296 0.2591628 
0.113930665 0.76643854 0.63213277 
0.13767509 0.3186787 0.9378111 
-0.3573868 0.72385395 0.59017813 
0.18053724 0.7992509 0.5732401 
-0.33811018 0.57063305 0.7483712 
-0.04825306 0.52200645 0.8515755 
-0.38210523 0.67742485 0.62856287 
0.14375277 0.9709567 0.19125466 
0.078247644 0.41705415 0.9055071 
0.7401906 0.6467851 -0.18381254 
0.3238494 0.78895175 -0.5221847 
0.52773273 0.5688805 0.63077193 
0.5849346 0.28591773 0.7590143 
0.6254228 0.02274281 0.77995455 
-0.102116846 -0.2267873 0.9685762 
0.052409608 0.3310224 0.9421664 
0.37203926 0.08168323 0.9246159 
0.33250633 -0.1837348 0.92503035 
0.266828 -0.48818883 0.830948 
0.036497857 0.15006089 0.9880029 
-0.20029067 0.7144738 0.6703811 
-0.11325542 0.24099515 0.96389556 
0.039530024 -0.37194654 0.92741215 
0.22375502 0.28029495 0.93347114 
0.049146496 0.40259382 0.9140585 
0.4218131 0.32186708 0.8476293 
0.5596168 0.10885023 0.8215721 
0.31295896 0.76301 0.56557274 
-0.64932996 0.19463027 0.73518 
-0.2830515 0.42195064 0.86130106 
0.6157934 0.5376543 0.57595694 
-0.006791908 0.40181708 0.9156948 
0.35583773 0.2676845 0.8953908 
-0.5553425 0.47748455 0.6808842 
-0.17510748 0.38590422 0.9057679 
-0.17050324 0.103401735 0.9799167 
-0.37207866 0.71892226 0.58711874 
-0.43321404 0.42268026 0.796032 
-0.026740883 0.5030798 0.8638263 
-0.107902214 0.8741503 0.47351697 
-0.21003473 0.8158874 0.5387145 
-0.56960243 0.6933432 -0.44139358 
-0.84658587 0.32772356 -0.419392 
-0.40295932 0.01870706 -0.9150267 
-0.6092307 -0.25196096 -0.7519 
-0.10391476 0.5600692 -0.8219029 
-0.35008273 0.9300031 -0.11196597 
-0.1744678 0.8209243 -0.5437318 
0.18918417 0.9635176 0.18932316 
0.006885407 0.87744474 0.47962847 
0.408586 0.6809648 0.60773724 
-0.2219625 -0.16807851 0.9604595 
-0.13578251 0.032130703 0.99021757 
-0.24531744 0.94564456 -0.213485 
-0.45970404 0.8807748 -0.11361389 
-0.5912441 0.802967 -0.075328216 
-0.22768658 0.96507365 0.12958238 
0.15226552 0.9511905 0.2684248 
0.39681372 0.7778926 0.48725975 
0.37744716 0.4424015 0.81351984 
0.043999515 0.2840576 0.95779717 
0.24395256 -0.10902893 0.9636389 
-0.296141 -0.2006129 0.93383884 
-0.79643625 -0.1465208 0.58670366 
-0.92791516 -0.37176645 -0.027624737 
-0.9412423 0.1380148 -0.3082451 
-0.6331037 0.48948067 -0.59965694 
-0.6302514 0.056521595 -0.7743311 
-0.0315454 -0.034614827 -0.99890274 
-0.3551089 0.616365 -0.7028456 
-0.009598598 0.437433 -0.8991997 
0.121341266 0.92469937 0.36084276 
0.7736325 0.61212075 -0.16370966 
-0.182709 0.69849557 0.69189703 
-0.4062787 0.57795084 0.7077503 
-0.25771257 0.95277184 0.16065532 
-0.121846296 0.27349928 0.95412356 
-0.13791427 0.7812269 0.60882205 
-0.25962996 0.42209217 0.8685796 
0.1070492 0.9732168 -0.2034443 
0.7265462 0.67380327 0.13460983 
0.5469515 0.6822382 0.4851755 
0.60465205 0.6899484 0.39795375 
0.20303704 0.5241654 0.82705903 
0.43916035 0.83181393 0.33944666 
0.33384496 0.58315146 0.7405957 
-0.37769628 0.6720764 0.63691354 
-0.59437436 0.67850226 0.43168724 
-0.88742465 0.41688055 -0.19669327 
-0.77861345 0.58738124 -0.22078131 
-0.89535487 0.40450105 0.18632965 
-0.9203806 -0.12018173 0.3720967 
0.8939997 0.3802193 -0.23706077 
0.35447663 0.6113184 0.70755655 
0.27760616 -0.040514905 0.95984036 
-0.0129579725 -0.01652338 0.9997796 
-0.25024372 0.12231956 0.9604249 
0.09940303 -0.1785162 0.978903 
0.42682135 0.811764 0.39857572 
0.25702488 0.5558004 0.7905847 
0.24451154 0.43100283 0.86859125 
0.11655374 0.016329283 0.99305016 
0.09543721 0.3704344 0.9239428 
-0.16184495 -0.1873739 0.9688639 
-0.25447112 -0.20097241 0.94596756 
-0.15761688 0.18098229 0.9707742 
0.3343003 0.81389105 0.4752101 
-0.11008971 0.624848 0.7729459 
0.13246098 0.3505283 0.9271376 
-0.09222053 -0.12789619 0.98749083 
-0.45504686 0.6225709 0.6366615 
-0.7154687 0.010367413 0.6985679 
0.13554093 0.016254852 0.9906384 
-0.2237333 -0.01616903 0.97451633 
0.14900093 0.44526136 0.8829162 
-0.1598887 0.38880822 0.90733886 
0.2089282 -0.06369262 0.97585464 
-0.15713319 0.80212134 0.5761168 
0.31898147 0.8071311 0.49677998 
-0.89778113 0.3341295 0.28696105 
-0.054354377 0.38837558 0.9198967 
0.38870588 -0.050475415 0.91997826 
-0.14106557 0.8973075 0.41825792 
-0.15745893 0.7854534 0.59855634 
0.61694837 0.7679025 -0.17233865 
0.791627 0.3710585 0.48543015 
0.7490086 0.43972927 0.49560493 
0.23438892 0.54929376 0.8020837 
0.15793094 0.45899504 0.87428916 
-0.009237428 0.39890343 0.91694653 
-0.49512336 0.3095012 0.8118263 
0.007842519 0.43923178 0.89833957 
0.043527283 0.14324252 0.9887301 
0.033074845 -0.46402362 0.88520515 
-0.16484728 -0.09500139 0.9817332 
-0.18492931 0.6899944 0.6997921 
0.262314 0.5807878 0.77063423 
-0.41707364 0.27689135 0.8656679 
-0.6206399 0.69132423 0.36996874 
-0.44701833 0.53173864 0.7193252 
-0.19843473 0.6534474 0.73050004 
-0.3821966 0.71252525 0.58841616 
0.4493771 0.28736272 0.84586227 
0.4763796 0.09974732 0.87356335 
0.6912171 0.13183153 0.71052045 
-0.07992577 0.46121418 0.8836817 
-0.63830996 0.118234925 0.76064515 
-0.7113386 0.66465896 0.22853023 
-0.19533621 0.24279062 0.95020866 
-0.73070526 0.109158985 0.67390966 
-0.45796958 0.33334854 0.82410115 
-0.65746766 -0.047584258 0.7519788 
-0.21375497 0.45076844 0.8666699 
-0.6435487 -0.06092446 0.76297665 
-0.045384306 0.70929 0.7034543 
0.24701288 0.6236395 0.7416592 
-0.16023743 0.46201202 0.8722779 
-0.5384024 0.69064265 0.48284122 
-0.37056947 0.91756743 -0.14404304 
-0.04113123 0.8898982 0.45430118 
-0.68402404 0.22890441 0.6926139 
-0.66808915 -0.42658406 0.60965806 
0.14229181 -0.12954333 0.98131114 
0.32760006 -0.48774907 0.80918425 
0.3835665 -0.25714397 0.88699144 
0.90605754 -0.125773 0.404031 
0.86081034 -0.16006874 0.48309806 
0.7421987 -0.6086523 0.2805057 
0.31164312 -0.5777059 0.75441015 
-0.3668003 0.92476636 0.101315506 
-0.522342 0.4532611 0.72229713 
0.69059414 0.5745529 0.43928218 
0.71971387 0.5382081 0.4385705 
0.2587628 0.9596949 0.10967002 
-0.39268067 0.2948166 0.8711401 
-0.5828867 0.6805047 0.4440231 
-0.029711727 0.7713312 -0.6357401 
0.65198934 0.75701374 -0.042898152 
-0.21708852 0.67229396 0.70773834 
-0.17803209 0.5040339 0.84513575 
-0.19216637 0.7107252 0.676714 
-0.47743216 0.6493334 0.5919668 
-0.38327596 0.9015714 -0.20067035 
0.2720703 0.2649036 0.92509663 
0.25647584 0.017014503 0.96640086 
-0.24680398 0.06970281 0.96655536 
0.3953289 0.46967596 0.78937924 
0.7166532 0.6674282 0.20235567 
-0.061037574 -0.27284762 0.9601191 
0.228625 -0.9501182 0.21214662 
0.6148987 -0.04346068 0.78740776 
0.59775335 0.3179404 0.73593813 
-0.166602 0.88148576 0.4418447 
-0.050497904 0.53287697 0.8446847 
-0.5109689 0.40624008 0.75754863 
-0.1466322 0.8091035 0.5690786 
-0.5187878 0.49685547 0.6956968 
-0.78133833 0.6210084 0.06212145 
-0.39811048 0.73570305 -0.54794985 
-0.56369066 0.7782146 -0.27683017 
-0.677729 0.70429575 0.21130751 
-0.61166805 0.65771574 0.43962753 
-0.15114802 0.9883945 0.015184794 
0.69780827 0.52142245 -0.4911031 
0.42862397 0.8861411 -0.17616875 
0.6772513 0.6842112 0.2705286 
0.18749571 0.97547024 -0.11533929 
-0.12363605 0.9422844 0.3111499 
0.085577875 0.8015196 0.5918131 
-0.39677322 0.4533356 0.79815906 
0.116065316 -0.053342056 0.9918082 
-0.77694076 0.099192604 0.6217106 
-0.6994374 0.29642054 0.6503247 
-0.5696288 -0.09805045 0.81603265 
0.04222856 0.30489078 0.9514507 
-0.13354538 0.403865 0.90501857 
-0.1804006 0.8884261 0.42208377 
-0.69555354 0.7108082 -0.10467572 
-0.060763676 0.9753127 -0.212304 
-0.26894316 0.7652774 -0.58482486 
-0.51556987 0.7774536 0.36021352 
-0.41296256 0.1319973 0.9011319 
-0.32442263 -0.082400925 0.9423163 
-0.59058034 -0.18442221 0.7856229 
0.39435425 -0.39562142 0.8294386 
-0.06655476 -0.08598513 0.99407095 
-0.7343208 0.25341424 0.62972546 
-0.15727203 0.67982906 0.7163086 
-0.50468075 -0.07276332 0.86023426 
0.33462223 0.9369014 0.10121221 
0.67237234 0.7222754 -0.16196845 
0.3511104 0.75781566 0.54994273 
0.37709656 0.6732273 0.6360529 
-0.052333474 0.94477737 0.32350728 
0.14470069 0.41098827 0.9000836 
0.4644021 0.82324195 0.32650185 
0.7045687 0.5700382 -0.42265773 
0.34696487 0.7434138 0.5717966 
0.20123248 -0.08040522 0.976238 
0.009579567 0.4183865 0.90821856 
-0.029717261 0.21818322 0.97545534 
-0.20184247 0.409554 0.8896769 
0.3399055 -0.32543495 0.88235843 
-0.38610223 0.41545394 0.82360375 
-0.36586344 -0.20571186 0.9076489 
-0.3977422 -0.4342951 0.80820113 
-0.6279773 0.7041395 0.33140928 
-0.5656818 0.49729192 0.657803 
-0.8879968 0.4039709 -0.21970299 
-0.56998473 0.8148266 -0.105711795 
-0.05715544 0.9454047 0.32084748 
-0.31616932 0.39665583 0.8618011 
-0.41837373 0.5984086 0.6832794 
-0.17919353 0.9797488 -0.08934207 
-0.56501955 0.75075084 -0.3422371 
-0.06849213 0.74125427 0.6677208 
0.2476559 0.50333416 0.82784146 
0.10896508 0.521704 0.84613925 
0.107458524 0.7460502 0.65716195 
0.5902846 0.5127363 0.62343055 
0.36510137 0.3496728 0.8628036 
0.25250393 0.35885704 0.89858973 
0.0122420965 0.2308133 0.9729211 
-0.5317329 -0.1398979 0.83527756 
-0.053955264 0.6881659 0.7235444 
0.32489553 0.84436136 0.4260246 
0.27238652 0.76407206 0.58480734 
0.17023475 0.6418819 0.74766827 
-0.120618485 0.4793909 0.8692731 
-0.20655866 0.239833 0.9485851 
0.043234807 -0.5942823 0.80309355 
0.11020666 0.6515643 0.75054544 
0.17718387 0.15590614 0.97175056 
0.8409467 0.1262988 0.52617234 
0.3182248 -0.009477444 0.94796795 
0.17048036 0.82303065 0.5418092 
0.295985 0.22245534 0.9289276 
0.28973332 0.27025494 0.91815954 
-0.39374697 0.10016828 0.91374487 
-0.2169744 -0.04408062 0.9751815 
0.016635079 -0.3571615 0.9338945 
-0.43690035 0.16254054 0.8847026 
-0.3828394 0.2811325 0.87999916 
-0.6340474 -0.023439057 0.77293885 
-0.91081446 0.38060206 0.15987277 
-0.63963133 0.6025386 0.477304 
-0.29792613 0.8150989 0.49684393 
0.09626869 0.54238236 0.834598 
-0.3552124 0.400709 0.8445451 
-0.3110517 0.39434993 0.8647168 
0.027445879 0.38942352 0.9206499 
-0.48800507 0.52479154 0.69745606 
0.130381 0.7419549 0.6576502 
0.4352672 -0.04221423 0.8993111 
-0.14059223 -0.008011382 0.99003524 
-0.2763342 0.184811 0.9431248 
-0.39788663 0.17376326 0.90082884 
-0.74383783 0.66059506 0.10158487 
-0.74485934 -0.65544593 0.124801 
-0.82311285 0.5638135 0.06782052 
-0.8212596 0.36093563 -0.4418803 
-0.41187814 0.8662702 -0.28272322 
0.10976731 0.9915043 -0.06978841 
-0.25483617 0.9338822 -0.25084373 
0.35921794 0.87272954 -0.33061397 
0.047180038 0.928299 0.3688294 
0.34983522 0.73031795 0.58672917 
-0.59852624 0.4602731 0.6556791 
-0.086151004 0.7777723 0.6226141 
-0.17261426 0.79534674 0.58105755 
-0.33349472 0.8385634 0.43080473 
0.05758374 0.87368435 0.4830733 
-0.2572705 0.8779641 0.40372148 
0.44284698 0.8963069 -0.022818439 
0.12659511 0.9481537 0.29151034 
-0.8544274 -0.17078672 0.4906994 
-0.9504624 0.2568153 0.17512023 
-0.3826066 0.44645154 0.808884 
-0.1978562 0.52209026 0.8296232 
-0.7971222 0.24572259 0.55155855 
-0.45639482 0.21740584 -0.8628085 
-0.39347267 0.69478244 -0.6020437 
-0.5588712 0.6736396 -0.4836039 
-0.78386104 0.35861406 -0.50691 
-0.07230855 0.7854288 -0.6147139 
0.33175397 0.9366593 0.11228879 
-0.20351999 0.7816997 -0.5895127 
0.8503265 0.4207224 0.31612918 
0.54044366 0.73519355 0.40915903 
0.70787793 0.38101244 0.59475917 
0.4989018 0.5230163 0.6910507 
-0.5346107 0.8322874 0.14659172 
-0.5508919 0.6705076 0.49692833 
-0.51166886 0.67082787 0.53682864 
-0.19652489 0.8238494 0.5316485 
-0.07115084 0.88016456 0.4693058 
-0.14395338 0.93048644 0.33685687 
-0.15587527 0.9676954 0.19816285 
-0.3530561 0.76422614 0.5397313 
-0.08137286 0.73859876 0.6692163 
-0.029654358 0.58377343 0.81137484 
-0.42143753 0.5922757 0.68673134 
-0.40629825 0.65533936 0.6367513 
-0.33602485 0.6401819 0.6908361 
-0.5846864 0.2725239 0.7641155 
-0.4867032 0.6335511 0.6014424 
-0.12910584 0.9701715 0.2051806 
-0.8292471 0.5246206 0.192672 
0.56683046 0.8102059 0.14923047 
-0.20175423 0.7858575 0.58457094 
-0.3334878 0.44321582 0.83207315 
-0.010281852 0.5546126 0.8320452 
-0.41801977 -0.5017189 0.7573228 
-0.03351204 -0.13608861 0.99012977 
0.3376393 0.3559024 0.87139726 
0.31952322 0.20923626 0.92418885 
-0.24512932 0.55608714 0.794153 
0.29971552 0.07575655 0.9510161 
-0.36720395 -0.65667045 0.65874517 
-0.067851506 -0.49966776 0.8635556 
-0.51530135 0.24194966 0.8221465 
-0.13760866 0.20214759 0.9696392 
-0.28414568 0.38683516 0.8772798 
0.7353919 0.28398106 0.61526704 
0.1463178 0.32269803 0.93512416 
0.24668205 -0.28256416 0.9269873 
-0.42593032 0.22581674 0.87612224 
-0.1922194 -0.1608286 0.9680836 
0.07136502 -0.36948818 0.92649096 
0.6146443 -0.19240364 0.76497924 
0.3302084 0.33501053 0.882457 
-0.18740362 -0.1085068 0.9762716 
-0.33569163 -0.20432752 0.9195442 
-0.3397089 0.14053614 0.92997175 
0.23489358 0.093863554 0.9674785 
0.013110092 -0.407656 0.9130414 
-0.16338186 -0.29823586 0.9404051 
-0.21090661 -0.28227124 0.935864 
0.9193859 0.2347952 0.31559598 
0.29807192 0.3694402 0.8801518 
0.18558882 0.8357032 0.5168723 
0.66560715 0.6819614 0.30314332 
0.18900582 0.6307265 0.7526359 
0.14368765 0.46974164 0.871032 
-0.26688483 0.7085131 0.6532853 
0.109720625 0.8367355 0.5365029 
0.012381628 0.45134625 0.892263 
0.60458225 0.15949889 0.78041047 
-0.1932907 -0.30091798 0.933856 
0.09956235 -0.17086342 0.9802516 
0.05031199 -0.018740872 0.9985577 
0.21241993 0.025226088 0.97685283 
-0.018774925 0.09102793 0.9956714 
0.38114682 0.1972592 0.9032253 
-0.24580395 0.90937746 0.33557883 
0.16080156 0.46078032 0.8728255 
-0.0796609 0.6673682 0.7404552 
-0.0883019 0.59307754 0.80028856 
-0.12089719 0.56434727 0.81663716 
0.612709 0.16661413 0.7725461 
-0.09788127 0.037924476 0.9944753 
-0.23818104 0.15559183 0.95867676 
0.18704362 0.6037516 0.7749186 
-0.07961003 0.57992154 0.8107732 
0.8626514 0.005402067 0.5057701 
0.09460193 0.37349385 0.9227962 
0.3593805 0.7108484 0.60459924 
-0.21621484 0.66238564 0.71728414 
-0.14946572 0.44965935 0.8806059 
-0.3199809 0.21142125 0.92353314 
-0.5515668 0.38064152 0.7422171 
0.39583945 0.47483733 0.7860285 
-0.14367269 0.68520457 0.7140398 
0.34704003 0.1233998 0.9296967 
0.46218476 0.8753248 0.14209753 
0.10804127 0.7809118 0.6152267 
-0.6508456 0.41403434 0.63637704 
-0.5794501 -0.3610722 0.7306604 
0.111707196 -0.6693421 0.73450845 
0.11530428 -0.8131379 0.5705364 
0.44747308 0.14214511 0.88292843 
0.3347308 0.5856229 0.738242 
0.6933002 0.14542228 0.7058238 
0.55658394 0.05726863 0.8288152 
-0.42728812 -0.6014965 0.67500144 
-0.6852458 0.52206093 0.5078294 
-0.39795807 0.42231148 0.81442153 
-0.3800278 0.8523193 0.35934764 
0.07168698 0.71500254 0.69543684 
0.6161256 0.20636433 0.7601337 
-0.6308056 0.42830437 0.6470238 
-0.5751614 0.5469213 0.6083309 
-0.20864393 0.96315944 0.16968146 
-0.28613132 0.94523823 0.15701486 
-0.6571787 0.6150774 0.43565583 
-0.1856484 0.5094336 0.84024525 
-0.22555777 0.67700356 0.700564 
-0.36534646 0.5805079 0.7276899 
-0.16839096 0.8001458 0.5756832 
0.005703751 0.16355498 0.9865178 
0.17835379 -0.23712544 0.9549667 
0.11374669 0.04501558 0.99248946 
-0.16138649 -0.5436158 0.8236725 
0.4529075 0.5761131 0.680418 
0.40986183 0.142275 0.9009834 
0.10140549 0.15904582 0.98204964 
0.1065793 -0.547014 0.8303112 
0.57700795 -0.11092825 0.8091704 
-0.51263964 -0.24827564 0.82192457 
0.092393674 0.28911945 0.95282394 
-0.13620086 0.36820373 0.9197149 
-0.46808216 0.544813 0.6957572 
-0.26988637 0.3727637 0.8878112 
-0.59516424 0.09201038 0.7983193 
-0.69337595 0.30701584 0.65189815 
0.14859156 0.5898021 0.79375947 
0.09403934 0.61797416 0.780554 
0.07632108 0.90358454 0.421557 
0.10548886 0.9803812 0.16650766 
0.6150106 0.7160612 0.3301794 
0.6319477 0.7420194 0.22371726 
0.66209954 0.5247166 0.53506696 
-0.42995346 0.5200566 0.7380252 
0.050503075 0.9245361 0.37773317 
-0.38021773 0.36516893 0.8497566 
-0.10766565 0.10458076 0.9886713 
0.35139462 0.47243235 0.80828804 
0.16229735 0.7268794 0.6673125 
0.0467324 0.0092239855 0.9988649 
-0.12016299 0.82490176 0.5523567 
0.49997172 0.64070696 0.58268607 
-0.5140385 0.34395915 0.785784 
-0.3886322 -0.2686835 0.88134795 
-0.6171118 0.7836409 0.071272805 
-0.22327584 0.55338246 0.8024436 
-0.37469533 0.6664152 0.6445885 
-0.07824821 0.20233387 0.9761856 
0.08783693 0.13828312 0.98648995 
0.2982298 -0.09044063 0.9501998 
-0.34216505 -0.5884394 0.7325723 
-0.0059939628 0.047252186 0.998865 
-0.24024703 -0.3213203 0.9159884 
-0.1910585 -0.23457037 0.9531387 
-0.47289523 -0.17886205 0.8627737 
-0.65370613 0.11514939 0.74793655 
0.25927374 0.6745457 0.69120574 
0.6295578 0.715071 0.30385935 
0.3266771 0.8806429 0.34314746 
0.17304672 0.315553 0.93299586 
-0.14533769 0.96310526 0.22650665 
0.44717863 0.71086 0.5428714 
0.25574756 0.59773964 0.75980306 
0.008867608 0.7176089 0.69638985 
-0.05141666 0.89942646 0.43403754 
-0.35555652 0.17709574 0.9177237 
0.32974887 0.21456799 0.9193619 
-0.04856254 0.43364868 0.89977247 
0.23556408 -0.6026296 0.76246125 
0.13915782 0.63178986 0.7625463 
0.08959239 0.1341636 0.98690087 
0.131923 -0.6264347 0.7682291 
-0.61486274 0.1606844 0.772091 
0.009641469 0.80110604 0.5984447 
0.32238704 0.8464378 0.423804 
-0.5121422 0.80462873 0.30047154 
0.16320606 0.85161155 0.49811813 
-0.18436845 0.80725724 0.5606639 
0.0069350847 0.39301866 0.91950434 
-0.7391006 0.23975152 0.6294836 
0.2811064 0.85522026 0.4354051 
-0.3571934 0.44029516 0.8237433 
-0.22318484 0.2732282 0.9357002 
0.26611322 0.65402603 0.7081199 
0.60017365 0.27619854 0.7506704 
-0.32161257 0.047126725 0.94569796 
0.58998257 -0.23941073 0.77110523 
-0.06757429 -0.16105808 0.984629 
0.27912635 -0.18905887 0.9414592 
-0.20998251 -0.3939784 0.894812 
-0.58929837 -0.08298535 0.80364233 
0.39158034 0.10307846 0.91435206 
0.25832045 0.6485583 0.7159908 
-0.18526833 0.659502 0.72851413 
-0.28144926 0.32205024 0.90391934 
-0.59047157 -0.08427465 0.8026464 
0.34138712 0.59050083 0.73127544 
0.12640879 0.13868962 0.98223525 
-0.50773996 0.65182954 0.56331027 
-0.1469942 -0.5235852 0.8391968 
-0.06830068 -0.32133776 0.9444984 
0.048775915 -0.03351948 0.99824715 
0.26546204 0.5726145 0.77565634 
0.61466587 0.12949947 0.77808464 
0.38490415 0.2748242 0.8810906 
-0.015859814 -0.06296176 0.99789 
-0.16458504 -0.66409665 0.7293061 
0.4936321 -0.37122688 0.7864592 
-0.03155323 -0.18180667 0.98282796 
0.021562736 -0.16746889 0.98564154 
-0.3062717 0.32359165 0.8952576 
0.019154424 0.77817017 0.62776154 
-0.7088209 0.39609694 0.5836782 
-0.28468743 0.58505464 0.7593842 
-0.11639193 0.2377655 0.9643239 
0.04259488 0.31922558 0.946721 
-0.59420913 -0.06968425 0.8012862 
-0.45863122 0.44430384 0.7695788 
-0.5036908 0.66287357 0.55398035 
0.08657189 0.56043166 0.82366353 
0.14327887 0.2709402 0.9518732 
0.33643782 -0.411672 0.84695685 
-0.7422242 0.045847274 0.6685815 
-0.91207325 0.1647866 0.37545702 
-0.33519363 0.89273375 0.30111742 
-0.7934841 0.5728492 0.20549154 
-0.78961796 0.59595305 -0.14609407 
-0.90910006 0.40140098 0.11142055 
-0.4847434 0.8316861 -0.27078062 
-0.26450098 0.78445166 -0.5609589 
-0.099347346 0.99438006 0.0365853 
0.21430135 0.84864986 0.48359933 
0.370515 0.7694436 0.5202646 
0.34656107 0.471518 0.8109046 
0.12115695 0.4521686 0.88366544 
-0.3594277 0.07754103 0.92994577 
-0.508465 0.09605019 0.8557089 
-0.44994393 0.16911784 0.87689775 
0.1782386 0.44888946 0.8756308 
-0.23986664 0.542483 0.8050939 
0.4682454 0.014897679 0.8834729 
0.3593902 0.6493681 0.67019385 
0.4476058 0.5535064 0.70233876 
-0.16354233 0.12372564 0.9787472 
-0.7578149 0.02279489 0.6520713 
-0.68556494 0.44932008 0.5728109 
-0.6438201 0.7332743 0.21864243 
-0.26160797 0.7553327 0.6008609 
-0.026121577 0.8266001 -0.5621832 
-0.3094115 0.86702436 -0.390555 
0.18235093 0.9804015 -0.07457291 
0.17370301 0.9503344 -0.25824738 
0.33161348 0.63294697 0.6995789 
0.47269294 0.8130539 0.33985993 
0.5485345 0.81621957 -0.18137132 
0.4333163 0.6062435 0.6668628 
0.7974678 0.44829005 0.40383303 
0.3760393 0.6110588 0.6965642 
-0.07057038 0.22105192 0.9727055 
-0.42199516 0.2695425 0.86560214 
-0.22478296 0.5822788 0.7812965 
-0.39892375 0.10997392 0.91036576 
-0.18285725 0.908846 0.37491614 
0.3164632 0.8482939 0.42455703 
-0.7542168 0.5939932 0.27987343 
-0.044897724 0.3913618 0.919141 
-0.12302936 0.26489156 0.9563976 
-0.2026403 -0.09127547 0.9749902 
-0.38243803 -0.25690427 0.88754797 
-0.7972839 0.05061847 0.60147846 
-0.31575537 0.46706307 0.82592416 
-0.27143148 0.8984043 0.34524602 
-0.13328153 0.44393057 0.8860935 
-0.79561013 0.5061588 0.33287802 
-0.5393928 0.78073597 0.31544703 
-0.080032624 0.15182382 0.98516214 
-0.5830016 0.23616871 0.777389 
-0.57345676 0.09584787 0.81360966 
-0.46993867 0.48380947 0.7382995 
-0.47070605 0.071467526 0.8793909 
-0.16565035 0.35723603 0.91920745 
0.44696426 -0.18143533 0.875959 
0.29459956 0.18221231 0.9380884 
-0.43202674 0.5720468 0.6972198 
0.5559846 -0.12640385 0.8215249 
0.062941365 -0.41196096 0.9090251 
-0.3017479 -0.5569641 0.77378243 
-0.75794774 0.051693175 0.65026385 
-0.5852155 0.8067105 0.08210316 
-0.04166871 0.9306191 -0.36360937 
0.6787359 0.6541738 0.33372778 
0.23753247 0.85106164 0.46826544 
0.5989552 -0.41658863 0.68389076 
-0.025051106 0.38210556 0.9237792 
-0.82696706 -0.04627182 0.5603431 
-0.54852414 0.45702103 0.70018077 
0.16990036 0.8139693 0.5555068 
0.04554746 0.13837746 0.98933166 
-0.24172965 0.7307541 0.6384084 
-0.49246475 0.81817687 0.29675767 
-0.7540967 0.21835656 0.61940193 
0.1083854 0.45417127 0.884297 
-0.49474052 0.055066857 0.8672944 
-0.67380154 0.24025884 0.6987612 
0.35457677 0.78280467 0.5113632 
0.6063796 0.79105604 0.08083382 
0.10983563 0.5098017 0.85325164 
-0.34369925 0.28786793 0.8938697 
0.35651636 -0.035470903 0.93361557 
0.0054457495 0.124781035 0.9921694 
-0.20263472 0.57185674 0.7949335 
-0.080805466 0.40979695 0.9085907 
-0.6547879 0.57309353 0.49276423 
0.301467 0.7104917 0.6358611 
0.4338973 0.7030071 0.56348395 
0.5498372 0.6363288 0.54107744 
0.17954458 0.5467424 0.8178243 
0.06378622 -0.36352593 0.9293978 
-0.20406096 -0.01273796 0.9788754 
-0.20610765 0.6001028 0.7729141 
0.046822935 -0.086784035 0.99512625 
0.031174837 0.45002818 0.8924701 
0.32893953 0.41696918 0.8473108 
0.48606333 0.33558893 0.80692166 
0.120202914 0.30408576 0.94503075 
-0.11466457 0.6452967 0.7552775 
0.2269178 0.1634252 0.9601045 
-0.549058 0.1173273 0.8275081 
0.4719657 -0.3505474 0.8089283 
0.31903222 0.24470823 0.9156071 
-0.38780215 0.6013735 0.698541 
0.110020906 0.7207461 0.68441254 
0.0066046715 0.6004002 0.7996725 
0.18176049 0.51109296 0.8400876 
-0.28996497 0.4208928 0.8595171 
-0.42360055 0.30951062 0.8513317 
0.00066281366 -0.23128751 0.9728852 
-0.1630276 0.5648479 0.8089307 
0.034736186 0.5369821 0.8428782 
0.004016184 0.58314306 0.8123597 
0.740084 0.26183203 0.61945117 
0.4379101 0.3330642 0.83504677 
0.4407138 0.35106027 0.82615256 
0.36838877 0.054645948 0.92806447 
0.18517588 -0.5473551 0.8161571 
0.057143338 -0.3857221 0.9208438 
0.4072595 -0.25796992 0.87612283 
0.5218995 0.1210931 0.8443681 
-0.08346001 0.61410666 0.7847977 
0.3694295 0.673655 0.64008665 
0.19439691 -0.23435624 0.95251614 
-0.029868321 -0.30025026 0.9533928 
-0.71150696 0.45018363 0.5395299 
-0.485476 0.72040594 0.4953063 
-0.51104635 0.7862186 0.34740788 
-0.15927646 0.16768049 0.97288966 
0.029698797 0.35685867 0.9336862 
-0.3648156 0.50239956 0.7839032 
-0.94841254 0.036461733 0.3149353 
-0.63909775 0.58168393 -0.50318784 
-0.17646852 0.71841127 0.6728627 
-0.34626457 0.5237259 0.7783393 
-0.37225896 0.7139875 0.5929968 
-0.4415648 0.7025421 0.5580817 
-0.1277816 0.6817059 0.7203812 
-0.09268149 0.93587583 0.33992168 
-0.06905879 0.45600456 0.88729405 
0.29138103 -0.30885264 0.9053769 
0.11256664 -0.58212775 0.8052678 
-0.43702716 -0.09095751 0.89483744 
-0.49837923 -0.37810686 0.78016233 
0.2508757 -0.098877355 0.96295625 
-0.38898548 -0.19384912 0.900618 
0.08611972 -0.9402947 0.32928613 
0.6332356 -0.66326904 0.39885715 
-0.022239827 -0.5476053 0.8364413 
0.01889389 -0.17814347 0.9838232 
-0.18693005 -0.40311313 0.8958554 
-0.5975783 -0.1903963 0.77887714 
0.25250658 -0.34439078 0.9042319 
-0.35350394 -0.0151728755 0.93531007 
-0.48210278 -0.17339613 0.85878444 