# OOMMF: rectangular mesh v1.0
# Segment count: 1
# Begin: Segment
# Begin: Header
# Desc: Time (s) :  9.400000000000001e-08
# Title: m
# meshtype: rectangular
# meshunit: m
# xbase: 2e-09
# ybase: 2e-09
# zbase: 5e-10
# xstepsize: 4e-09
# ystepsize: 4e-09
# zstepsize: 1e-09
# xmin: 0
# ymin: 0
# zmin: 0
# xmax: 1.024e-06
# ymax: 1.024e-06
# zmax: 1e-09
# xnodes: 256
# ynodes: 256
# znodes: 1
# ValueRangeMinMag: 1e-08
# ValueRangeMaxMag: 1
# valueunit: 
# valuemultiplier: 1
# End: Header
# Begin: Data Text
0.64634424 -0.099847324 0.75648516 
0.36085007 0.73093516 0.5792418 
-0.092883684 0.98315835 0.15739205 
-0.56856626 0.6625627 0.48758906 
0.68681175 0.48101392 0.54489934 
0.105285965 0.12027449 0.98714185 
0.07529186 0.23575294 0.9688921 
-0.22634432 -0.5101106 0.82979244 
0.25603592 -0.6634303 0.7030689 
0.6461889 0.26372004 0.7161646 
0.09457575 0.46771172 0.87880677 
0.21682552 0.22554529 0.949798 
0.0006345923 0.3529121 0.9356563 
0.07233802 0.80029327 0.5952294 
0.51915604 0.56780595 0.6388063 
0.60533804 0.20332304 0.769562 
-0.03504859 0.35327592 0.9348624 
-0.7545834 0.58870584 0.2898782 
-0.5772299 0.6137522 0.53862226 
-0.09259594 0.28177813 0.9550012 
0.056476925 0.496724 0.8660691 
-0.45104128 0.82641125 -0.33705547 
-0.40468723 0.8019727 -0.43939513 
0.6062545 0.5740629 -0.5503703 
0.977275 -0.06727711 0.20101602 
0.8446968 0.03178015 0.53430074 
-0.28302497 0.47494513 0.8332611 
-0.8452138 -0.06592227 0.53034705 
-0.4907482 -0.36091202 0.7930376 
-0.29665813 0.7734494 0.56015193 
-0.30758643 0.93032503 -0.19971456 
0.052736945 0.99358714 0.10001717 
0.08704708 0.1560693 0.98390305 
0.3039225 0.19739608 0.9320226 
0.18643112 0.4200044 0.8881665 
0.41781077 0.34467274 0.8406158 
0.6822334 0.11071255 0.7227035 
0.9109379 0.29035133 0.29306728 
0.02479886 0.9065266 -0.42141965 
0.5844085 0.77537566 -0.23928902 
0.24775419 0.9201569 -0.30319825 
0.49428335 0.8689365 0.025168149 
0.22218266 0.8902089 0.3976971 
0.1890036 0.85460025 -0.4836693 
0.19570406 0.6833951 0.7033286 
0.17748149 0.7887419 0.5885462 
-0.13691916 0.82997656 0.54073304 
-0.9151424 0.39727926 0.06843707 
0.12860301 -0.0011320848 0.9916955 
-0.027709346 0.3807409 0.9242665 
-0.67437285 0.5719355 0.46702373 
-0.105109505 0.80391693 0.58537984 
-0.19082831 0.739976 0.6449963 
-0.121304885 0.63521105 0.76275307 
0.13947591 0.68002754 0.71979797 
0.637966 -0.032018807 0.76939857 
0.43208805 0.2667744 0.8614705 
0.027611298 0.06544366 0.99747425 
0.6641353 0.6966519 0.27129412 
-0.20557502 0.81918883 0.5354145 
0.09289482 0.3939281 0.914435 
0.67606133 0.54620147 0.49457568 
0.14002597 0.8844627 0.44510522 
0.70273536 0.6314622 -0.3277478 
-0.22191818 0.97206295 0.076460056 
-0.028516132 0.6314455 0.7748958 
0.008948577 0.825444 0.5644133 
0.56332356 0.7853706 0.25663126 
0.41341484 0.38130036 0.8268605 
0.25011936 0.2233899 0.942092 
0.23077942 0.48000142 0.84636855 
0.48324805 0.8721461 0.07637206 
0.5629046 0.7301111 -0.3873967 
0.39336303 0.8134724 0.4284019 
0.27847815 0.9478459 0.15504263 
0.4535867 0.7231582 0.52086616 
0.84847224 0.41968173 -0.32243156 
-0.24399222 0.9458285 -0.21418738 
0.34566772 0.92711914 0.14478993 
-0.022786435 -0.9194305 0.392592 
0.23092511 -0.24215454 0.94235605 
-0.31572297 0.22269264 0.9223487 
-0.6676223 0.3595241 0.65193784 
0.04672132 0.6359275 0.7703333 
0.50879306 0.11429665 0.8532678 
0.1794291 -0.29612514 0.9381445 
0.38512588 -0.022395352 0.9225923 
0.7056118 0.25650173 0.66054446 
0.6078763 0.6740964 0.4196195 
0.27722263 0.7870708 0.55106014 
0.62753963 0.48985693 0.60517293 
-0.18841173 0.38593897 0.90307933 
0.40309852 0.69752 0.5924336 
-0.2339168 0.1273378 0.96388173 
0.09016026 0.20849068 0.9738598 
-0.5636701 0.4756096 0.6753308 
-0.041695155 0.93420625 0.35428855 
-0.24722932 0.6007644 0.76023674 
-0.52986103 0.66661376 0.5242838 
-0.15773562 0.6506775 0.7427909 
-0.054983336 0.5223278 0.8509704 
0.40097478 0.63902724 0.6564019 
0.2324917 0.4067611 0.88345516 
0.04775908 0.25489324 0.96578914 
-0.6746736 0.6496197 0.3504423 
-0.35618123 0.83174294 0.42583898 
-0.6677159 0.586548 0.45838514 
-0.58718693 0.29768753 0.7527243 
-0.2638962 0.54244167 0.7975687 
0.56145614 0.56191254 0.6074713 
0.4233869 0.674467 0.6048453 
-0.73415554 0.24866706 0.63180727 
-0.16956127 0.81099457 -0.5599435 
0.83900064 0.54365546 0.02273459 
0.45225447 0.736569 0.5029236 
-0.32664022 0.8473588 0.4186757 
-0.5272633 0.7095892 0.46741495 
-0.22010824 0.8739386 0.43334022 
0.097488664 0.34453273 0.93369865 
-0.12071064 -0.22617939 0.96657735 
-0.10540112 -0.11856444 0.9873364 
-0.7750026 0.026802268 0.63138944 
-0.48599586 0.032954402 0.87333965 
-0.6612942 0.47765294 0.5783924 
-0.15813416 0.3697549 0.91557354 
-0.6191998 0.766502 0.17048892 
0.5700814 0.63009316 0.52724737 
0.07212992 0.15221903 -0.9857113 
0.13551794 0.98654294 0.09147604 
-0.015966317 0.63063085 0.7759188 
0.19604371 0.6306226 0.75092083 
-0.7614053 0.5241838 0.38143578 
-0.34163582 0.68440115 0.6441118 
-0.50245905 0.72339946 0.47352746 
-0.69023156 0.7028934 0.1718176 
-0.39846763 0.17386475 -0.9005524 
0.20068003 0.7745052 -0.5998911 
0.30889553 0.8716109 -0.38062847 
-0.5931159 0.80331165 -0.053888362 
-0.72008383 0.6725836 0.17061846 
-0.508729 0.7049755 0.49417043 
0.20059279 0.97625744 -0.08175631 
0.20586097 0.40023938 -0.8929893 
0.41188994 0.8086587 -0.42002118 
0.8532024 -0.06433905 0.51759654 
0.89221346 0.0799603 0.444479 
0.38163364 -0.017944813 0.9241395 
0.18749812 0.4264657 0.88485676 
0.3173277 0.49853712 0.8066994 
0.29055867 -0.06729837 0.9544877 
-0.03209523 0.3861729 0.92186797 
0.30278456 0.023959829 0.9527578 
-0.35733283 0.41877064 0.834832 
-0.36188465 0.72899085 0.5810438 
0.5895895 0.8074757 -0.019165795 
0.5478534 0.82022774 0.16456942 
0.35624057 0.9282531 0.10695267 
0.29748413 0.92493784 0.23662896 
0.31089142 0.93369126 -0.17767188 
-0.691611 0.71742356 -0.08353299 
-0.6528779 0.7510654 -0.098240435 
0.11215833 0.049519703 0.9924557 
0.06542816 0.3941637 0.91670835 
-0.16678315 0.93464917 0.3140293 
-0.27729005 0.82098746 0.49908915 
-0.59207016 0.18580016 0.78417563 
-0.8468795 0.37780485 0.37424427 
-0.33698806 0.92766726 -0.16084923 
0.2425505 0.9699377 -0.019753914 
0.17693013 0.632702 0.7539125 
-0.4034906 0.7979137 0.44780466 
-0.31417942 0.7931486 0.5217342 
-0.5249317 0.48930487 0.6964392 
0.17291914 0.74687976 0.6420823 
0.74321496 0.2995167 0.59826523 
0.32712454 0.5200519 0.7890093 
0.6622715 0.2692782 0.69920367 
0.32739106 0.4642653 0.822966 
-0.06372996 -0.277769 0.95853174 
-0.11538086 0.7459835 0.65589327 
0.08439641 0.9523144 -0.2932146 
-0.787023 0.00014789062 -0.6169237 
-0.94290036 -0.105098374 0.31605902 
-0.786133 0.52102894 -0.33245134 
-0.06924785 0.7469237 -0.66129404 
0.6913985 0.43528673 -0.57662266 
0.82888544 0.33492938 -0.44807512 
0.7115604 0.6632614 0.23187515 
0.5199553 0.2640432 0.8123594 
0.81437445 0.5200229 0.25762498 
0.59099305 0.36117068 0.7213065 
-0.36455318 0.8709996 -0.32933405 
-0.39894834 0.5450497 0.73740155 
-0.49538186 0.48919693 0.7178323 
-0.54480743 0.38986596 0.7424214 
-0.60536325 0.7912205 0.08663407 
0.42764592 0.5043196 0.75018704 
0.64594793 0.6497524 0.40071586 
0.60237193 0.42198563 0.6775517 
0.82787454 0.5166799 -0.21832472 
0.6666343 0.46028805 0.58628803 
-0.14593564 0.50460345 0.8509279 
-0.55876225 0.77489936 0.29549247 
0.32318798 0.9461808 0.01707408 
0.09410157 0.9886611 0.11702178 
0.09599042 0.8688328 0.4857113 
-0.5488617 0.7077825 0.44474146 
-0.20199339 0.6222058 0.7563457 
-0.2109384 0.23241225 0.9494681 
-0.0617585 0.785785 0.6154088 
-0.21908356 0.6269045 0.7476585 
0.06538893 0.98117834 0.18169567 
0.027456392 0.32601434 0.944966 
-0.2145725 0.4626392 0.86018807 
0.26077002 0.6148419 0.7442906 
-0.034447897 0.58722967 0.8086871 
0.2694801 -0.28976113 0.9183784 
0.35548005 0.19466214 0.91418844 
0.740318 0.06742991 0.6688666 
0.26092336 0.63162965 0.7300432 
-0.041679107 0.9894843 0.13850483 
-0.62712836 0.07093114 0.7756796 
0.47618702 0.85625815 0.20017 
-0.25597194 0.96395123 -0.07263912 
0.022370312 0.9812709 0.1913295 
0.4103584 0.91148484 0.028310776 
0.37471384 0.90893286 -0.18284036 
0.34654826 0.06590482 -0.93571407 
-0.004499146 0.09907467 -0.99506986 
0.8624342 0.5053777 -0.02829539 
0.38808167 0.7490079 -0.5370101 
0.95929766 0.0851531 0.26925254 
0.76701176 0.463427 0.44376633 
0.65223825 -0.070243165 0.75475246 
-0.07395965 0.866974 0.49283466 
-0.08553408 0.49628714 0.8639347 
-0.23296542 -0.04180075 0.9715862 
0.6818582 0.26894248 0.6802496 
0.8042465 0.53940886 0.24945112 
0.7489737 0.18411659 0.6365057 
-0.08629886 0.24177708 0.9664867 
-0.54123217 -0.023702933 0.8405391 
-0.49027544 0.17554465 0.85370606 
0.09522293 0.6035713 0.7916024 
0.43664974 0.18976739 0.8793893 
0.49404117 -0.1322089 0.85932773 
0.17056768 0.19403291 0.96605283 
0.15765384 -0.008996748 0.98745346 
-0.3511272 0.40692458 0.84328055 
-0.30181158 0.37524876 0.8764121 
-0.14430596 0.16723731 0.97529864 
0.90691906 -0.06721599 0.41590855 
0.35034776 0.33938387 0.87296915 
-0.6842968 -0.108605854 0.7210705 
-0.7052321 -0.18565626 0.6842364 
-0.94418377 -0.24830468 0.2164759 
0.018394222 -0.3275044 0.9446707 
0.5845565 0.5762472 0.571168 
-0.40199715 0.5599338 0.72448087 
0.8253321 0.5308909 -0.19230679 
0.5313373 0.03300699 0.84651715 
0.22466764 -0.097336784 0.96956176 
-0.3684378 0.1411845 0.9188692 
-0.50643474 -0.12442297 0.8532542 
0.54629225 0.05669448 0.8356738 
0.8311362 0.29949477 0.46852478 
-0.4272677 0.25118804 0.86853147 
-0.099166416 -0.5294421 0.8425303 
-0.18387803 0.05689419 0.9813011 
-0.30065978 0.46780708 0.8311199 
0.74422026 0.42239177 0.51741797 
-0.2666963 -0.04847121 0.9625611 
-0.59243846 0.0767565 0.80195093 
-0.0421372 0.6405109 0.7667923 
-0.9921378 0.095431596 0.08096577 
-0.45520362 0.5910901 0.6658846 
-0.17217247 0.60046035 0.7808995 
0.038035944 0.73149055 0.68078995 
0.5391631 0.76590943 0.35026562 
0.32371876 0.82245547 0.467732 
0.98719776 0.09736594 -0.12633462 
0.29588136 0.8569844 0.4219384 
-0.66198105 0.6847953 0.30469084 
-0.9985696 -0.045319147 -0.028369743 
-0.62332594 -0.18800455 0.75902516 
-0.10175659 0.2358845 0.9664389 
0.14382929 0.7314135 0.66659397 
0.023082368 0.08796691 0.995856 
-0.25717995 0.3561484 0.8983411 
0.16038318 0.58624816 0.79409724 
0.5385606 0.60264885 0.5888691 
0.5874164 -0.56829983 0.57617474 
0.4867936 -0.09421492 0.8684213 
0.32196546 0.5243196 0.7883066 
0.68018436 0.7194104 0.14070533 
0.37785015 0.5583995 0.73852515 
-0.20936729 0.7951356 0.5691438 
-0.23134923 0.64292043 0.73015815 
-0.5398932 0.73626244 0.40796193 
0.32223833 0.711701 0.6242149 
-0.10845887 -0.41372812 0.9039169 
-0.72028136 0.52301705 0.45568413 
-0.42403302 0.8436829 0.32923424 
-0.18854469 0.56537485 0.8029958 
-0.67080635 -0.20630698 0.7123597 
0.018070813 -0.21968302 0.9754039 
-0.23528126 -0.094565324 0.96731603 
0.19973822 -0.23122138 0.95217717 
0.46851835 0.4476061 0.7616689 
-0.17239968 -0.006954875 0.9850025 
-0.28045928 0.6622455 0.6948191 
0.10429296 -0.46500117 0.87914556 
0.45421273 -0.150149 0.8781493 
0.51371896 -0.026969695 0.8575345 
0.78764844 -0.08831981 0.6097619 
0.6762501 0.618185 0.40066588 
0.43685243 0.7957122 0.41952622 
0.08890172 0.85264605 0.5148702 
-0.32264495 0.34697598 0.88062936 
-0.522057 0.8087245 -0.2709635 
0.7685969 0.61513805 -0.17568193 
-0.5941977 0.7326554 -0.33188143 
0.12837042 0.92862624 0.3481013 
0.2008585 0.651011 0.7320113 
0.57716763 0.1762477 0.79737973 
0.26828778 0.18182307 0.9460244 
-0.029867643 -0.19146518 0.9810449 
-0.31258285 0.3816968 0.86982733 
0.13264029 0.6153018 0.7770524 
-0.60580397 0.71519923 0.34855646 
-0.47954223 0.80839944 0.3413642 
-0.2489397 0.9133758 0.32213917 
0.5725296 0.58942187 0.5699051 
-0.20740531 0.9307946 0.3010057 
0.55313945 0.70820785 0.43872368 
0.3757335 0.23923285 0.8953167 
-0.07354303 0.82472515 0.56073153 
0.576245 0.40501168 0.7098643 
0.02324176 0.5586959 0.82904685 
-0.2450066 0.56212026 0.789932 
0.11518398 -0.10530146 0.9877471 
0.47828287 0.5107371 0.71441805 
0.6182104 0.21625306 0.7556789 
0.21555352 -0.15904695 0.9634526 
-0.6940841 0.026579762 0.71940315 
0.5824142 0.22217476 0.78194124 
0.4047051 -0.1736565 0.897807 
0.27063578 0.26982957 0.92409325 
0.031170944 0.5570353 0.8299036 
-0.3356255 0.36937448 0.8665553 
-0.2571567 0.64472705 0.71985936 
-0.7181177 0.4534077 0.5279475 
-0.012766827 0.08676928 0.9961466 
-0.5009262 0.58022255 0.64219534 
-0.5365612 0.7008011 0.47008505 
-0.73195463 -0.02964979 0.68070805 
-0.34605855 0.25454882 0.9030219 
-0.076907195 0.5572519 0.8267743 
-0.7293525 0.012964606 0.6840154 
-0.48345208 0.397589 0.7798699 
-0.22084105 0.79812324 0.56056106 
-0.73275197 0.65826863 -0.17250212 
-0.56098557 0.32288182 0.76226145 
-0.20913419 0.30871135 0.9278794 
-0.04498385 0.021713229 0.9987518 
-0.16762486 0.52217495 0.83620286 
-0.15776859 0.8932236 0.4210237 
-0.39560694 0.44263884 0.804715 
-0.5248625 0.72979033 0.43809307 
0.61955494 0.62287396 0.47768173 
0.5335918 0.2301596 0.8138221 
0.47989792 -0.31034523 0.8205997 
-0.013138516 0.05414802 0.9984465 
-0.49277017 -0.15715344 0.85585076 
-0.41596776 -0.07874366 0.9059638 
0.36646116 0.4015246 0.8393357 
0.17236768 0.47569835 0.86255467 
-0.0095142275 0.99814653 -0.06010852 
-0.33826882 0.78611684 0.5172954 
-0.5770765 0.8061336 0.130887 
-0.44797263 0.57006145 0.6887312 
-0.55852926 0.76668364 0.31660905 
-0.22362459 0.9094681 0.35051367 
-0.21609801 0.9607403 -0.17401096 
0.3515252 0.9322067 0.08614405 
-0.09859653 0.95533943 0.27857748 
0.31800726 0.8839792 0.34271315 
0.00095634203 0.9880903 0.15387261 
-0.057371162 -0.04823372 0.9971871 
-0.51060164 0.6071078 0.60885644 
-0.5201442 0.77341866 -0.36231694 
-0.49662495 0.7806379 0.3794314 
-0.22716495 0.95727944 0.17891976 
-0.4812284 0.68732196 -0.54406595 
-0.10379093 0.8743201 0.4741221 
0.025039708 0.9750837 0.2204195 
-0.25949228 0.86163574 0.4361741 
0.61093736 0.77491033 -0.16207914 
0.53878057 0.8086748 0.23613717 
0.36615956 0.9041295 0.2201748 
0.6431489 0.5557311 0.52680403 
0.15375403 0.7355202 0.6598257 
0.16189575 0.30937374 0.937058 
0.18288656 0.7065501 0.68362236 
-0.037140626 0.7101174 0.703103 
-0.009025055 0.49448875 0.8691373 
-0.0154768415 0.63495016 0.7723982 
-0.61574554 0.23038228 0.7535127 
-0.39812508 0.8830294 0.24850701 
-0.3290839 0.7841657 0.52610636 
0.37791485 0.9130924 -0.15310967 
0.7056537 0.5340484 0.4656665 
0.2543622 0.644567 0.72099465 
0.6738587 0.2641155 0.69004166 
0.003729184 0.64068115 0.76779807 
-0.19137876 0.09463218 0.97694373 
-0.5380093 0.22507906 0.8123334 
-0.14904666 0.084804565 0.98518693 
0.22046588 0.55858815 0.79960865 
-0.30522615 0.6304021 0.7137438 
-0.8965879 0.42881367 -0.11067564 
-0.61704195 0.7279521 0.2989063 
-0.5435262 0.6871839 0.48203483 
0.09562581 0.8978693 0.42975155 
0.45469427 0.56041896 0.692231 
0.59901005 0.67550397 0.4299785 
-0.17770441 0.38232243 0.90678036 
0.4665364 0.12590794 0.8754948 
-0.5663491 -0.29870114 0.76813173 
-0.44882238 -0.7398415 0.50119156 
0.151409 -0.14651166 0.9775529 
0.18590535 0.2004733 0.961899 
0.47977903 0.22044116 0.8492455 
0.38773507 -0.12394495 0.9133999 
-0.3226074 -0.18131799 0.92900395 
-0.46912354 0.30763268 0.8278197 
-0.7122321 0.68390936 -0.1580934 
-0.87531334 0.4707202 -0.11067577 
-0.8414497 0.486995 -0.23409039 
-0.3536803 0.9255194 0.13536674 
-0.23421666 0.9466152 -0.22149985 
-0.1419972 0.7761902 -0.61430097 
0.40704334 0.22386129 -0.8855517 
0.8652603 0.46391517 0.19001922 
0.473331 0.559486 0.680392 
0.39477447 0.8484721 0.3524887 
0.52189666 0.7211344 0.4556195 
0.27910745 0.8715711 0.40306678 
-0.5331755 0.3064512 0.7885503 
0.13327326 0.402775 0.90554434 
-0.52266234 -0.36941832 0.7683451 
-0.50194 0.30204505 0.81044745 
-0.6873631 0.19298956 0.70020497 
0.45598942 0.8111632 0.36618042 
0.6983418 0.49477506 0.51721996 
0.9667251 0.24751285 -0.064653926 
0.8765412 0.09854135 0.47113174 
0.52441955 0.5794635 0.62386405 
-0.28844973 0.726925 0.6231988 
-0.15097168 0.96890455 -0.19603983 
-0.35397196 0.9049295 0.23623396 
-0.16395311 0.76331764 0.62487257 
-0.11463369 0.80839187 0.577375 
0.08539382 0.06629311 0.9941394 
-0.12571892 0.08405328 0.9884988 
-0.5105888 0.44953305 0.7329524 
0.3712912 0.22380212 0.90114117 
0.14985819 0.70728815 0.6908589 
0.17913911 0.61788803 0.76558715 
0.36900082 -0.6020346 0.7080909 
0.64124817 0.2985611 0.7068678 
0.5357833 -0.28705308 0.7940635 
0.6041603 0.07897839 0.7929393 
0.26433295 -0.32512102 0.9079782 
0.6472785 0.5136193 0.56322813 
-0.019193852 0.8217261 0.5695594 
-0.5273082 -0.042110782 0.84862995 
-0.46140543 0.3015151 0.8343822 
0.42723262 0.73264974 0.5298082 
-0.017308824 0.5724318 0.8197696 
0.5544911 0.39252394 0.73380154 
0.040890794 0.9213414 0.3865982 
0.4659643 0.88477916 0.006568553 
0.7747339 0.38523442 -0.50138015 
0.9146375 0.3379107 0.22193412 
0.6978589 0.6915701 -0.18634328 
0.60888577 0.7644237 0.211931 
0.24769323 0.74246186 0.6224135 
0.4573939 0.8168661 0.3514551 
0.71765465 0.13278344 0.683623 
0.26908606 0.18684854 0.94481766 
-0.043808714 0.1402815 0.989142 
-0.7873862 0.10436778 0.6075611 
-0.49965152 0.5995758 0.6251857 
-0.4675533 0.6184061 0.631639 
-0.116757676 0.6590295 0.7429992 
-0.1980504 0.669706 0.71573037 
0.37128347 -0.56209743 0.73905015 
-0.06910668 -0.006032106 0.9975911 
0.2517445 0.20611137 0.9455912 
0.36243954 0.016580917 0.9318598 
0.35807973 -0.41143653 0.83815217 
-0.37965184 0.53563976 0.7542908 
-0.01369793 0.06564839 0.99774885 
-0.66566914 0.59715873 0.44753337 
0.27642983 0.3889 0.8788306 
-0.5862252 -0.0036469663 0.81013995 
0.06759059 0.46617994 0.8821042 
0.09609486 0.25199777 0.962945 
0.2574308 -0.42779732 0.8664404 
-0.69783515 -0.30626848 0.6474765 
-0.9088744 0.04768429 0.4143352 
0.47848272 0.006404202 0.87807363 
0.40403673 0.21685444 0.8886667 
-0.15653354 0.9871857 0.031011794 
0.7864234 0.53201777 0.31383982 
0.40192732 0.18231963 0.89733726 
-0.17707922 0.14805764 0.9729964 
0.33054885 0.5419799 0.7726548 
0.041520014 -0.2580774 0.9652317 
0.22325629 0.7478018 0.6252593 
0.19586134 0.55298287 0.80984473 
0.79502475 0.2864328 0.5346887 
-0.49425125 0.1170966 0.8613966 
-0.4557014 0.4509488 0.7674512 
-0.03123754 0.8294444 0.5577151 
0.27907386 0.7265154 0.62792766 
-0.12614992 0.7418648 0.6585764 
-0.7612046 0.32979897 0.5583908 
0.06499039 -0.19860135 0.9779233 
-0.1931109 0.8138443 0.5480562 
-0.4264686 0.8750607 0.22889617 
-0.4071847 0.6572179 0.63424385 
0.20842059 0.66932386 0.7131384 
0.48555207 0.8480985 -0.21205722 
0.7541155 0.6566558 0.010635999 
0.32830733 0.93260795 0.14985585 
0.5796277 0.70630676 0.40640205 
-0.6496042 0.46623415 0.6005332 
-0.86447847 0.09500949 0.49360943 
0.14871456 0.13158685 0.98008627 
-0.28160912 0.4649948 0.83933085 
0.27265465 0.94012475 0.20451128 
0.19499426 0.27611628 0.94113606 
0.110816576 0.75671 0.6442901 
-0.31732485 0.7267363 0.6092285 
0.53146863 0.48286363 0.6959769 
0.26804703 0.40010148 0.87639576 
-0.073346615 0.01796736 0.99714464 
-0.18917267 0.4046667 0.89468354 
0.12756336 0.92751384 0.3513483 
-0.17669693 0.85987645 0.4789475 
0.26303834 0.829531 0.49263498 
-0.28823143 0.42524287 0.85795766 
-0.43312836 0.43829548 0.7875893 
-0.3115998 0.43217608 0.84624434 
-0.42854175 0.4554924 0.7803069 
-0.3449518 0.8462555 0.4060297 
-0.65802836 0.54944694 0.51488525 
-0.31566626 -0.3247899 0.89155287 
-0.44342065 -0.278334 0.85200256 
0.6354081 -0.29996032 0.71153384 
-0.39039674 -0.14903744 0.90850335 
0.47944766 -0.7077387 0.5188796 
-0.055921495 0.4437669 0.8943958 
-0.08907128 0.03318203 0.99547243 
0.5859809 0.48307532 0.6505879 
0.00014548264 -0.35163978 0.9361355 
0.6314494 -0.6581294 0.41004556 
0.4468746 -0.3552569 0.8210334 
0.6583274 -0.09318763 0.7469412 
0.5124971 -0.27090716 0.81483495 
0.47735184 0.06442552 0.8763474 
-0.13663556 0.31686646 0.93857676 
0.20379093 0.48583055 0.84996355 
0.0821577 0.96644616 0.24337626 
0.72204614 0.6390637 0.26504135 
0.027171262 0.9972601 0.06880491 
0.41302612 0.4275614 0.80411494 
0.098122045 0.10479035 0.98964196 
-0.03141223 0.3821465 0.92356783 
-0.11065464 -0.36940202 0.922658 
-0.5744207 0.19628446 0.79467815 
-0.89224666 0.36142167 0.27068502 
-0.41751453 0.8752032 0.24433811 
-0.32529438 0.6991868 0.6366486 
0.32494104 0.9413078 -0.09139495 
0.33594862 0.8742417 0.35048556 
-0.076174684 0.5137193 0.85457003 
0.01906559 0.82841164 0.5597953 
0.16934714 0.5192603 0.8376696 
0.3450299 0.28339705 0.8947853 
-0.17351986 0.70141006 0.6913139 
0.09214328 0.31562868 0.9443983 
-0.034862123 0.34438953 0.9381793 
0.60076267 -0.28971305 0.74508435 
0.029037753 -0.11888449 0.9924835 
0.53395605 0.73954254 0.40983886 
0.450043 -0.03189996 0.8924369 
0.18626304 0.017133858 0.9823505 
-0.12503967 0.6797154 0.72273934 
-0.082991086 0.46720684 0.88024443 
-0.48441017 -0.2505641 0.8381913 
0.8292656 -0.23013006 0.5092727 
-0.09188945 0.20457639 0.974528 
-0.44116342 0.37808225 0.81389725 
0.17923978 0.27190468 0.9454846 
-0.37301683 0.4453493 0.8139549 
-0.29206675 0.19437109 0.9364385 
-0.5426239 0.56166595 0.6245724 
-0.3544678 0.15960199 0.9213468 
-0.46423346 -0.21979187 0.8580087 
0.67164207 0.21856248 0.7079036 
0.5983645 0.49936807 0.6265713 
0.4794499 -0.064131334 0.8752228 
0.25276786 0.28119904 0.9257622 
-0.16706276 0.5777155 0.79895866 
-0.392853 0.766912 0.5074572 
-0.1829155 0.8262149 0.53283286 
-0.013377912 0.42695346 0.9041747 
-0.6404179 0.5396139 0.546518 
-0.3444874 0.79811907 0.494302 
0.09080887 0.42076424 0.9026135 
-0.122217804 0.78502923 0.6072824 
0.10501271 0.709059 0.697286 
-0.27989465 0.5476357 0.788514 
0.39408305 0.6902265 0.60686564 
0.4376744 0.35905367 0.824331 
0.14937916 0.28336227 0.94730765 
-0.611648 0.37052166 0.69899964 
-0.51641834 0.46710274 0.71772367 
-0.46375063 0.80527985 0.3694048 
0.38768402 0.762376 0.5181543 
0.07089716 0.8050066 0.5890144 
-0.47097617 0.73471045 0.4882439 
-0.6515652 0.66539335 0.36430013 
-0.055770516 0.6111969 0.7895113 
0.1785107 0.6877474 0.7036601 
0.16609052 0.8731548 0.4582737 
0.26809925 0.8293629 0.49018347 
0.33398646 0.8372975 0.4328812 
-0.32994822 0.6953616 0.6384406 
-0.029791381 0.700105 0.7134182 
0.20607625 0.25755042 0.9440341 
-0.42037085 0.28267452 0.862197 
-0.8900352 -0.20336014 0.40802214 
-0.93004537 0.36173156 -0.064545214 
-0.9450136 0.30195943 0.12557799 
-0.3039939 0.4149937 0.85753596 
-0.47252682 0.8668026 0.15928519 
-0.054266833 0.74714637 0.66244054 
-0.22277367 0.7867754 0.5756356 
-0.5715982 0.46712193 0.6745908 
-0.013970631 0.7265738 0.68694645 
-0.39629176 0.8521739 0.34169066 
-0.2031581 0.5810165 0.7881287 
0.17236465 0.66669893 0.7251228 
0.38049552 0.20100741 0.9026734 
0.23846222 0.67639184 0.6968715 
-0.14747593 0.23046584 0.96184015 
0.20645897 0.3369641 0.9186022 
-0.0653481 0.1153167 0.9911769 
0.2184148 0.16040851 0.962582 
-0.34338817 0.083173044 0.93550354 
-0.75362724 0.37593588 0.5391829 
0.2888183 0.8809626 0.37481865 
0.34266207 0.5136309 0.78661686 
0.7626865 0.45240656 0.4622097 
0.11259331 0.90355605 0.4134118 
0.104574785 0.8972531 0.42895338 
0.3308814 0.1113805 0.9370763 
-0.36718938 0.5935796 0.7161252 
-0.06825476 0.6599552 0.7481982 
-0.7609146 0.31484213 0.56734765 
-0.11308082 0.5101699 0.8526074 
-0.17949821 0.63379776 0.7523834 
-0.26897272 0.9631292 -0.0059787855 
-0.5148827 -0.43044117 0.74136114 
-0.43357843 0.66941243 0.60323864 
0.0016019735 0.8660046 0.5000335 
-0.12141597 0.5062797 0.85377926 
0.07618577 0.5638019 0.82238877 
-0.06703801 0.8973209 0.43625802 
0.00792115 0.12824173 0.9917114 
-0.32233313 -0.27860445 0.9046993 
0.23297234 -0.06980251 0.969975 
-0.017568476 -0.47860914 0.8778524 
-0.1371056 -0.10063267 0.98543143 
0.42474058 0.35355717 0.8334224 
0.10054281 -0.50816965 0.8553683 
-0.5440761 -0.13962312 0.82733715 
-0.8325674 0.17859022 0.5243444 
-0.96421015 -0.19281545 -0.181992 
0.001483536 0.91481644 0.40386733 
-0.60691684 0.7800432 0.15226522 
-0.72375107 0.6899117 0.014364708 
-0.44523373 0.8630316 0.23862846 
0.32164565 0.7153148 -0.6203781 
0.23050624 0.8710779 0.43369377 
0.22353853 0.8346525 0.5033744 
-0.057255663 0.91571164 0.39773625 
0.37417656 0.32876608 0.86712444 
0.50595945 0.044086903 0.8614299 
0.2612202 0.04927286 0.96402085 
0.12840846 0.3805339 0.9158086 
0.27968454 0.037777305 0.95934844 
-0.23949543 0.47223857 0.8483117 
-0.12149661 0.7135573 0.6899816 
-0.23072009 0.5062201 0.8309691 
-0.002213896 0.017015474 0.99985284 
0.34938967 0.66443455 0.6606464 
0.95507365 0.23123701 -0.1853748 
0.7496749 0.6358773 0.18343294 
0.35759887 0.38082772 0.8526977 
0.17973086 0.56803244 0.80314136 
0.067727834 0.9339515 0.35092402 
0.46441147 0.46341556 0.7546974 
0.035389584 0.6132379 0.7891052 
-0.09062218 0.5233113 0.8473093 
0.15800267 0.6499007 0.74341404 
-0.5085586 -0.18059482 0.84187514 
-0.6634093 -0.09228546 0.74254405 
-0.7158749 0.3001542 0.63042104 
-0.2245246 0.6289637 0.74430734 
0.41736916 0.22523811 0.88038117 
-0.060364634 0.4597472 0.8859959 
-0.12848108 0.540729 0.83132714 
0.17210703 0.7380922 0.65237963 
0.37229365 0.21674037 0.90245277 
0.016063364 -0.33644006 0.9415679 
-0.25952312 0.5939658 0.7614804 
-0.83458215 0.13430215 0.53426194 
-0.62902194 -0.6114625 0.480047 
-0.6018518 0.57077533 0.55856067 
-0.54454464 0.49225932 0.6790817 
-0.5762567 0.73901296 0.3489817 
0.28535566 0.95610833 0.066552535 
-0.07464917 0.982998 0.16775697 
0.7989266 0.53721327 0.27040416 
0.85856813 0.34487945 0.37936646 
0.8652396 0.4801881 -0.14415222 
0.77926004 0.41954282 -0.46555096 
0.61598927 0.6890506 0.38179392 
0.4425298 0.67010796 -0.5959217 
0.41440016 0.7893952 0.45291054 
0.70810485 0.22743699 0.6684759 
0.14936146 0.31967434 0.93568134 
-0.29218113 -0.48824504 0.8223424 
-0.22006433 -0.13062494 0.96669996 
-0.5451935 0.4918441 0.678862 
-0.40713346 0.8120134 0.41818273 
-0.5989543 0.619043 0.5079759 
-0.3716378 0.26753718 0.88899344 
-0.8536868 -0.4771747 0.20862216 
-0.6925201 0.32601103 0.64353156 
-0.14106005 0.068772085 0.98760945 
-0.50582236 -0.46242636 0.7282209 
-0.042327937 -0.31056157 0.9496104 
0.041539457 0.057600476 0.99747515 
-0.2890198 -0.45774806 0.8407939 
-0.053079255 -0.08685702 0.99480575 
-0.06470921 -0.11297871 0.9914881 
-0.23733804 -0.17099519 0.956259 
-0.3068786 0.5401045 0.78365344 
-0.094837755 -0.16020522 0.9825173 
-0.30270246 0.043621298 0.95208645 
-0.43950078 0.48646104 0.7551124 
-0.94042 0.17430376 0.29193947 
0.6329277 0.098507576 0.7679185 
0.39344028 0.3035419 0.86779445 
0.3084042 0.8956103 0.32057604 
0.7349031 0.5070279 0.45037785 
0.010742512 0.26755908 0.96348166 
-0.24427176 0.2535893 0.9359614 
-0.08132767 0.6905895 0.7186599 
0.7884174 -0.047572464 0.6132984 
0.08089728 0.5464252 0.83359164 
0.12023304 0.54724634 0.82829076 
0.22158861 -0.06291559 0.97310853 
-0.06889192 -0.27662766 0.95850456 
-0.65415984 0.20378117 0.72838736 
-0.22378078 0.63524735 0.7391773 
-0.05327894 0.19688435 0.978978 
-0.5876176 0.4474579 0.67415655 
-0.6484156 0.4256381 0.631181 
-0.7923963 0.11585572 0.5989036 
-0.37600508 0.13818888 0.91625553 
0.1445262 0.44137648 0.8856065 
-0.3478597 0.37020826 0.86135906 
0.40649423 0.5329374 0.7421188 
0.874416 0.23816198 0.4227005 
0.4698432 0.67236096 0.5719949 
-0.16183639 0.6287646 0.7605682 
-0.33500668 0.08109669 0.9387193 
-0.038450003 -0.012678839 0.9991801 
-0.2751475 0.322492 0.90570015 
0.0035439767 -0.6386725 0.7694705 
-0.5458638 0.10694803 0.83102036 
-0.020815248 -0.00050070154 0.9997833 
-0.14868833 0.524707 0.83819705 
-0.036473826 0.96776646 0.24919416 
0.7089623 0.29170302 0.6420918 
0.7920505 0.21782275 0.5702712 
0.21751133 0.54759264 0.8079797 
0.17185362 0.6680807 0.7239714 
0.4691904 0.35915732 0.806763 
0.35053858 0.32587406 0.8780255 
0.11458615 0.2345035 0.96533835 
0.6109441 0.32943994 0.7198728 
-0.051606182 0.49712184 0.8661447 
0.3405274 0.62258935 0.7045734 
0.3486618 0.1682336 0.9220263 
0.23200977 0.2491303 0.9402689 
-0.30620632 0.32621372 0.8943279 
-0.16161002 -0.38942084 0.906771 
-0.19012575 -0.07224275 0.97909814 
-0.14560103 0.09316455 0.9849471 
0.14173317 -0.5315485 0.8350856 
0.5567157 -0.4368475 0.7065635 
0.281318 -0.3627684 0.88840276 
0.04128407 0.21573375 0.97557914 
0.2877257 -0.27411962 0.9176451 
0.39922926 0.4115333 0.8193023 
-0.12712108 -0.8260731 0.5490388 
0.4006809 -0.61566615 0.6785353 
0.5814628 0.18415125 0.79245776 
0.14646898 -0.32181948 0.9354032 
-0.29944298 -0.89137757 0.34026477 
0.47309107 -0.7235744 0.50261813 
0.2687038 -0.08353554 0.9595938 
-0.12061039 0.07887184 0.9895617 
-0.02012852 0.7173471 0.69642526 
-0.20819975 0.21459743 0.9542541 
-0.032721046 0.07272633 0.9968151 
-0.020265384 0.71508217 0.6987467 
-0.50417334 -0.24023706 0.8295152 
-0.5327504 0.06820381 0.8435196 
-0.42113382 0.57319856 0.70291525 
-0.1843263 -0.09736772 0.97803044 
-0.19386487 0.21063021 0.95814997 
0.096960366 0.7648293 0.63689476 
-0.24511534 0.1821598 0.952227 
-0.36246258 0.21691109 0.9064053 
-0.0029078266 0.578294 0.8158233 
-0.06640182 -0.10360557 0.99239945 
0.5245652 0.22566022 0.82091945 
-0.17925675 0.548305 0.8168407 
0.107667625 0.40009695 0.9101265 
-0.02240017 0.6194339 0.7847293 
0.06282364 0.59500873 0.8012601 
0.46199754 0.42906812 0.77618235 
0.56159556 0.30739895 0.7681904 
-0.09361837 -0.014980887 0.9954955 
0.04216666 -0.1543578 0.9871148 
-0.372296 -0.42483032 0.8251757 
-0.38408998 0.40616485 0.82915926 
0.16458651 0.15491773 0.97412103 
-0.3239003 0.6112166 0.7221516 
-0.419034 0.50524396 0.7544131 
0.70323884 0.30682707 0.64133644 
0.11455279 0.11818657 0.9863618 
-0.39052957 0.050215613 0.9192198 
-0.41019312 0.33227095 0.849316 
0.22527203 0.42004612 0.87909836 
-0.5148559 0.6795902 0.5225712 
-0.6231212 0.6138349 0.48469234 
-0.15318266 0.49212936 0.8569387 
-0.35590193 -0.6222348 0.69725007 
0.21946682 0.09410313 0.971071 
-0.37555423 0.5048797 0.77721006 
0.36158034 0.26155457 0.89490163 
-0.27208272 0.03469895 0.9616481 
-0.119318396 0.62411726 0.7721663 
-0.12585759 0.63842267 0.7593263 
0.28014758 0.66125375 0.6958886 
0.45628697 0.5794834 0.6752787 
-0.05817807 0.92116654 0.3847955 