# OOMMF: rectangular mesh v1.0
# Segment count: 1
# Begin: Segment
# Begin: Header
# Desc: Time (s) :  1.1800000000000001e-07
# Title: m
# meshtype: rectangular
# meshunit: m
# xbase: 2e-09
# ybase: 2e-09
# zbase: 5e-10
# xstepsize: 4e-09
# ystepsize: 4e-09
# zstepsize: 1e-09
# xmin: 0
# ymin: 0
# zmin: 0
# xmax: 1.024e-06
# ymax: 1.024e-06
# zmax: 1e-09
# xnodes: 256
# ynodes: 256
# znodes: 1
# ValueRangeMinMag: 1e-08
# ValueRangeMaxMag: 1
# valueunit: 
# valuemultiplier: 1
# End: Header
# Begin: Data Text
0.5647557 0.52036005 -0.64052826 
0.67816865 0.43216822 -0.5944056 
0.6588633 0.7256257 -0.19840993 
0.7597619 0.64746714 0.059567526 
0.9686735 -0.24782304 0.0159797 
0.686177 -0.20145391 0.6989832 
0.82040936 -0.2922966 0.49141768 
0.5601536 -0.46611652 0.6848091 
0.74879175 -0.443823 0.4922725 
0.8182158 0.2881544 0.49748358 
0.06605738 0.46899712 0.8807259 
-0.14839849 0.35812935 0.92180324 
-0.28994614 0.9343296 0.20726642 
0.5369664 0.15483484 0.82927287 
0.023655342 0.91207105 0.40934944 
0.14663321 0.9384508 0.3127443 
0.13213381 0.52682394 0.8396411 
0.17763291 0.6445137 0.74367243 
-0.44540426 0.37815136 0.8115521 
-0.52904063 -0.30201036 0.79303586 
-0.79375416 -0.06372661 0.6048911 
-0.2786098 -0.029724106 0.9599443 
-0.25833836 0.41794235 0.87096816 
-0.25045133 0.20430613 0.94632614 
0.31463024 0.7130831 0.6265145 
0.8102689 0.4812566 0.33444983 
0.4853958 0.72171766 0.4934721 
-0.065097235 0.99596184 -0.06182533 
0.43127587 0.8982744 -0.08428729 
0.48878324 0.8125984 0.31745076 
-0.39934838 0.8201614 -0.40970272 
-0.25090808 0.42570528 -0.8693792 
0.55727434 0.6252649 -0.5463416 
0.3999825 0.65107334 -0.64507174 
-0.11047371 0.9224524 -0.36996925 
0.02263891 0.974892 0.22152452 
0.030326705 0.9842601 -0.17410475 
0.51699376 0.79166883 -0.32554245 
0.47312728 0.85163677 -0.22553355 
0.10228834 0.75071144 0.6526635 
0.7550444 0.60122174 -0.26161125 
0.7424264 0.37407804 -0.5557596 
-0.025700843 0.5708069 -0.8206821 
0.12646997 0.77497023 0.6192144 
0.08508601 0.9266646 0.36613268 
0.15663028 0.69828945 0.698469 
-0.38564402 -0.29934254 0.8727387 
-0.5740391 0.28795132 0.76652676 
-0.91641647 -0.06027926 0.39566058 
-0.40664777 -0.15574631 0.9002115 
-0.14055845 0.6954914 0.70465255 
-0.4979482 0.8579869 -0.12611878 
-0.76623386 0.64167917 -0.03366677 
-0.37562796 0.7202354 -0.58323646 
0.39593965 0.79078925 -0.46678093 
0.9606487 -0.10702547 -0.2563196 
0.48859867 -0.14421783 0.86050713 
-0.1475601 0.048700683 0.9878534 
-0.2521431 0.09036461 0.9634616 
0.4420298 0.23816977 0.8648033 
0.53448087 -0.43955007 0.7218906 
0.43872142 0.34783906 0.828572 
-0.17241506 0.81329924 0.55571336 
0.23079091 0.96330184 -0.13705918 
0.61489415 0.6670774 0.42061013 
-0.25375566 0.29944652 0.91975 
-0.10322651 0.9563054 0.27354047 
0.2414623 0.77161527 0.5884775 
0.16304749 0.9828135 0.08656381 
-0.26611477 0.609221 0.7470159 
-0.047647994 0.95185935 0.30280918 
-0.75181836 0.6582391 0.03860683 
0.4472353 0.5610857 0.69653684 
0.46573967 -0.3527841 0.81156015 
0.28132334 0.95523816 0.09152678 
0.94059557 0.2758363 0.19797613 
0.7361485 0.6761024 0.031161327 
0.6898796 0.5651977 0.45234704 
0.40051398 0.71450716 0.5736447 
0.7386905 0.32333818 0.5914296 
0.05690408 0.15488848 0.9862918 
-0.023426665 0.40884492 0.91230315 
-0.55575365 0.8311744 0.016946955 
0.07328538 0.9927884 -0.09487082 
-0.09983235 0.95877063 0.26606855 
0.43424335 0.5940351 0.677167 
-0.20622459 0.5062 0.8373965 
0.25368866 -0.24005593 0.9370248 
-0.08312483 0.8629888 0.4983379 
-0.26428708 0.56498486 0.7816294 
0.29837918 0.29144934 0.9088603 
-0.17822404 0.96941084 0.16875672 
-0.2467691 0.8925369 0.37746933 
0.4194208 0.49369806 0.761806 
-0.030652018 0.7221213 0.69108707 
-0.6468851 0.70874465 0.28146192 
-0.95038146 0.054128103 -0.30634195 
0.009569258 0.86286384 -0.5053461 
-0.15918337 0.9749649 0.1552547 
0.5003212 0.85422003 0.14137506 
-0.27854723 0.6477725 0.7090855 
-0.17717168 0.91343975 0.36638504 
-0.5744515 0.75597656 -0.31385508 
-0.19507848 0.9759941 -0.09685005 
-0.006833735 0.9966277 0.081771486 
0.076090164 0.7473962 0.6600071 
-0.4906521 0.69922537 0.5199465 
-0.5015972 0.7455438 0.4388219 
0.058061026 0.7704046 0.6349062 
-0.33372107 0.78434134 0.5229138 
-0.08269722 0.9257172 -0.36906478 
-0.7512866 0.6233584 -0.21677804 
-0.41642952 0.80007803 -0.431812 
-0.7934749 0.42019433 -0.44026643 
0.74271405 0.20333824 -0.6379887 
0.8902534 -0.11778623 -0.43997192 
0.46229228 0.58337855 0.6677989 
0.3888209 0.918015 0.077889875 
0.05012927 0.5388919 0.84088206 
-0.17934611 0.53156054 0.8278155 
0.4030472 0.9061645 0.12813589 
0.6358753 0.52379346 0.56683606 
0.10861055 -0.001442694 0.9940834 
-0.15142998 0.8807907 0.44863868 
-0.22254081 0.9746727 0.02210918 
-0.7586738 0.44042447 0.48004225 
-0.092115335 0.9665086 0.23953252 
0.07794291 0.9954059 -0.055605784 
-0.01267916 0.7533952 0.6574458 
-0.039922178 0.86017644 -0.50843155 
0.50194454 0.8436025 0.19075285 
0.4341655 0.34353125 0.8327585 
0.5101256 0.8436414 0.1674552 
0.5464065 -0.113061935 0.82985353 
0.23906696 -0.16967788 0.956063 
-0.21412173 0.60664433 0.76559436 
0.23196325 0.6697185 0.70545745 
-0.04582333 -0.29792938 0.95348746 
-0.65909535 -0.5723489 0.4878628 
-0.24979939 0.41276208 0.87591547 
-0.028335663 0.7931866 0.608319 
0.07946781 0.8032523 0.5903141 
0.41909644 0.1852875 0.8888346 
-0.4113053 0.4484845 0.7935298 
-0.22182667 0.97155046 -0.082961924 
0.3595831 0.66714555 0.65239316 
0.1274886 0.7735237 -0.6208122 
0.47150284 -0.04820669 0.880546 
0.20638312 0.23964873 0.9486699 
-0.07718606 0.32579535 0.9422844 
-0.0822314 0.014690843 0.9965051 
-0.43979868 0.02438814 0.8977652 
0.17193767 -0.24861276 0.9532204 
0.82052547 0.42269284 0.38479698 
0.23931015 0.60453963 0.759778 
0.12828861 0.36863458 0.9206794 
0.025435938 0.99865484 0.045182887 
-0.63347995 0.6747911 0.37862948 
-0.42859814 0.4923246 -0.75757515 
-0.6137703 0.5650857 -0.5513296 
0.027868604 0.96959513 -0.24312294 
0.46425432 0.86072093 -0.20887178 
-0.2380826 0.8471939 -0.47495177 
0.7405003 0.6720104 -0.007837361 
0.3755357 0.5120198 0.7725341 
-0.28891635 0.7363161 0.6118546 
-0.4435982 0.88713205 -0.12734836 
0.3110978 -0.4564069 -0.8336132 
0.88999414 0.31400535 0.3306223 
0.5278474 0.4376244 0.72791624 
0.5729249 0.2496409 0.78066427 
0.9553958 0.21019126 0.20745726 
0.7199231 0.06056282 0.69140655 
0.2816465 0.48542243 0.8276717 
0.20508422 0.4569758 0.8655135 
0.55847454 -0.09685093 0.8238484 
0.6010558 0.12351054 0.78960574 
0.1077949 0.2981271 0.94842 
0.3535506 0.93466955 -0.037346788 
-0.043236297 0.769541 0.6371321 
-0.45818087 0.5051841 0.7313408 
-0.24194676 0.9270142 0.28654265 
0.27571157 0.775635 0.5677795 
0.6874326 0.71970737 0.097251095 
-0.1497481 0.72272277 0.67472017 
0.37633684 0.5072885 0.7752605 
0.60872823 0.06082696 0.79104376 
0.30466202 0.43447393 0.8475928 
-0.17421652 0.9797565 0.09862031 
-0.4151573 0.49933806 0.7604644 
-0.3957811 0.76793444 0.50362104 
0.06689073 0.09486227 0.99324054 
-0.477787 0.49337715 0.72684157 
-0.048347276 0.99821085 0.035181362 
0.12062205 0.64405745 0.75540745 
0.4994747 0.77818125 0.3807348 
0.9146048 0.22023365 0.33910957 
0.59876657 0.087116204 0.7961718 
0.2175422 0.18062767 0.9591919 
-0.1871545 0.8901481 0.415463 
0.34777495 0.35240182 0.86883 
0.22011428 0.31517258 0.9231554 
-0.3380569 0.023162503 0.94084066 
0.3194463 -0.32144645 0.8914181 
-0.5987962 0.4666721 0.6508919 
-0.66682994 0.32368147 0.67124385 
0.18935254 0.26991522 0.94408226 
-0.31852964 0.6584217 0.68192357 
-0.2538324 0.60548407 0.75429314 
0.60338324 0.78233755 0.15452068 
0.5097149 0.54414654 0.6664047 
0.48697415 0.5356469 0.68988305 
0.51108706 0.8098826 0.2878894 
0.34299788 0.48774248 0.80278254 
-0.07530182 -0.42903444 0.900144 
0.2833345 -0.66199166 0.69389385 
0.04128376 -0.12962273 0.9907036 
-0.101267725 0.4993813 0.8604437 
-0.18363023 0.014951142 0.9828818 
-0.5428141 0.8176952 -0.1916446 
-0.2498511 0.7241264 0.64281845 
-0.18887043 0.89755344 0.3984042 
0.21723682 0.95280844 -0.21204771 
-0.5021143 0.6851939 0.52762735 
0.24504495 0.90713406 0.34214136 
-0.56959677 0.32139817 0.75648046 
-0.13821879 0.91129106 0.38787135 
-0.34564075 0.8474294 0.4029837 
-0.34873444 0.5034116 0.7905448 
0.067972384 0.004094043 0.9976788 
-0.13313878 0.321801 0.9373998 
-0.9588109 0.17668207 0.22240752 
-0.7935625 0.41912213 -0.44112945 
-0.73342896 -0.014091956 -0.6796201 
0.384132 0.43298346 -0.81545573 
0.9866649 0.1496492 -0.06401171 
0.37594482 0.8948533 -0.24063064 
0.2633991 0.96437484 -0.024537686 
0.023837052 0.6308092 0.7755718 
-0.651738 0.62710893 0.42658192 
-0.34393105 0.93574786 0.07802177 
-0.12775922 0.97815436 -0.16398677 
-0.07589323 0.95412123 0.28964293 
0.2650669 0.9638926 -0.025507143 
-0.05015697 0.59923595 -0.7989998 
0.51054853 0.84930295 0.13425606 
-0.26002666 0.7777111 0.57232136 
0.10577336 0.9739125 0.20076492 
-0.45555815 0.86853284 -0.19523703 
-0.66675913 0.7418036 0.0718311 
0.06935923 0.8723255 -0.4839809 
0.58696795 0.7451996 0.31645864 
0.75291556 0.1421081 0.6425913 
-0.06117678 0.21644497 0.97437626 
-0.28043556 0.57604057 0.7678107 
0.4177814 0.8942998 0.16027014 
0.08121267 0.01728786 -0.99654686 
0.45430848 0.18773983 -0.87083733 
0.8108391 0.58188367 0.06286015 
0.02799923 0.8670533 0.49742818 
0.73022586 0.6828719 -0.02136144 
0.8562779 -0.33254454 0.39522457 
0.7005701 -0.4812154 0.5269092 
0.54952097 -0.3717802 0.74820197 
0.661131 -0.0081569 0.7502261 
0.59294856 0.6116068 0.5237836 
0.26285163 0.677085 0.6873609 
0.02517652 0.6359392 0.7713285 
-0.62039155 0.22656795 0.7508538 
-0.9229821 -0.07989202 0.37645897 
-0.060586743 0.7966739 0.60136515 
0.4895124 0.21535759 0.8449845 
0.22776727 -0.11129061 0.96733475 
-0.09212676 0.3191243 0.94322443 
0.040994797 -0.46312317 0.8853454 
-0.770599 0.098034106 0.62973535 
-0.052101824 -0.10489613 0.99311745 
-0.38229743 -0.43813208 0.81356573 
-0.23878303 0.09527742 0.9663876 
-0.74934983 -0.099618696 0.65463805 
0.7094543 0.005264145 0.7047319 
0.7764889 0.35167095 0.5228696 
0.7713485 0.5133723 0.37612563 
0.07609153 0.7833307 0.6169305 
-0.29314455 0.9353705 0.19785981 
-0.51219344 0.70319295 0.49313045 
-0.61773413 0.78017116 -0.09867965 
-0.9106552 0.21287413 -0.35410714 
0.07879828 0.9845365 0.15645646 
0.39784843 0.9128672 -0.09159844 
0.6797283 0.7045527 0.20389932 
0.22994626 0.972637 0.033196956 
-0.5256143 0.7931906 0.30753577 
0.231482 0.9510562 -0.20471498 
-0.16135906 0.9052718 0.39299664 
0.068310045 0.9976024 0.011100328 
0.2289559 0.96076673 -0.15654576 
0.7336215 0.56799 -0.3730776 
0.518879 0.85379213 -0.042468153 
0.41354385 0.54813945 0.7269971 
0.054552853 0.42726338 0.90247995 
-0.68536377 0.45315188 0.5700263 
-0.49839333 0.18798134 0.8463257 
-0.48555055 0.6273617 0.60881686 
-0.8004014 -0.13527513 0.584002 
-0.9465696 0.12917094 -0.29550081 
-0.41924134 0.7077631 0.56860197 
-0.27583584 0.8833312 0.37899944 
-0.19756216 0.98023444 -0.01048007 
0.051077534 0.9507372 0.3057614 
-0.00939545 0.9989303 0.045278665 
0.9181133 0.07212708 -0.38969976 
0.79548573 -0.558179 0.23587827 
0.31970578 -0.41836527 0.8501522 
0.23958272 -0.46625397 0.8515911 
0.2110591 -0.18508938 0.9597896 
0.18403338 -0.26763472 0.9457819 
0.114858285 -0.0147691555 0.99327207 
-0.16908105 0.09330809 0.9811755 
0.32756773 0.6849151 0.65083843 
0.22546004 0.8639489 -0.45028883 
-0.009745957 0.9119021 -0.41029194 
-0.20277923 0.6566729 0.726403 
0.44191143 0.7002402 0.5606942 
-0.009385087 0.8576055 0.5142224 
-0.09593794 0.54522085 0.83278453 
-0.64650875 0.5597639 0.5183541 
0.012812478 0.7982249 0.6022234 
0.6952465 0.68853116 0.2062938 
0.610617 0.5803553 0.5388271 
-0.1490165 0.84500426 0.5135777 
0.7754474 0.62792355 -0.066282876 
0.95525897 -0.243432 -0.16799225 
0.640471 0.11971855 0.75859374 
0.6695595 0.561586 0.4861186 
0.87479955 -0.24304044 0.41911456 
0.50402397 -0.48335144 0.71577317 
-0.8418298 0.45040905 -0.29741278 
0.2144874 0.9560558 -0.19988139 
0.6340939 0.7732436 0.004389635 
0.63318163 0.62323093 0.45898178 
0.6490913 0.50156903 0.57193446 
0.2542075 0.8296969 0.49697253 
0.5796753 0.3325513 0.74389935 
0.49550363 0.62924767 0.5987685 
0.78740543 0.4241657 0.447299 
0.19591956 0.6007465 0.7750608 
-0.12000269 0.452722 0.8835396 
-0.35107923 0.39757895 0.8477467 
-0.47833753 0.3216958 0.8171323 
-0.6221395 0.4273126 0.65600795 
-0.5685749 0.82056546 0.05826579 
-0.5081703 0.54171443 0.66955847 
-0.42343444 0.8690781 0.2557472 
-0.34892368 0.9299597 -0.11587611 
-0.048118718 0.57857233 0.8142105 
-0.19188574 0.88477 0.4246904 
-0.56717956 0.6625149 0.48926622 
-0.3903984 0.89887273 -0.19904049 
-0.29309204 0.9164593 0.27239588 
0.13319792 0.74055153 0.65866673 
0.12004746 0.62514406 0.7712222 
-0.63916534 0.55065423 0.536887 
-0.8134761 0.5703946 -0.11360769 
-0.74840194 0.64378583 0.15948156 
0.21056885 0.95822847 0.19354321 
0.105734415 0.4983386 0.8605108 
-0.42028168 0.8767583 0.2337911 
-0.9543255 0.2645394 -0.1388591 
0.12462228 0.39527532 -0.91006964 
0.56215245 0.7360549 -0.37710467 
0.7786014 0.60347205 -0.17205083 
0.9422524 -0.15519981 0.2967717 
0.6728279 0.700208 0.23877084 
0.23721926 0.72577864 0.6457341 
0.08710508 0.70379055 0.70504725 
0.026724674 0.8958244 0.44360417 
0.24768329 0.6637211 0.7057814 
-0.31747243 -0.3479167 0.88213676 
-0.12972373 0.4347367 0.8911654 
-0.080200635 0.9947903 0.062930115 
-0.48594898 0.45385277 0.74690783 
-0.89236975 0.19174093 0.4085482 
-0.62388533 0.70706344 -0.33290902 
-0.014550401 0.41123348 -0.9114139 
-0.033737972 0.4391288 -0.8977905 
0.7867738 0.5986482 -0.15035751 
0.67871803 0.65401775 0.33406994 
0.57280177 0.6389642 0.5134422 
0.025028078 0.10041641 0.99463063 
-0.028080948 0.25995976 0.9652111 
-0.39178184 -0.005595718 0.92004114 
-0.04996743 -0.2071973 0.97702235 
-0.084561 0.3797226 0.92122763 
-0.43951467 0.07358549 0.8952163 
-0.46118838 0.77064806 0.43978038 
0.12594318 0.5777709 0.8064237 
-0.44294146 0.56160796 0.6988559 
-0.69628847 0.4449272 0.5632248 
0.02801771 0.3026934 0.95267606 
0.2817465 0.8012227 0.5278839 
-0.55327725 0.34837833 0.7566485 
-0.27157584 0.7978646 -0.5381995 
0.67406785 0.5627118 0.47852698 
0.5182661 0.78140587 0.34757048 
0.24619938 -0.08818648 0.96519893 
-0.13837217 0.35902533 0.9230135 
0.3194373 0.9180718 0.23474246 
0.4116864 0.6699865 0.6177641 
0.32855082 0.38643712 0.86181253 
0.33942598 0.7033585 0.6245615 
-0.011488861 0.16695715 0.9858973 
-0.08362436 0.9880465 0.12950279 
-0.9854554 0.16904439 0.017370913 
-0.6763635 0.664216 -0.31835446 
-0.62320334 0.28679046 -0.72757745 
-0.1158629 0.82340956 -0.55549306 
-0.06759737 0.9934511 -0.09211738 
0.09390917 0.9595218 -0.26551694 
0.09329955 0.99230486 -0.081403114 
-0.16218258 0.5154118 0.8414556 
-0.3585374 0.8434383 -0.4000786 
-0.108483784 0.7153677 -0.6902756 
0.26037273 0.2823947 -0.9232873 
0.93927544 -0.13206103 -0.31673607 
0.8813476 0.2672648 0.38961 
0.13671824 0.018451527 0.99043816 
0.5250066 -0.0367782 0.8503033 
0.32784158 0.010532226 0.9446741 
-0.04164262 0.36019602 0.9319468 
-0.09818145 0.32515654 0.9405496 
0.6869884 0.50381947 0.52365345 
0.47159767 0.09516867 0.87666345 
-0.02896671 0.17987026 0.98326385 
-0.28850415 0.94868004 0.12950505 
-0.23340833 0.89980274 0.36861315 
-0.36914545 0.6625879 0.65169704 
-0.26628777 0.8018363 0.53492934 
0.06917751 0.63078755 0.7728659 
0.46473736 0.5244897 0.7133932 
-0.032237463 0.91925097 0.39234987 
0.23702914 0.23032235 0.94380546 
-0.007005132 0.8347631 0.5505649 
0.4991346 0.6659375 0.5544294 
0.4067607 0.4643894 0.78669447 
0.37140086 0.13415658 0.91872925 
-0.11992472 0.50837785 0.8527427 
0.3434577 0.34998095 0.8715218 
-0.13854516 0.29729882 0.9446792 
-0.62849927 0.7552165 0.18610968 
-0.3148934 0.7454534 0.58748746 
0.11542933 0.9014055 0.4173061 
-0.029754676 0.8553789 0.51714754 
0.6222375 0.24973646 0.74192476 
0.14420894 -0.037279133 0.9888449 
-0.095382355 0.6147483 0.7829348 
0.63640106 0.59082854 0.49589857 
-0.29839674 0.19914146 0.93343574 
-0.58254766 0.2854751 0.761014 
-0.2551499 0.44584268 0.8579761 
-0.6135198 0.10310564 0.78291935 
-0.6496936 -0.11148413 0.7519771 
-0.42736548 -0.07715575 0.9007807 
-0.2477576 0.57579535 0.77915084 
0.070151955 0.4985188 0.8640357 
0.27621844 0.2730656 0.9214872 
0.7870739 0.5084414 0.34928775 
0.45915896 0.6746374 0.5779598 
0.39634657 0.47810858 0.78378665 
0.09078772 0.1410912 0.985825 
0.6351932 0.3042898 0.7098854 
0.48462594 -0.444171 0.7535583 
0.1875627 -0.312454 0.93123186 
-0.0047916253 -0.3038569 0.95270574 
-0.078681126 -0.43389615 0.8975208 
-0.121196814 0.6538185 0.746882 
-0.06933241 0.7682167 0.6364244 
-0.18575697 0.68428963 0.705154 
-0.018595373 0.96520954 0.2608157 
-0.19701067 0.68462193 0.701769 
0.051795773 0.97289944 0.22535305 
-0.3582522 0.30651414 0.8818756 
0.4634758 0.4778116 0.7462482 
-0.053280536 0.32439044 0.9444215 
-0.65474874 0.29685444 0.69511265 
-0.10910316 -0.027146941 0.9936597 
-0.17430308 -0.2866225 0.94205415 
-0.6769975 0.7339209 0.055086892 
-0.92909414 0.3593273 -0.08756771 
-0.6530842 0.57960045 -0.48738527 
0.7930233 0.44707218 -0.41381207 
0.8412132 0.27632728 0.46476182 
0.51206493 0.8326068 0.21108213 
0.7695048 0.60554916 0.2029107 
0.07820498 0.781144 0.6194337 
-0.0556006 0.90326047 0.42547512 
-0.34801003 0.5863876 0.73146343 
-0.7844543 0.5886813 0.19515626 
-0.19990076 0.766874 0.60987204 
0.52361864 0.797654 -0.29928544 
0.43289736 0.9012005 -0.020919489 
0.50550145 0.7162659 0.48107317 
0.772436 0.4916534 0.40201914 
-0.114200935 0.85722864 0.50211287 
-0.3183292 0.7347967 0.59894943 
-0.5620946 0.8258754 0.044490553 
0.043540828 0.9685846 0.24484332 
0.2706187 0.9433481 -0.19198963 
0.39563742 0.55878216 0.7288577 
0.17293414 -0.3039542 0.9368595 
0.07348813 -0.27250728 0.95934325 
-0.070914984 0.03516771 0.99686223 
0.8609786 0.49261308 0.12668253 
0.6612952 0.6836431 0.30874074 
0.44701454 0.8630062 0.23536837 
0.17541516 0.5557796 0.8126123 
0.9617428 0.273885 -0.0061391797 
0.8705305 -0.040004946 0.49048573 
0.9428198 0.23168972 -0.23960546 
0.8687858 0.2770519 0.410431 
0.48211604 0.6637666 0.5718201 
0.49658677 0.31687537 0.808079 
-0.29347783 0.4994957 0.81509197 
0.491937 0.42558458 0.7595234 
-0.30515456 0.27984405 0.9102571 
-0.1285872 0.57974976 0.8045841 
0.11337295 0.36357966 0.9246385 
0.11303266 0.16147198 0.98038286 
0.40919602 -0.14334162 0.901117 
-0.14966007 -0.0014369416 0.9887365 
0.30342788 0.09432658 0.94817406 
0.37600383 -0.20161991 0.9044172 
-0.3922612 0.57135415 0.7208923 
-0.22546874 -0.27783996 0.93379277 
0.22821061 0.40176028 0.88685316 
0.89539605 0.36360237 0.25702024 
0.71528983 -0.123244695 0.6878745 
0.30498427 -0.035243176 0.95170516 
0.50101835 0.6278315 0.5956579 
0.019617839 0.59667563 0.80224276 
-0.004004964 0.9997665 0.021232352 
0.4664865 0.8576569 0.21636781 
-0.24472794 0.66805834 0.70271355 
-0.29376572 0.29728574 0.9084729 
0.2656837 0.8283494 0.49320316 
0.83488554 0.37648356 0.40152985 
0.6041776 0.7019413 -0.3771576 
0.3732884 0.92130834 -0.108843 
-0.18818663 0.8616202 -0.47137716 
0.27293625 0.93888944 -0.20974399 
-0.07696328 0.7298246 0.6792884 
0.30155295 0.94484454 -0.1278076 
-0.17151144 0.8093982 -0.56165695 
0.22845933 0.75115436 -0.6193332 
-0.17522584 0.52596986 0.8322569 
0.23439617 0.9707493 0.052000865 
0.22159481 0.9751166 -0.006591606 
0.014972765 0.9967688 0.07891667 
-0.42933983 0.46162224 0.77625537 
-0.89029074 -0.054281577 0.45214593 
-0.8175582 0.36795458 0.44295368 
-0.9052478 0.422666 0.043357413 
-0.8921412 0.1403156 -0.42941302 
0.29622748 0.9362564 0.18887405 
0.022180684 0.8581865 0.5128586 
0.16897412 0.9154854 0.36514983 
0.26974276 0.95068836 0.15307058 
0.489511 0.41162604 -0.7687281 
0.68464977 0.643713 -0.34188935 
0.21443942 0.48940656 0.8452793 
-0.10003034 -0.44137236 0.8917312 
0.39022043 -0.008615626 0.92068124 
0.117658675 -0.17598674 0.97733575 
0.17809287 -0.33515465 0.92517805 
0.5264388 -0.11065469 0.8429815 
0.82544225 0.054875556 0.56181294 
0.81621087 0.5444662 -0.19327833 
0.71914405 0.29458702 0.62932533 
0.27237368 0.82696426 -0.49187675 
0.2210182 0.9087079 0.3541199 
-0.36411813 0.4754077 0.800878 
0.3301369 0.5532495 0.76480365 
-0.18722042 0.76920223 0.6109637 
0.24107267 0.9702346 -0.022999058 
0.7597231 0.5787006 -0.29652384 
0.87817717 0.44643694 0.17175311 
0.50105536 0.6804157 0.5347692 
0.6226184 0.6863428 0.3758722 
0.90534276 0.056450028 0.42091316 
0.27916586 0.2104711 0.936893 
0.6461153 0.2389024 0.7248867 
0.41295174 -0.38544157 0.8251701 
0.37913883 -0.015364687 0.9252122 
-0.30941463 0.5445796 0.77954847 
0.4831003 0.70633584 0.5174011 
0.36220518 0.7434619 0.5622027 
-0.026607212 0.85599875 0.51629287 
-0.12209048 0.77151626 0.624385 
0.3928862 0.77788836 0.49043876 
0.46765655 0.39318794 0.7916442 
0.24408 0.8405278 0.4836715 
0.36236137 0.110271804 0.92549145 
0.73350155 0.008609714 0.67963326 
-0.31212687 0.2627309 0.91298926 
-0.16505231 0.5443894 0.8224342 
-0.5013679 0.6849006 0.5287169 
-0.19917242 0.92501456 0.32354045 
-0.5219175 0.69347316 0.49668622 
-0.5108009 0.8526147 0.110139385 
0.4593739 0.32269764 0.8275517 
0.26200026 0.8960076 0.3585056 
-0.36340463 0.6018013 0.71117675 
0.33272547 0.34982798 0.87573636 
0.20542991 0.76190877 0.6142423 
0.55353445 0.826585 -0.10176905 
-0.21259359 -0.06480338 0.9749895 
0.22010298 0.232914 0.9472622 
-0.22060876 0.36042112 0.90632695 
0.3117017 0.25034067 0.91660875 
-0.08753957 0.58995986 0.8026732 
-0.0011290039 0.49495128 0.86892 
0.0079705715 0.36346763 0.93157274 
-0.5416474 0.24587137 0.8038443 
-0.029292852 0.5608134 0.8274238 
-0.5192967 0.5111418 0.68488324 
0.20450437 0.80258673 -0.5603862 
0.59417033 0.7205378 -0.35747305 
0.40653223 0.9133107 -0.024397882 
0.7755959 0.3711988 0.5105513 
0.69270647 0.679876 0.24067912 
0.3715807 0.88179034 0.29047135 
0.51919454 0.48396075 0.7044282 
0.43142673 0.81453353 0.38782224 
0.78542596 -0.46355298 0.41015205 
-0.015767846 0.27738118 0.96063066 
0.19415466 0.050467294 0.9796719 
-0.48318645 0.6034926 0.6342929 
-0.60626805 0.5230806 0.5990207 
-0.086095005 0.9383382 0.33482692 
-0.22111596 0.9443677 0.2434694 
0.22097315 0.8222095 -0.52454036 
0.25943896 0.5628398 -0.7847948 
0.8709183 0.46298015 0.16477507 
0.3741783 0.5455949 0.7498779 
0.5875029 -0.47015566 0.6586305 
-0.54474914 -0.056735132 0.8366776 
0.6424464 0.09740385 0.7601152 
0.1978122 0.1165962 0.97328085 
-0.24870151 -0.0056509436 0.9685637 
-0.43104345 0.36956456 0.82317895 
-0.5966106 0.2795411 0.7522717 
-0.24334757 0.670562 0.70080566 
-0.35858333 0.6026576 0.7128968 
-0.27474922 0.29882687 0.91390127 
0.08179786 0.59136736 0.802243 
0.37252453 0.92349756 0.09152998 
0.64315987 0.48708132 0.5908446 
-0.099725015 0.6044781 0.79035515 
0.38442737 0.59245914 0.70796025 
0.38291192 0.59391713 0.7075599 
0.13400981 0.704953 0.6964788 
0.40785098 0.2853781 0.8673044 
-0.022973921 0.2306768 0.97275925 
-0.20372172 0.95641875 -0.2091909 
0.39181858 0.25940365 0.8827163 
0.15122978 0.34176007 0.9275396 
-0.075307 0.68849665 0.72131914 
-0.039801072 0.60753053 0.79329854 
-0.30911964 0.37248114 0.8750446 
-0.86757624 0.3162392 0.3838022 
-0.5444846 0.8104715 -0.21603823 
-0.30953407 0.29398346 -0.90430224 
-0.024500258 0.7732458 -0.6336329 
-0.36205012 0.66422474 0.6540071 
-0.09985883 0.9718214 0.21352123 
-0.26482606 0.44113547 0.85747695 
-0.02668938 -0.08003038 0.9964351 
-0.48609397 0.23336476 0.84217197 
-0.41372538 0.41591358 0.80984396 
-0.39855373 0.9095681 -0.11764679 
0.7636384 0.5332231 0.36404613 
0.7399214 0.04270601 0.6713364 
0.0632805 0.055308588 0.99646205 
0.20714898 -0.4008947 0.8923973 
0.4694567 0.43131647 0.77043915 
0.03649851 -0.23081115 0.9723139 
0.65644044 0.09296245 0.7486281 
0.66531897 -0.003188932 0.7465524 
0.32599655 -0.46688795 0.8220352 
0.030136542 0.081863575 0.99618787 
-0.30044016 0.63851124 0.70854723 
-0.694974 0.36214715 0.6211768 
-0.9674798 0.24999337 0.038551357 
-0.896089 0.35923895 0.26071432 
0.0052546104 0.6896445 0.7241291 
0.030951256 0.5750354 0.81754285 
-0.1592493 0.3127351 0.93639547 
-0.0036610719 0.26056892 0.9654483 
0.33505377 0.41733947 0.8447288 
0.18408996 0.5561779 0.8104179 
0.5710562 -0.4179771 0.70653385 
0.21662895 0.003530382 0.9762477 
-0.2955429 0.113468334 0.94856703 
0.017927922 -0.29279605 0.9560069 
-0.1550768 0.21275266 0.96472156 
0.4812233 0.3247032 0.8142433 
-0.060206022 0.59180754 0.8038279 
0.42888921 0.7395158 0.51881653 
0.45247522 0.842926 0.29110447 
0.51629597 0.7650112 -0.3849631 
0.26758733 0.9398153 -0.21247166 
0.58157545 0.5671705 0.58317035 
-0.18742391 0.7471029 0.6377379 
-0.3063961 0.6262332 0.7169054 
-0.35978845 0.56726605 0.7407844 
0.33240926 0.14548679 0.93184644 
0.04155351 -0.38355395 0.9225832 
-0.60847884 -0.19052772 0.77035886 
-0.4429589 -0.3947055 0.8049814 
-0.33915985 -0.09958479 0.935443 
-0.39132413 0.540513 0.74478936 
0.25733602 0.8944059 0.36580923 
0.842382 0.24394786 0.48050198 
0.032465853 -0.26631963 0.9633379 
0.31551063 0.3351256 0.88777465 
0.9449487 0.19117355 0.26556516 
0.0040853233 -0.16424021 0.986412 
-0.2473465 -0.3131011 0.9169447 
0.17882727 -0.5146601 0.8385378 
0.14729404 0.08857624 0.9851186 
-0.08548044 0.48983777 0.8676129 
0.21963212 0.60889214 0.76224154 
0.6402181 -0.26140007 0.72235096 
0.25383106 0.28656653 0.92382336 
0.17168559 0.0010084792 0.98515135 
0.36755094 0.3343565 0.8678203 
-0.33477673 0.8791066 0.3392585 
0.09608372 0.11035426 0.989237 
0.10358882 0.64729106 0.75517124 
-0.22450827 -0.7768626 0.58828616 
-0.018185033 -0.32830068 0.9443983 
-0.45175982 -0.073880635 0.88907516 
-0.48651057 -0.7767947 0.39987192 
-0.71704125 -0.048177756 0.6953638 
-0.091880724 0.98877585 -0.11781485 
0.416756 0.4763989 0.77418256 
0.40178886 0.31799465 0.8587463 
0.8232372 0.3826302 0.4193743 
0.33917013 0.2898308 0.89496464 
0.5451369 0.28133798 0.78973085 
-0.09820024 0.84930617 0.5186868 
0.23839302 0.78855306 0.56688005 
-0.6202375 0.53896546 0.56993127 
-0.07588163 0.75196433 0.65482175 
-0.5157473 0.7089143 0.48108774 
-0.44912702 0.89293593 0.030830145 
-0.16310601 0.53997904 0.82572335 
-0.41972286 0.69916785 0.57878935 
0.07145415 0.7220399 0.68815166 
-0.445345 0.7622692 0.46969503 
0.11580709 0.99232167 0.04343513 
0.40331084 0.8663441 0.2945988 
0.39493272 0.39203146 0.8308668 
0.28798905 0.52884245 0.7983658 
0.25877327 0.5336176 0.8051638 
0.1252835 -0.10157613 0.9869075 
0.38325667 0.3990908 0.8329711 
0.14405166 0.2945436 0.9447186 
0.21834572 0.6920494 0.68803555 
0.16159973 0.88401985 0.43862787 
0.49603948 0.5953271 0.63208425 
0.52297217 0.5878952 0.61715436 
0.673239 0.7389021 -0.02780444 
0.5303516 0.73634994 0.4201381 
0.21188956 0.88208085 0.42075676 
0.5077685 0.32261583 0.7988055 
0.2045982 0.8356945 0.50966096 
0.018862829 0.75109977 0.6599192 
-0.110850975 0.8248169 0.554427 
0.34014186 0.10419181 0.93458414 
0.012461131 -0.55786425 0.8298387 
0.029565133 0.19901675 0.97955 
0.055398144 0.14453332 0.987948 
-0.14482197 0.15088223 0.9778861 
-0.09381202 -0.4831424 0.8705014 
-0.08106924 0.010096287 0.9966574 
0.14090423 -0.10511124 0.9844276 
-0.21658663 -0.3659328 0.90508753 
-0.20241967 -0.15176451 0.9674677 
0.6393448 -0.105762504 0.7616119 
0.17490213 0.36699533 0.91363215 
0.3083596 0.42929217 0.84889495 
0.8437588 0.023342665 0.53621477 
0.42611784 -0.05980709 0.9026887 
0.1578309 0.35088852 0.9230204 
-0.50447077 0.2619449 0.8227358 
-0.3935393 0.8077394 0.43895793 
0.6497479 0.5369705 0.5380432 
-0.29321566 0.94692314 0.13176139 
-0.9614617 0.0014888586 0.27493492 
0.4140183 0.7533107 0.51099104 
0.3774672 0.46824846 0.79891294 
0.06742409 0.7206811 0.6899803 
-0.068693474 0.66156346 0.74673635 
-0.5658914 0.8046263 0.179843 
0.19154985 0.9784145 0.07754919 
-0.52063835 0.7806808 0.3456492 
0.65365106 0.6771743 0.33789846 
0.031837646 0.9303516 -0.36528373 
0.36940813 0.6683688 0.64561665 
0.21326067 0.6047336 0.7673443 
-0.20835139 0.51196223 0.83335733 
0.18508926 0.72624654 0.66204834 
0.12989539 0.7239204 0.6775444 
-0.009333025 0.22260442 0.9748642 
-0.7304165 0.47307563 0.492637 
-0.51421654 0.022129044 0.85737497 
-0.73602057 0.22596532 0.63813275 
-0.869361 0.055747215 0.4910233 
-0.23343658 0.65307736 0.72041476 
-0.1347048 0.9631842 0.23266076 
0.2503502 0.6855649 0.68361217 
0.25089872 0.93204033 -0.26143974 
0.81705755 -0.10313781 0.56725615 
0.7685012 0.16835661 0.6173022 
0.27219248 0.16750507 0.9475513 
0.4675172 0.3981278 0.78925407 
0.20555103 0.16514562 0.9646117 
-0.61391145 -0.0022461936 0.78937185 
-0.46840253 0.1782239 0.86535275 
-0.43082625 -0.51386654 0.7418423 
0.2616145 -0.0681353 0.9627645 
0.7576425 0.29966545 0.57980907 
0.71618325 0.2988824 0.630675 
0.50313073 0.65685344 0.56160766 
0.708846 0.7038101 -0.04678429 
0.4605541 0.3577891 0.81232816 
0.271992 0.08741976 0.95832056 
-0.015771 0.52654964 0.8499982 
0.26616445 0.8725634 0.40962142 
0.25045046 0.96484715 -0.07965401 
0.43454653 0.80010974 0.41351405 
0.65047866 0.75217843 -0.10538161 
0.9766919 0.03533523 0.21171808 
0.85868865 0.35386583 0.37071946 
0.62389785 -0.041993205 0.780377 
0.36996365 -0.32515463 0.87028813 
-0.26748297 0.23485108 0.9345041 
0.6793804 0.0825101 0.72913265 
0.795392 0.4743148 0.3773288 
0.7510133 0.6602578 -0.0062360694 
0.87947553 0.28259706 0.38296467 
-0.4406031 0.2993854 0.8463082 
-0.19828032 0.86562234 0.45976388 
0.5911478 0.78766596 -0.1735702 
0.4694406 0.5659176 0.6777631 
-0.08330758 0.14464854 0.98596996 
0.39373103 0.4538179 0.7993906 
0.37559748 -0.6202207 0.68866026 
-0.042158242 -0.11668841 0.9922734 
-0.2995243 0.50129694 0.81178 
-0.25830555 0.6494556 0.71518224 
-0.10267833 0.7639895 0.63700646 
-0.29662812 0.78902733 0.53800356 
-0.079991765 0.9962956 0.031568155 
0.27829647 0.95850796 0.061755564 
0.110493 0.8928741 0.4365399 
0.03243286 0.4345956 0.9000415 
-0.32275945 0.25135368 0.9124953 
0.6360047 0.3572021 0.6840356 
0.3278509 0.6980368 0.6365991 
-0.17619696 0.77352184 0.6087845 
-0.17641868 0.7565733 0.62966126 
0.30942154 0.54924655 0.7762644 
0.3081496 0.37371588 0.8748602 
-0.45557278 0.41676855 0.7866115 