# OOMMF: rectangular mesh v1.0
# Segment count: 1
# Begin: Segment
# Begin: Header
# Desc: Time (s) :  1.2699999999999999e-07
# Title: m
# meshtype: rectangular
# meshunit: m
# xbase: 2e-09
# ybase: 2e-09
# zbase: 5e-10
# xstepsize: 4e-09
# ystepsize: 4e-09
# zstepsize: 1e-09
# xmin: 0
# ymin: 0
# zmin: 0
# xmax: 1.024e-06
# ymax: 1.024e-06
# zmax: 1e-09
# xnodes: 256
# ynodes: 256
# znodes: 1
# ValueRangeMinMag: 1e-08
# ValueRangeMaxMag: 1
# valueunit: 
# valuemultiplier: 1
# End: Header
# Begin: Data Text
0.4185266 0.73706657 -0.53063023 
0.6180566 0.74989665 0.23592624 
0.7263117 0.68735963 0.0028669813 
0.42903355 0.5960132 0.6787478 
-0.30749863 0.638948 0.70511705 
-0.0590325 0.515118 0.855084 
-0.32935897 0.87544453 0.35372233 
-0.47517446 0.8717505 -0.11941757 
0.06718764 0.82934004 -0.55469 
0.07491415 0.95191145 -0.2970733 
0.15327863 0.42566752 -0.89180326 
0.071432024 0.9178652 -0.39041138 
0.39748356 0.91591483 -0.05573907 
0.10595678 0.7886158 0.60568833 
-0.57475334 0.65985775 0.48399 
0.22439387 0.7692095 0.59830105 
0.09239772 0.94649476 0.30920953 
-0.22448389 0.8919357 0.39250186 
-0.10081629 0.31150448 0.94488156 
0.19243446 0.29930624 0.9345506 
0.39693612 0.62417454 0.6729397 
-0.077517584 0.4073362 0.90998256 
-0.6728413 0.58365583 0.45456627 
-0.5991503 0.6782808 0.42538697 
-0.45733383 0.85525084 0.24370445 
0.045967214 -0.058136776 0.99724984 
-0.39896345 0.46845776 0.7882737 
0.37619075 0.49468076 0.7834357 
0.62825763 0.30251592 0.71678203 
-0.21297967 0.73175603 0.6474356 
-0.6810959 0.56888133 0.4609582 
-0.8315437 0.51443374 0.20950697 
-0.7787303 0.6188452 0.10300406 
-0.751915 0.5483581 0.36596087 
-0.15601982 0.9006833 -0.4054965 
-0.7169879 0.65037626 -0.25087664 
-0.22850816 0.97232676 -0.048629127 
0.23592831 0.96674067 -0.09874336 
0.5895322 0.71525073 -0.37532416 
0.39039284 0.8556025 0.33990854 
0.7197448 0.43432632 -0.5415978 
0.9918889 -0.04857416 0.11746102 
0.9581623 0.22013302 -0.18293867 
0.30618224 0.9240814 -0.22874896 
-0.44072112 0.89644736 0.046336375 
-0.24625154 0.9403965 -0.2345519 
-0.18336365 0.76904505 0.61232954 
-0.32236737 0.8937557 0.3118979 
0.12088879 0.7587661 0.6400468 
-0.71480405 0.6309426 0.30160674 
-0.49887353 0.28387302 0.81886595 
0.31158224 -0.42094776 0.8518917 
-0.4942535 -0.14470397 0.8571898 
-0.6585215 0.72198063 0.21235238 
-0.47179714 0.32233015 0.8206771 
-0.36876974 0.7688647 0.5223563 
-0.78264487 0.23899385 0.5747599 
-0.47150916 -0.01910378 0.88165426 
-0.37453374 -0.20465419 0.90434575 
-0.50996315 -0.13837726 0.8489932 
0.3875047 0.060641345 0.9198711 
0.17830697 0.31425145 0.9324445 
-0.5672472 0.55583066 0.6076866 
-0.1454868 0.6032945 0.78413606 
-0.039458748 0.26616865 0.96311855 
-0.15364979 -0.3586534 0.9207385 
-0.6110908 0.43174025 0.663452 
-0.58346343 0.59968424 0.5476763 
-0.6534 0.40730873 0.6380973 
-0.6817128 0.6784957 0.27369937 
-0.5336712 0.41556844 0.73654467 
-0.24300902 0.03597086 0.96935683 
0.112096794 0.8858563 0.45021433 
0.27428085 0.8891417 0.36632937 
0.33963728 0.86069256 0.37928194 
0.16067375 0.91060746 0.3807599 
0.36306143 0.42530316 0.8290379 
0.004138103 0.36130586 0.9324382 
0.20591189 0.95109916 0.23024057 
-0.023607563 0.6387128 0.769083 
-0.107878104 0.18791938 0.97624207 
-0.7410768 0.6685282 0.062251978 
-0.4942026 0.86150795 0.11648185 
-0.816902 0.38448632 -0.42993182 
-0.08120611 0.79745674 0.59788674 
0.08904094 0.83458906 0.5436293 
-0.6601829 0.00014355082 0.751105 
0.15595825 0.9840924 -0.08508384 
-0.33764586 0.88116556 -0.3309721 
0.4672727 0.73020303 -0.49845752 
0.78748083 0.38361326 0.4824054 
0.75230724 0.15032488 0.64143294 
0.5018708 0.072266184 0.86191845 
0.78804964 0.091899835 0.60871375 
0.37856957 -0.15864427 0.9118756 
0.18980238 0.8950241 0.40361747 
-0.18987007 0.804887 0.5622335 
0.5721213 0.8198318 0.023520848 
0.3207905 0.8640907 0.38786715 
0.062438574 0.9725029 -0.22436517 
0.63563216 0.36062205 0.6825859 
-0.16702183 0.5530056 0.816265 
-0.8570138 0.38759446 0.33955535 
-0.6761755 0.3988779 -0.6194217 
0.30491674 0.45818883 -0.8349185 
0.848316 0.5236434 -0.07847028 
0.27422634 -0.5967402 -0.7541228 
0.8412493 -0.013488416 -0.54047906 
0.49662405 -0.26196668 0.8274891 
0.74681085 0.121985346 0.6537531 
-0.4124732 -0.48478988 0.77126175 
-0.40898728 -0.014613161 0.91242313 
-0.509861 0.3304548 0.7942553 
0.39092922 0.8823886 0.2618488 
-0.43336245 0.5812727 0.68870825 
-0.3594949 0.7972378 0.48494875 
0.14235935 0.9743365 0.17436232 
0.39467654 0.5861423 0.7075788 
-0.9333414 0.281903 0.22227147 
-0.822772 0.41274413 0.39075384 
-0.14937206 0.3427044 0.9274922 
-0.32673 0.8857792 0.32960996 
-0.23927167 0.3336562 0.91182387 
-0.82635117 0.16138068 -0.53953695 
-0.76169425 0.54267037 0.3540209 
-0.94415396 0.32949665 0.0023335577 
-0.024967551 0.9792398 -0.20116158 
0.3499684 0.9358804 0.040618837 
-0.123514205 0.9619465 0.2437279 
0.4236151 0.3650907 -0.82901096 
0.16424152 0.9121706 0.37545902 
0.29429984 0.88640434 0.35731632 
0.096260495 0.9572067 -0.27292737 
0.48907924 0.79388684 0.3613106 
0.41532403 0.3555765 0.83730006 
-0.19858399 0.40774995 0.8912377 
-0.4356221 0.21384002 0.8743603 
-0.5063744 0.5601365 0.65561587 
0.64482236 0.23446049 0.72748363 
0.61101264 -0.308493 0.7290376 
0.33182865 -0.42408597 0.84263927 
-0.34376547 0.5859918 0.733784 
-0.47746882 0.005683594 0.8786304 
-0.8108779 -0.5646015 -0.15395536 
-0.7453037 0.5388631 0.392618 
-0.70826757 -0.020700727 0.7056406 
-0.6210374 -0.75770146 0.20050177 
-0.4693254 -0.7328417 -0.49262238 
-0.8480959 0.5023979 -0.16831431 
0.06493646 0.5366756 -0.84128624 
0.18649104 0.2866906 -0.9396966 
0.6723969 0.61626774 -0.40999573 
-0.07085687 0.9903849 -0.11881563 
0.21853644 0.9733069 -0.07011217 
0.345209 0.78723705 0.5109685 
0.41326344 0.8067908 0.42225823 
0.19997859 0.32808173 0.92323935 
0.437528 0.89225966 0.11154401 
0.8669479 0.35108665 0.35375068 
0.75012 0.52859116 0.3973809 
0.74368286 0.34832576 0.57061815 
0.15623708 0.9619417 0.22418323 
-0.17007981 0.8336582 0.52543974 
-0.39838085 0.91393673 -0.07753998 
-0.7172895 0.69677234 0.0020198494 
-0.16555056 0.7977231 0.57985413 
-0.58324844 0.5667976 -0.58186066 
0.3630369 0.8278973 -0.42753989 
0.22419877 0.9646702 0.13837086 
0.6596583 0.693955 0.28857827 
0.8082766 -0.58762777 0.03718251 
0.5452898 0.06752523 0.8355234 
0.09503105 0.19107495 0.9769644 
-0.42395383 -0.16554739 0.8904254 
-0.25679353 0.27160558 0.92751694 
-0.26770043 0.714568 0.6463196 
-0.11946441 0.96892536 0.21659176 
-0.7345336 0.6761987 -0.056706954 
-0.9808512 0.14620802 -0.12866384 
-0.6806544 0.15528646 -0.7159579 
-0.4204728 0.52023274 -0.74334425 
-0.89430743 -0.10936395 -0.43388233 
-0.4884003 0.62924504 -0.6045791 
0.20819828 0.87314355 -0.44076508 
0.93978804 0.34171188 0.005604015 
0.8796283 0.2345175 0.4138305 
0.704468 0.46291333 0.5379927 
0.8018666 0.17571813 0.57108057 
0.22615837 0.57304573 0.7876999 
0.12173789 0.69906604 0.70461804 
0.059175223 0.9917406 -0.11379341 
0.5997093 0.36789656 -0.7106342 
-0.3300473 0.93450105 0.1333292 
0.68796057 0.50466895 0.521555 
0.048297796 0.17681786 0.98305786 
0.2768351 0.039718017 0.9600963 
-0.04473677 -0.058262587 0.9972985 
0.45221958 0.53669035 0.7123629 
0.27938467 -0.093881585 0.9555786 
-0.037345596 -0.7229223 0.6899194 
-0.8280378 0.00872312 0.56060445 
0.015811257 0.3398112 0.9403608 
0.15446997 0.6329186 0.7586522 
0.17545143 -0.06375298 0.9824217 
0.16079463 0.48980588 0.8568753 
0.23176666 0.37371042 0.8981229 
-0.6108538 0.5644547 0.55520135 
-0.54695326 0.7946469 -0.26339793 
0.74199766 0.6703927 0.0036202308 
0.93075407 0.08459818 0.3557247 
-0.092332415 0.81738794 0.5686404 
-0.0046600644 0.5188051 0.8548799 
0.04607701 0.71506417 0.69753873 
-0.31380716 0.91072494 0.26852402 
-0.36213815 0.93211836 -0.0033658897 
-0.09672271 0.9752103 -0.19902179 
0.06890475 0.9938754 0.086393476 
0.20034336 0.7464998 0.6345082 
-0.69352 0.5578625 0.45587227 
-0.31810918 0.63645935 0.7026565 
0.18418206 0.8467544 0.49908316 
0.5406968 0.707185 0.4555618 
0.22055049 0.73143965 0.6452546 
0.46435416 0.803111 0.37334713 
0.50469524 0.79446644 0.3377954 
-0.00638773 0.66227573 0.749233 
0.6298386 0.74300396 0.22638124 
0.18910065 0.9218555 0.3382655 
0.81747794 0.16137412 0.55289084 
0.29161826 -0.09730314 0.95157295 
0.3038766 0.06501043 0.9504908 
-0.14297803 -0.29776102 0.94387275 
-0.2810185 0.5751187 0.7682884 
-0.4714901 0.67279744 0.57012355 
-0.14805178 0.23750818 0.9600368 
0.08247591 -0.014481681 0.9964879 
0.4932861 -0.23706849 0.8369393 
0.5149521 -0.36166653 0.7771883 
-0.47711167 0.8584937 0.18802398 
-0.99437314 0.0972049 -0.042110305 
-0.5769235 -0.7906123 -0.20516275 
-0.16975434 0.81961054 0.54719466 
-0.39479607 0.44819734 0.802032 
0.3316076 0.81772214 0.47049648 
0.014803097 0.6028254 0.79773587 
-0.50056547 0.70233965 0.50611585 
0.15526426 0.52682716 0.8356712 
-0.54655844 0.7761723 0.3143734 
0.22583428 0.51226044 0.8286062 
-0.27451554 0.16590942 0.9471617 
0.551704 0.41612977 0.7228131 
-0.56472737 0.7818117 0.2642983 
0.055473804 0.7545436 0.6539011 
-0.9241705 0.24703453 0.29134673 
-0.7100931 0.38507062 0.58948153 
-0.5922155 0.17975228 0.7854743 
0.7100846 0.6741342 0.20328057 
0.4788745 0.24710691 0.8423879 
0.19837348 0.9360563 0.29059708 
0.66346294 0.37850672 0.64540654 
-0.18263385 0.32296014 0.92862356 
0.12714353 0.6659357 0.7350947 
-0.08693395 0.28459227 0.95469886 
-0.29105273 0.8318139 0.47262472 
-0.20382252 0.80111265 0.56273884 
-0.016028224 0.99131036 0.13056384 
0.5719102 0.8198392 -0.027973393 
0.25489408 0.9603373 -0.11305406 
0.18626654 0.89460105 0.4061943 
-0.16396517 0.76097196 0.6277239 
0.33234262 0.23937866 0.9122754 
0.38346928 -0.07812552 0.9202434 
0.18618956 0.7641168 0.6176236 
0.53644216 0.8121807 0.22933026 
-0.3281 0.8708638 0.36598733 
-0.060226906 0.9462257 0.31785163 
0.25468528 0.7233289 0.6418184 
-0.093379326 0.8707984 0.48269087 
-0.1297008 0.7884196 0.6013088 
-0.48475626 0.4981789 0.7189083 
-0.021102661 0.7017386 0.712122 
-0.42953175 -0.058619693 0.90114725 
-0.27805203 0.0068520373 0.9605416 
-0.7494386 -0.14371206 0.6462884 
-0.6319986 0.21891494 0.7434071 
-0.48999453 -0.090696074 0.86699456 
-0.74570066 0.6015859 0.28639993 
-0.8043644 0.50497776 -0.31304225 
-0.62771714 0.23898877 -0.7408479 
-0.52184266 0.68929076 0.50255203 
-0.27971682 0.8461657 0.45360997 
-0.4340282 0.805965 0.402542 
-0.82004404 0.5248857 0.2280853 
-0.47850022 0.8460129 -0.23515911 
0.011096016 0.54147524 -0.8406435 
0.6398282 0.15398493 -0.75293326 
0.35737404 -0.29119506 -0.88740593 
0.16443239 0.69400436 -0.7009423 
0.4179048 0.90787184 -0.033532813 
0.27375785 0.96066403 -0.046703022 
-0.77065665 0.63613516 -0.03768863 
-0.39945447 0.8015263 -0.44496253 
-0.4285711 0.8822852 0.1946784 
-0.45053175 0.65897566 0.6023057 
-0.043769877 0.96509844 0.25820404 
-0.06867718 0.9960091 -0.057002813 
-0.34726414 0.7473863 0.5664111 
-0.70264965 -0.31412226 0.638444 
-0.89623535 -0.096505605 0.4329537 
-0.20038275 0.54372966 0.8149876 
0.19441733 0.3831086 0.90301156 
-0.7159274 0.0806323 0.693503 
-0.27160236 0.77287906 0.5734896 
-0.35048386 0.27908325 0.8940211 
-0.6128951 0.5941464 0.52091247 
-0.24810967 0.52658266 0.8131127 
0.7942186 0.16737188 0.58412635 
-0.1690818 0.6100292 0.7741291 
-0.62016964 -0.43704355 0.6514465 
-0.5431602 -0.022280326 0.8393335 
-0.36359802 0.06477648 0.9293011 
-0.4938226 0.018324703 0.8693696 
-0.10826212 -0.24266477 0.96405035 
0.5381878 -0.68386024 0.49263483 
-0.37782812 -0.899627 0.21890032 
-0.91102767 0.29927862 0.28365663 
-0.22005658 0.29442832 0.9299931 
0.061822087 0.1339628 0.98905617 
0.2712367 0.83774406 0.47393614 
0.00032809353 0.83097196 0.55631435 
-0.10852789 0.7785594 0.61811566 
-0.11231644 0.96198374 0.24894248 
0.47307938 0.7532341 0.45698407 
0.5068718 0.736237 0.44837058 
0.13374658 0.37639046 0.91675633 
-0.39823136 0.10522667 0.9112295 
0.13160291 -0.03437587 0.9907064 
0.5047678 0.43489945 0.7457024 
0.17582543 0.71279085 0.67898065 
-0.67304003 0.6671324 0.31929862 
-0.6229606 0.22839545 0.74816823 
-0.3428958 0.39083138 0.85420924 
-0.5884119 0.2843136 0.7569262 
-0.5177644 0.26175997 0.81449485 
0.13867863 0.80622506 0.5751256 
0.7733484 0.6089393 0.1764233 
0.08587098 0.86021763 0.50264484 
-0.015377166 0.6463469 0.7628888 
0.18344453 0.23837017 0.9536917 
0.18517813 -0.48036158 0.8572992 
-0.03316383 -0.22596255 0.97357136 
-0.19146067 0.95772654 0.21471569 
-0.20675056 0.95864666 0.19557837 
-0.1415565 0.72213304 0.67711574 
-0.021778736 0.8397715 0.5425029 
0.53886956 0.564717 0.62507147 
0.3075201 0.17874902 0.9346017 
0.07561011 0.5119686 0.85567003 
-0.1944076 0.9626945 0.18821546 
-0.07487859 0.784379 0.6157457 
0.18850209 0.9683137 0.16381615 
-0.039517578 0.9089173 -0.41509968 
0.78762275 0.30263242 -0.5367159 
0.7334765 0.27958098 0.6195537 
0.43133 -0.7691532 0.47154832 
0.75452447 -0.058245003 0.6536822 
0.2409473 0.06211983 0.96854824 
-0.78111035 -0.13481894 0.6096643 
-0.51006114 0.13788825 0.84901386 
0.25553277 0.49717355 0.82916915 
-0.94815534 0.0027933673 0.31779516 
0.115316644 0.61404353 0.78080255 
-0.348403 0.21983515 0.9112013 
-0.4255247 0.26605052 0.8649543 
-0.9732878 -0.2228679 -0.05514416 
-0.9558203 0.17133668 0.23885411 
-0.75794315 0.31665757 0.570307 
-0.8862215 0.45861414 0.0654566 
-0.94655937 0.03978338 0.32006663 
-0.47218925 0.8814506 -0.009071527 
0.077871166 0.53008306 0.8443626 
-0.38664487 0.85316974 -0.3501532 
0.016466275 0.98809874 -0.15293775 
-0.664082 0.6214981 -0.41561437 
-0.010580508 0.9976041 -0.06836826 
0.23963493 0.9309168 0.27562508 
-0.18663223 0.7968626 0.5746116 
0.010641531 0.99217504 0.12440086 
-0.08002551 0.6251496 0.7763917 
0.32240123 0.7316244 0.6006523 
0.6077432 0.14120185 0.7814795 
-0.32037228 0.7983535 0.5098955 
-0.053574212 0.68710136 0.7245837 
-0.07513768 0.6282443 0.7743795 
0.3738655 0.57645893 0.72658086 
0.22005779 0.42360818 0.8787097 
0.83887243 -0.5350682 0.09997555 
0.058023866 0.2738525 0.9600199 
-0.19240794 0.6402155 0.74370927 
-0.77870363 0.6273789 0.0040605483 
-0.83427095 0.54977727 0.041676912 
-0.82089955 0.56499237 -0.083111845 
-0.91211647 0.09206216 -0.3994599 
-0.9265933 0.36631852 -0.08506265 
-0.71658456 0.62119395 0.31721407 
-0.15737897 0.53249764 -0.83167183 
0.31781882 0.5468346 -0.77457297 
0.65406877 0.2800227 -0.7026958 
-0.092634745 0.75220966 0.65237975 
-0.37862995 0.49543774 0.7817805 
-0.17484997 0.8876446 0.42604527 
0.38502523 0.73032427 0.5642535 
0.7539225 0.48670784 0.44126695 
0.25188956 0.9036845 -0.3462746 
0.38129646 0.7141277 0.58705604 
0.94115 0.3268705 0.085979275 
0.6919655 0.27079427 0.6692192 
0.55911875 0.373322 0.7402817 
0.0799273 0.41202295 0.90766114 
-0.23400809 0.8211154 0.52058595 
-0.17500032 0.9561426 0.23487516 
0.19723083 0.96372736 0.1798042 
-0.048975985 0.77769333 0.6267332 
0.38420072 0.8986184 0.21183671 
0.9736096 0.22505735 -0.03786201 
0.944706 0.14341068 0.29489678 
0.5425149 -0.39037946 0.74382895 
0.5141286 -0.08938269 0.85304314 
0.06205184 0.14659043 0.98724914 
0.22335395 0.5165614 0.826606 
0.5673832 -0.021861443 0.82316375 
-0.8187274 0.248171 0.5177807 
-0.18281431 0.9485183 0.258635 
-0.3967072 0.42622778 0.8129904 
-0.48861158 -0.14574194 0.8602431 
-0.86415493 0.39910161 0.30651963 
-0.9767781 0.101440616 -0.18871766 
-0.40520078 0.3850909 -0.82916665 
-0.15460537 0.9872261 -0.038493637 
-0.0044310787 0.9712586 0.2379856 
0.0690172 0.9948871 0.07373077 
0.3705301 0.30549553 0.87714314 
0.20255774 0.32818732 0.92263937 
0.47575352 0.54271185 0.6921868 
0.75898653 0.010445026 0.6510226 
0.12391188 0.43618017 0.89128715 
0.73056287 -0.27306446 0.6258704 
0.90969366 0.1751912 0.37651777 
0.03778393 0.9172382 0.39654335 
0.19939063 0.5423082 0.8161771 
0.2466008 -0.12476867 0.96105194 
0.54260904 -0.4195373 0.7277114 
0.1220386 -0.12824008 0.98420584 
-0.013249891 0.59233475 0.8055831 
0.35493675 0.61420846 0.70481765 
-0.14552315 -0.24171825 0.95937246 
-0.2121157 -0.4388503 0.87316513 
0.19906849 -0.17952926 0.9634007 
-0.04455687 -0.028170982 0.9986096 
0.7088266 0.12242526 0.69467765 
0.07560461 0.50943756 0.8571798 
0.7385606 0.5452643 0.39650363 
0.47214526 0.78127164 0.40828112 
0.39845356 0.8979136 0.18704562 
0.44918475 0.8886103 0.09276238 
0.6557387 0.7312676 -0.18776181 
0.8835467 0.4287894 -0.18837424 
0.6241463 0.34273788 0.7021198 
0.21780002 0.2140823 0.95222473 
0.64987415 0.5787866 0.4926153 
-0.09562146 0.94211733 0.321359 
-0.24416913 0.80356663 -0.54282784 
0.45525226 0.69450754 0.55713975 
-0.26272276 0.72737855 0.63395363 
-0.56834245 0.7966169 0.20588474 
-0.6412198 0.7599795 -0.1061535 
-0.5764527 0.49055302 0.65349835 
0.027372092 0.6678183 0.74382097 
-0.15748098 0.17746586 0.97144514 
-0.6108002 0.77608174 0.1569089 
0.10948002 0.9756865 0.18986823 
-0.53596365 0.7639507 0.35933614 
0.26123142 0.9567565 0.1279657 
0.30253848 0.9405321 -0.15449892 
0.6887183 0.69596654 -0.20321825 
0.9353314 0.34068114 0.09534979 
0.28740817 -0.1674055 0.9430652 
0.045339677 -0.1856393 0.98157144 
-0.36346638 0.31914598 0.87523603 
-0.32469252 -0.6391738 0.69715977 
-0.12278316 -0.33471075 0.9342874 
0.36175117 -0.57990795 0.72996086 
0.34775797 -0.2517054 0.903166 
-0.61243725 -0.417536 0.6712558 
0.17906408 0.2493739 0.9517084 
-0.80472076 0.013385294 0.59350264 
-0.87329096 -0.26511943 0.40874767 
-0.18924053 0.42161992 0.88680595 
0.22029427 0.46158484 0.8593079 
-0.02985694 0.53269583 0.8457799 
-0.37372783 0.17537874 0.9108073 
0.099789135 0.8429796 0.5286092 
-0.17031385 0.7104415 0.6828368 
-0.11426371 0.6785012 0.72565836 
0.18360393 0.18076496 0.9662368 
0.30128154 -0.04209321 0.9526057 
0.33765683 -0.089089036 0.93704385 
0.047620308 0.4296377 0.9017449 
-0.15930186 0.45262524 0.8773559 
-0.20087084 0.18348117 0.96228147 
-0.9513589 0.30690807 0.026902344 
-0.8887598 0.45798895 0.018771544 
0.46055645 0.6803941 0.57004523 
0.5669537 0.6940269 0.4437231 
-0.6196678 0.48834002 0.61443955 
-0.0002517678 0.7889233 0.61449164 
0.831062 0.27940395 0.48090467 
-0.10921323 -0.0685556 0.9916515 
0.61333823 0.12321732 0.7801498 
-0.095108025 0.27985656 0.9553192 
0.03287126 0.85740364 0.51359385 
0.95107406 0.1747189 0.25481668 
0.96202147 -0.06004678 0.2662876 
0.8840418 0.45250335 0.11709405 
-0.1703878 0.7678944 0.6175001 
-0.068435945 0.28459254 0.9562027 
-0.07258974 0.8859205 0.45812178 
0.47138926 0.11019052 0.8750145 
-0.42280516 0.55541766 0.71606356 
0.7198104 0.38913545 0.57484496 
0.2436177 0.93906057 0.24251965 
0.049693335 0.98424435 0.16968676 
0.3737702 0.63664615 0.6745203 
0.09773199 0.82065755 0.56300056 
0.005435987 0.68781334 0.72586733 
-0.67615664 0.6952902 0.24368763 
-0.5584369 0.41072106 0.7207334 
-0.13066259 0.73844224 0.6615364 
0.33502665 -0.06603971 0.9398914 
0.12692408 0.0963993 0.98721707 
-0.42647716 0.82782584 0.3644469 
0.14711234 0.9169651 0.3708545 
0.5329854 0.84531856 0.03692342 
-0.28433442 0.95762235 -0.04597124 
-0.05367145 0.99823034 0.025606763 
0.39312744 0.5823106 0.71159345 
-0.18754971 0.1109065 0.97597384 
-0.3443439 0.8161279 0.4640718 
-0.50083804 0.052131668 0.8639697 
-0.6997303 0.535045 0.47339666 
0.5600834 0.6502821 -0.513264 
0.3704913 0.21252753 -0.9041949 
0.78120804 0.46124852 -0.42067057 
0.15035011 0.8689379 -0.47153127 
0.6355148 0.7574791 -0.14948775 
0.80702657 0.52142173 0.27717757 
0.032482896 0.7622667 0.6464475 
0.22977391 0.8068702 0.54420996 
-0.30604118 0.7117671 0.6322392 
-0.24322745 0.88650954 0.39362603 
-0.29756427 0.94207746 0.15474409 
-0.36101544 0.8841134 -0.29666704 
-0.8085152 0.49662796 0.31569597 
-0.602593 0.675679 -0.42466408 
-0.24531105 0.4587629 0.8540253 
0.010176187 0.8748687 0.48425317 
-0.21343492 0.2404534 0.9469043 
-0.524856 0.4722121 0.7081963 
-0.18896995 0.97362727 -0.12782922 
0.23464094 0.9696649 0.06851072 
-0.1869547 0.62951773 0.75415874 
0.30248886 0.062941484 0.9510725 
-0.19143379 0.09555092 0.9768435 
-0.43760866 0.1134086 0.89198494 
-0.500868 -0.3971976 0.76900274 
-0.7431595 -0.45423898 0.49130553 
-0.9891558 0.01858439 0.14568964 
-0.8625104 -0.0089388285 0.50596046 
-0.45989877 -0.48958194 0.7408122 
-0.10908277 -0.8764654 0.46894494 
-0.06957766 -0.8116003 0.5800551 
-0.267821 -0.16814463 0.94868296 
-0.50817746 -0.3457103 0.788822 
-0.47116274 -0.26568335 0.84108144 
0.027440729 -0.31868497 0.9474634 
-0.018319814 0.5341678 0.84518 
0.36297086 0.93144226 0.025836159 
0.092009164 0.7263746 0.68111247 
0.23722033 0.81094515 0.53487813 
0.60274243 0.42576006 0.67485553 
0.18198487 0.079637565 0.9800712 
0.18545349 0.10620588 0.9768968 
-0.044127826 -0.21302569 0.97604966 
-0.017046751 0.6591066 0.75185627 
0.170776 0.20405868 0.96394795 
0.018568832 0.44172895 0.89695644 
-0.15480109 0.7612279 0.6297371 
-0.34236187 0.111969315 0.9328726 
-0.6805439 0.0012630634 0.73270625 
-0.53154635 0.48168692 0.6967326 
-0.3210978 0.56684375 0.7586729 
-0.3946453 0.6198553 0.6782585 
-0.3789045 0.7288037 0.57033026 
-0.54417604 0.6256653 0.55894136 
-0.6389302 -0.30526322 0.70610386 
-0.8376705 -0.2627854 0.47880283 
0.052839123 0.21349052 0.97551525 
0.33693063 0.09420984 0.9368043 
0.18581225 0.8397111 0.510254 
0.45895493 0.7159381 0.5261112 
0.4500466 0.1539554 0.87963396 
0.8093254 0.13316004 0.57206726 
0.36745238 0.23060663 0.9009991 
0.58321553 -0.010527908 0.8122492 
-0.23635595 0.9714937 -0.018331744 
-0.09742682 0.8579851 0.5043507 
0.16934395 0.98339653 0.06522297 
0.31958756 0.94625634 -0.04962585 
0.5502625 0.67960984 0.48512024 
0.76347756 0.49835965 0.41077933 
0.9965988 0.081496686 0.012216488 
0.6648334 0.0802831 0.74266493 
0.8214155 -0.102608055 0.5610243 
-0.21224402 -0.18163542 0.96018803 
-0.3762645 -0.42006806 0.82581353 
-0.15017095 0.7369215 0.6590868 
-0.9381508 -0.019569924 0.34567332 
-0.20160748 0.1815427 0.9624951 
-0.15481113 0.26485527 0.95178 
0.021695634 0.046823416 0.99866754 
-0.6527139 0.31221268 0.69028103 
-0.8774207 0.35341504 0.32439288 
-0.85417145 -0.11849944 0.5063094 
-0.5186967 0.46944195 0.7145475 
-0.9767113 -0.02813037 -0.212706 
-0.41258729 0.7856407 0.46102124 
-0.075448066 0.99660033 0.03309794 
-0.42145333 0.8426923 0.3350327 
-0.6651597 0.5166788 0.5390785 
-0.872713 0.4621282 0.15751061 
-0.30860752 0.93918395 0.1506483 
-0.33266032 0.6103601 0.7188865 
0.17061919 0.76827914 0.6169573 
0.19196601 0.7424105 0.6418534 
-0.24732652 0.6139274 0.7496151 
0.081299804 0.13655227 0.98729116 
0.43476957 -0.042970482 0.89951605 
0.413348 0.2595435 0.87280047 
0.052095443 -0.19733365 0.9789513 
0.33619788 -0.0043464857 0.9417814 
0.5112879 0.546259 0.663465 
0.19012387 0.40038854 0.8964051 
0.47002295 0.2114166 0.85696065 
0.44266966 0.054400817 0.8950331 
0.6267768 0.18927088 0.755862 
0.039425917 0.9640904 0.26263145 
-0.2392641 0.6719994 0.7008349 
-0.7223404 0.19662893 0.6629943 
-0.871706 0.3135997 0.3765419 
-0.86416245 0.41764376 0.28070804 
-0.5434236 0.6137356 0.5727299 
-0.4227624 0.9008218 -0.098955795 
-0.37022054 0.9175175 -0.14525366 
0.36737224 0.8922419 -0.26256847 
0.4017369 0.6728134 0.6212324 
-0.08257318 0.3089024 0.9475025 
-0.43308705 0.50221395 0.7484763 
-0.09733475 -0.034412388 0.9946566 
0.1744808 0.34074485 0.9238233 
0.32016343 0.2554374 0.9122758 
0.702926 0.42857346 0.5676441 
0.8666233 0.30130902 0.39771488 
0.4612295 0.6847338 0.5642756 
0.2516304 -0.02128984 0.9675892 
-0.17621674 0.7549785 0.631629 
0.12063241 0.21031117 0.97016346 
-0.5020442 0.6354443 0.5866535 
0.22844256 0.66540694 0.7106671 
-0.08079772 0.7544413 0.6513755 
0.13274303 0.9272584 0.35010195 
0.8758108 0.43225062 0.21474355 
0.5372461 0.6338483 0.55641985 
0.7341526 -0.2610001 0.6268165 
0.708684 0.36218208 0.60546774 
0.28208473 0.4524119 0.8460211 
0.1887727 0.08674152 0.97818244 
0.22602262 0.29249004 0.9291735 
-0.5360116 0.6678797 0.5163607 
0.55132335 0.8070603 0.21141516 
-0.03486569 0.5030221 0.86357003 
-0.20057777 0.609508 0.76698667 
-0.74874187 0.6486324 0.13660789 
-0.33551088 0.90224415 0.27090213 
0.24531035 0.9421355 -0.22848105 
0.3734615 0.9195054 0.12262267 
0.018670432 0.9802038 0.19710939 
-0.32688352 0.94380546 0.048770066 
0.110711046 0.9264219 0.35984114 
0.029078815 0.2579133 0.96573037 
0.67740166 0.23958611 0.6955039 
0.47485104 0.32734302 0.816923 
-0.28745452 0.41946703 0.8610559 
0.4631691 0.5347623 0.7067558 
0.8257755 0.020369198 0.563631 
0.3114754 0.015062731 0.9501348 
-0.07723469 0.19927123 0.97689605 
0.03523982 -0.38947642 0.920362 
0.18393806 -0.49930033 0.84667933 
0.32222733 -0.21700536 0.92145437 
0.027346289 0.19315562 0.980787 
-0.19787002 0.36347717 0.9103471 
-0.2762093 -0.36846688 0.8876602 
0.36424974 -0.3376951 0.8679195 
0.22116347 0.36025745 0.90625685 
-0.075792685 0.014025208 0.99702495 
0.0006704326 0.4332037 0.90129584 
-0.5967685 0.25527814 0.76072365 
0.095211506 0.5025685 0.8592787 
-0.50672865 -0.1348012 0.8515014 
0.30155018 0.9377004 0.17258509 
0.7627428 0.5800676 0.28591102 
0.9481644 0.006864303 0.31770623 
0.7559306 0.46993235 0.45577693 
0.46839768 0.060241967 0.8814616 
0.48364085 0.47284636 0.7365514 
0.12185886 0.27844113 0.95269144 
0.19360307 0.6039313 0.7731654 
-0.048281573 0.030534113 0.99836695 
0.18666019 0.23702744 0.9534023 
-0.22269075 0.3000181 0.9275764 
-0.26468652 0.8583029 0.43961048 
-0.18727387 0.8706524 0.45485482 
-0.23888347 0.8274461 0.5082006 
0.31953534 0.0552048 0.94596493 
-0.02906049 0.18408349 0.98248094 
-0.40763536 0.34282833 0.84634644 
-0.16930677 0.27805603 0.9455264 
0.13462521 0.9205888 0.36659572 
-0.043654446 0.7477243 0.66257286 
0.2327679 0.97172153 0.039705437 
-0.047775947 0.8595153 0.5088721 
-0.25947127 0.37095404 0.8916658 
-0.07342432 0.035705436 0.9966615 
-0.049200565 -0.004128649 0.9987804 
0.012112619 -0.20657867 0.97835505 
0.12335512 0.074728124 0.9895449 
0.49336246 -0.49658316 0.7141419 
0.21054016 -0.557983 0.80270034 
0.16165125 -0.71296346 0.68231374 
0.04624624 -0.7746113 0.6307445 
-0.21654215 0.17487708 0.96048295 
-0.37461096 0.36225274 0.8534867 
-0.83211935 0.38012365 0.40383598 
0.29498282 0.109957226 0.9491546 
-0.047251802 0.11806207 0.99188143 
-0.3610921 0.19916905 0.9110128 
-0.48162073 0.5405921 0.6897838 
-0.6377455 0.039854493 0.7692154 
0.014578969 0.6654596 0.7462915 
0.5878132 0.19236393 0.7857937 
0.67635447 -0.39190593 0.6236622 
0.3242812 -0.059096668 0.944113 
0.5755476 0.24929959 0.7788419 
0.099186465 0.3840145 0.9179842 
-0.52662677 0.7362257 0.4250129 
-0.1928303 0.921718 0.33653 
-0.0482113 0.73628974 0.6749468 
-0.2712764 0.8918286 -0.36200935 
0.43733037 -0.30555493 0.8458004 
0.3854183 0.23116028 0.89331836 
0.09766454 -0.06727974 0.99294263 
-0.015001672 0.46195886 0.88677454 
-0.09338439 0.52703375 0.8446982 
0.03069655 0.035763443 0.99888873 
-0.64057714 0.23024473 0.7325629 
-0.38821507 0.77140206 0.50421035 
0.46995616 0.4592486 0.75381154 
0.6895245 0.13769151 0.71105355 
0.64967644 0.025427792 0.75978553 
0.33660755 0.29887405 0.89295566 
0.022300204 0.8199022 0.57206917 
-0.037688047 0.3814111 0.923637 
-0.48949692 0.55863875 0.6695637 
-0.076579124 0.38872707 0.918165 
0.4918272 0.7207497 0.48849365 
0.7000988 0.5841432 0.41065606 
0.14624879 0.90737635 0.39405537 
0.30052957 0.6602307 0.68831503 
0.52206904 0.83113045 -0.19148399 
0.6314005 0.7069144 0.3187561 
0.28733137 0.009057815 0.95778847 
-0.5074908 0.21717194 0.83384013 
-0.36916527 0.2561861 0.89335644 
-0.7417349 0.07031766 0.66699684 
-0.33378866 -0.12601459 0.9341871 
-0.14311974 0.5279579 0.8371244 
-0.099647574 0.98746216 -0.12242963 
0.20133431 0.6694459 0.71505713 
0.19227117 0.8094764 0.5547791 
-0.14555766 0.83432823 0.5317042 
-0.039369244 0.7479674 0.66256684 
0.08783526 0.32758588 0.9407298 
-0.5587119 -0.15837315 0.81410015 
-0.5043403 -0.06447959 0.8610942 
-0.7114869 0.2403716 0.660309 
-0.21596637 0.9365198 -0.2762052 
0.042582482 0.9530994 -0.29964712 
0.2383644 0.96349925 0.1218679 
0.5980248 0.80127037 -0.018230524 
0.6613892 0.21574181 0.7183452 
0.86120296 0.07591418 0.5025599 
0.85593385 0.27409503 0.43846226 
0.8655881 0.16009086 0.47447672 
0.4365954 0.70735294 0.5559104 
-0.031185811 0.5881593 0.8081436 
0.37251252 -0.00874974 0.92798597 
-0.72845304 0.37209246 0.57524204 
-0.32043532 0.52360475 0.7894044 
-0.2451653 0.9684569 0.044556554 
-0.64232737 0.7177693 0.26874292 
-0.531509 0.8386778 0.11881794 
0.06162897 0.22666675 0.9720206 
-0.4480879 -0.06584999 0.8915611 
-0.8869697 0.38413543 0.25636855 
-0.109789155 -0.6826408 0.7224596 
-0.57764554 -0.49604774 0.64827645 
-0.1258552 0.36570647 0.9221818 
-0.24076946 0.28132397 0.9289171 
-0.014899254 0.68784666 0.7257032 
0.45964462 0.054546565 0.8864263 
0.26421982 -0.18615673 0.9463264 
-0.40808332 -0.19357274 0.89218706 
-0.6581594 -0.115139745 0.74402225 
-0.23744458 -0.36152735 0.9016197 
-0.55847335 -0.39712244 0.7282866 
-0.13514508 -0.7958691 0.5901934 
-0.4379602 -0.106884524 0.89261794 
-0.014037572 -0.39893797 0.91687053 
0.342763 -0.46813047 0.8144737 
0.25338164 -0.20990637 0.94431835 
0.14716409 0.5261364 0.83756983 
0.50717556 0.61343586 0.6053672 
0.62396073 0.7165066 0.31191555 
0.9040476 0.27018502 0.33120686 
-0.1851698 0.91123563 0.36791557 
0.14276505 0.4156294 0.8982597 
0.19548763 0.3074813 0.93125725 
0.3363651 0.029581534 0.941267 
-0.3632146 -0.18132627 0.9138906 
-0.050735712 -0.5095326 0.85895425 
-0.035339482 -0.10655422 0.9936787 
-0.38718292 -0.24998268 0.8874673 
-0.33180436 0.17696652 0.9266007 
-0.5918606 -0.0079004755 0.8060017 
-0.4152388 -0.07131457 0.9069129 
-0.33617914 0.400366 0.8524615 
-0.40750423 0.75996643 0.5063512 
-0.5953212 0.7305476 0.334504 
-0.6037854 0.40231174 0.6881777 
0.1047517 0.28884786 0.95162714 
0.05929938 0.56361806 0.82390434 
-0.9300606 0.32944316 0.16264836 
-0.4116654 0.19286424 0.89069355 
-0.16714701 0.022092246 0.98568445 
-0.14921057 0.6334329 0.7592753 
0.07658862 0.86552286 0.49497914 
0.19440235 0.2591919 0.9460588 
0.1292211 0.28872323 0.94865215 
0.15751752 0.35317332 0.92220217 
0.7869987 0.41752958 0.4542051 
0.09323303 0.8766262 0.47205314 
-0.0038546042 0.29271984 0.95619047 
0.107563145 0.9225712 0.37053022 