# OOMMF: rectangular mesh v1.0
# Segment count: 1
# Begin: Segment
# Begin: Header
# Desc: Time (s) :  1.2999999999999997e-07
# Title: m
# meshtype: rectangular
# meshunit: m
# xbase: 2e-09
# ybase: 2e-09
# zbase: 5e-10
# xstepsize: 4e-09
# ystepsize: 4e-09
# zstepsize: 1e-09
# xmin: 0
# ymin: 0
# zmin: 0
# xmax: 1.024e-06
# ymax: 1.024e-06
# zmax: 1e-09
# xnodes: 256
# ynodes: 256
# znodes: 1
# ValueRangeMinMag: 1e-08
# ValueRangeMaxMag: 1
# valueunit: 
# valuemultiplier: 1
# End: Header
# Begin: Data Text
0.96305823 0.19913019 0.18128991 
0.22978202 -0.25776932 0.93848556 
0.169113 -0.11185174 0.9792293 
0.13142605 -0.53778416 0.8327758 
0.7473279 -0.3469071 0.5667068 
0.19836897 0.017356964 0.9799738 
0.06755124 0.61626685 0.784635 
0.19378805 0.97459066 0.11233567 
0.32182893 0.7970452 0.51102376 
0.5336196 0.7495936 0.39161143 
0.08760975 0.92230606 0.376399 
0.05869786 0.9978959 -0.027539235 
-0.9142629 0.21539491 0.34311587 
-0.8636581 -0.00400123 0.50406224 
-0.07231325 0.85833246 0.5079728 
0.17214325 0.9621316 -0.21135174 
0.7657515 0.6227638 -0.1605927 
0.8930318 0.4496721 0.017008772 
-0.48162356 0.5495057 0.6827021 
0.2866608 0.5575623 0.77906984 
0.4397337 0.8366211 -0.3266486 
0.7477004 0.27443993 -0.6046709 
-0.7852537 0.5711617 0.239063 
-0.012332366 0.6770614 0.7358233 
-0.22191167 0.76340157 0.6066079 
-0.5399639 0.69244623 0.47849473 
-0.6868287 0.47657183 -0.5487675 
-0.24616396 0.7532253 0.609963 
0.5216631 0.71008646 0.47291103 
-0.12360577 0.7996325 0.58763045 
-0.20025401 0.93104637 0.30504265 
-0.7064681 0.39522153 0.587114 
-0.61384475 0.7364288 -0.2843718 
-0.84867316 0.5262322 -0.05323051 
-0.91493225 -0.10689516 0.38919446 
-0.91478044 0.09425101 0.39280212 
-0.03556235 -0.6593894 0.75096005 
-0.35996798 -0.15039925 0.92076236 
-0.07175228 0.02613364 0.9970801 
-0.27191445 0.027682744 0.96192324 
-0.26989716 0.075864 0.95989597 
0.33873287 0.75940204 0.55548954 
0.18681638 0.89057034 -0.41470963 
0.22211221 0.9297969 0.29350293 
0.42361706 0.8521412 -0.3072525 
0.421702 0.8992642 -0.11615185 
-0.05168277 0.7340184 0.67716026 
0.14260764 0.96177095 0.23379439 
0.29376686 0.75383794 0.5877324 
0.4514696 0.1794972 0.87404585 
0.22759058 0.8638964 0.4493166 
0.33543262 0.6402177 0.69109064 
0.35185397 0.58984375 0.72683096 
0.57536536 0.3670703 0.7308996 
0.41952354 0.89334375 0.16104987 
0.57716817 0.7299387 -0.36615086 
0.26584363 0.95819664 -0.10576611 
0.44781384 0.5922164 -0.66988254 
-0.6539685 0.75421774 -0.058998406 
0.23750016 0.9301121 -0.28015187 
0.14003752 0.7445124 -0.6527564 
0.77129024 0.46055105 0.43932226 
0.66053677 0.714379 0.23098458 
-0.09673907 0.96023655 0.26189217 
-0.96437234 0.17016421 -0.20255944 
-0.5812032 0.7207398 -0.3778055 
-0.019431572 0.94162333 -0.336107 
-0.31735596 0.43707672 0.84157544 
0.062079236 0.89538693 0.4409405 
-0.26189113 0.8898387 0.37363088 
-0.765859 0.48674133 0.42017022 
-0.5164506 0.57196975 -0.6372829 
-0.22025077 0.8686239 -0.4438267 
0.24308695 0.6885778 0.68320537 
0.8595278 0.4302577 0.27584472 
0.45399037 0.88976747 0.0469737 
0.47796273 0.86358 -0.16056576 
0.26028416 0.6767094 0.68870646 
0.22019958 0.33177012 0.9173008 
0.6137116 -0.23472115 0.753833 
0.0016843373 -0.61329174 0.78985476 
-0.02863193 0.99643016 -0.0794175 
0.2957584 0.7295847 -0.6166305 
0.34231344 0.78448063 0.5171188 
-0.118527904 0.04384018 0.99198246 
-0.21773742 0.45968345 0.8609772 
-0.6296343 0.68424296 0.36792973 
-0.61934 0.67750037 0.396751 
-0.4464705 0.8671351 0.22077304 
-0.71747583 0.29165292 0.6325877 
-0.77673376 0.3195303 0.5427569 
0.5065161 0.44505647 0.73848915 
-0.059289303 0.2409097 0.968735 
-0.107216045 0.3941375 0.91277623 
-0.13684782 0.76779675 0.6259081 
0.10295248 0.69512415 0.71147966 
0.10597261 0.3560771 0.9284282 
-0.20300037 0.01751227 0.9790221 
0.708811 -0.2959121 0.64033043 
0.24191187 0.19959201 0.9495482 
-0.0055702287 0.56306607 0.8263931 
0.37107655 0.41535333 0.8305322 
-0.12526529 0.41748917 0.90000635 
0.14999035 0.68523234 0.7127128 
-0.09092828 0.8052753 0.5858873 
-0.8009338 0.5448644 0.24824949 
-0.9598609 0.25906268 -0.10748747 
0.23668237 0.77457696 -0.5865255 
0.07991124 0.8585657 0.5064377 
0.54586923 0.5142366 0.661504 
0.4626939 0.40174028 0.79026514 
0.28227592 0.038548134 0.9585585 
0.62314016 -0.0524328 0.78035074 
0.3120853 -0.3230768 0.8934339 
0.42776966 0.7177269 0.5494372 
0.23346785 0.1262791 0.9641299 
0.52841896 -0.0081848875 0.84894425 
0.1493759 -0.36135605 0.9203851 
0.30579552 -0.48652115 0.81840473 
-0.04302968 0.6290513 0.77617204 
-0.38136214 0.1646115 0.9096516 
-0.51349354 -0.3266397 0.7934928 
-0.541041 0.5560923 0.6309009 
-0.7707594 0.6004632 0.21301128 
-0.70110834 0.5502429 0.4535195 
-0.40060255 0.6465876 0.64918584 
-0.13616273 0.5841205 0.8001644 
-0.37012756 0.91789436 0.14309296 
-0.83916 0.48432297 0.24747077 
-0.22365318 0.6526937 0.72385794 
-0.49664977 0.86346984 0.088084415 
-0.6240667 0.70502645 -0.33686578 
-0.75858164 0.64091927 -0.11737347 
-0.37542439 0.9208305 0.10548867 
0.1653184 0.9862376 -0.002302615 
0.34050006 0.117435835 0.93288183 
-0.03990846 -0.0071239877 0.99917793 
0.83183473 -0.072333254 0.55029 
-0.15144204 0.19525583 0.9689894 
-0.9279204 0.26556692 0.26160643 
-0.8237375 -0.057813093 0.56401616 
-0.74664783 0.20918424 0.6314737 
-0.8176325 0.5267748 -0.23234743 
-0.24137455 0.5892869 -0.77102494 
-0.22638595 0.78739065 -0.5733807 
0.0017548269 0.42754376 -0.90399295 
0.47930205 0.5471241 -0.68623966 
0.9807324 -0.16698386 0.101392515 
0.8375424 0.2200844 0.50008565 
0.015978083 0.14787468 0.98887706 
0.41241667 -0.3688142 0.8329998 
0.51993346 0.32053286 0.79178786 
-0.032311574 0.46943346 0.88237643 
0.13911304 -0.48188314 0.8651222 
0.43154848 0.013688906 0.901986 
0.32897443 0.65441483 0.680821 
-0.036935583 0.75324947 0.65669715 
-0.42110553 -0.16875412 0.89117455 
-0.5439831 0.3552191 0.76019853 
-0.7312783 0.51676327 -0.44518292 
0.44313586 0.89120984 0.096828565 
0.048687883 0.32323998 0.9450637 
0.18618779 0.2455011 0.9513481 
-0.874531 0.3445289 -0.34131423 
-0.32990003 0.3261031 -0.8859023 
0.20462483 0.9675176 -0.14845365 
0.2767784 0.91109794 -0.30544123 
0.7788857 0.3199129 -0.5394374 
0.25833973 0.22148223 -0.9403224 
0.83451825 0.52188826 0.17666915 
-0.17653765 0.24897519 0.9522845 
-0.85038656 0.2805243 -0.4451392 
0.4589938 0.8640017 0.2069438 
0.247238 0.6721199 0.6979458 
-0.6577971 0.4044994 -0.6353607 
-0.23364991 0.66649115 0.707953 
0.7282783 0.6842672 0.037272092 
0.7535973 0.652786 0.07721087 
-0.42508847 0.9044863 -0.03470418 
-0.36031666 0.9205264 -0.15100722 
-0.51028246 0.5103933 -0.6921782 
-0.61983037 0.68044823 0.39089724 
-0.9196542 0.370024 0.13159981 
-0.17730506 0.7718556 0.61057514 
0.23153028 0.566227 0.7910631 
-0.42716938 0.031044269 0.9036385 
-0.52890396 -0.14718466 0.83582133 
-0.9978867 -0.064769335 0.005209751 
-0.47974935 -0.70538384 0.521799 
-0.947494 0.02832673 0.31851667 
-0.7492022 0.22600158 0.62259084 
-0.6186993 0.5212229 0.58782476 
0.3338656 0.9213688 0.19903137 
0.1985781 0.9351109 0.29348627 
0.8507947 0.5048052 0.14601493 
0.8045142 -0.012383861 0.5938043 
0.9211062 0.22285339 0.3192174 
0.5638627 0.8214294 0.085514374 
0.7643423 0.5660979 0.30872965 
0.733926 0.2570944 0.6286933 
0.57397544 0.6394143 0.51156783 
0.28558803 0.95307565 -0.10043141 
0.20614733 0.765478 0.60954636 
-0.11639075 0.31500375 0.9419267 
0.27479592 0.951566 -0.13787499 
-0.06785185 0.8247088 0.56147265 
-0.03903454 0.9728561 0.22809526 
-0.11975793 0.9633793 0.23991334 
-0.6141351 0.462964 0.63914204 
-0.25734848 0.47477365 0.8416424 
0.52387553 -0.48072642 0.70317614 
0.5466556 0.34585136 0.7625973 
-0.34261745 0.50983185 0.7891038 
-0.4670871 -0.14803676 0.87173086 
-0.084551714 0.2246383 0.97076714 
0.26466894 -0.10320923 0.95880044 
0.06562178 -0.11467936 0.9912328 
-0.40119126 0.8020942 0.442369 
0.23070164 0.7760053 0.58702004 
0.27726594 0.6679013 0.6906747 
0.43287444 0.38171396 0.8166481 
-0.22838055 0.9685356 -0.098900564 
-0.6457386 0.69853055 -0.30834538 
-0.064835094 0.9347345 -0.34938213 
0.79269665 0.6094183 -0.015539743 
0.49356234 0.78286654 0.37883547 
0.16591996 0.0076959194 0.9861092 
-0.39344144 -0.30029878 0.8689215 
-0.18757397 0.27916604 0.9417443 
0.2570892 0.7546398 0.60367537 
-0.60460705 0.6655292 0.43763137 
-0.30368796 0.45387807 0.8377163 
-0.76272297 0.6230362 0.17343453 
-0.7667727 -0.12588383 0.62945455 
-0.8070419 -0.09316082 0.5830992 
-0.1566325 0.39964357 0.9031896 
-0.25327304 0.32442078 0.91137475 
0.21241261 0.20140322 0.95619965 
-0.7442935 0.017745042 0.66761696 
0.4040061 0.91207546 -0.06998225 
0.46241617 0.59067655 0.6612659 
-0.06310587 0.7525828 0.6554669 
0.57781184 0.044835385 0.8149376 
0.49756086 0.6410842 0.58433235 
0.22883959 -0.1370526 0.9637682 
-0.29312915 0.5365176 0.79134333 
-0.34829012 0.58462095 0.7327431 
-0.115803175 0.5826747 0.80441284 
-0.64854395 0.4993411 0.57449925 
0.048737913 0.6260729 0.77823997 
0.22739103 0.42980435 0.8738202 
-0.29643723 0.3193275 0.90008605 
-0.80323875 0.563789 0.19222271 
-0.7293359 0.58063304 -0.36184865 
-0.34978178 0.7618752 0.54515964 
-0.85222805 0.4841288 0.19830973 
-0.08367035 0.6284102 0.7733692 
-0.1227238 0.70774394 0.695728 
0.10088291 0.23818451 0.96596634 
0.3139036 -0.236495 0.9195297 
0.27120957 -0.09998725 0.9573129 
0.43696725 -0.1327616 0.88962585 
0.26536027 0.360102 0.8943772 
0.08889097 0.34216684 0.9354252 
-0.018200142 0.55811983 0.8295608 
0.02454256 0.021766324 0.9994619 
-0.43377522 0.8620011 0.26228434 
-0.6802358 0.6873186 0.25470057 
-0.68521976 0.55826086 0.4677806 
-0.3217529 0.39796293 0.8591278 
0.52057415 0.55055076 0.65260744 
0.17972617 0.9418911 0.2837954 
0.3176313 0.84203 0.4359999 
0.62524354 0.4175517 0.6593339 
-0.18257026 0.26429868 0.9470028 
-0.19202073 0.909572 0.36851984 
-0.2251251 0.9551215 0.19251409 
-0.9504967 0.24166457 -0.19533178 
-0.8107471 0.19484216 0.55201983 
-0.47595516 0.50809026 0.71785176 
-0.28574905 0.6707397 0.6844383 
-0.5957391 0.4762927 0.64671504 
-0.25791314 0.9422773 0.21352853 
0.30526885 0.69381195 0.6522545 
0.13236602 0.83624446 0.53214145 
0.28920007 0.95710546 0.017678546 
0.17976253 0.67872643 0.7120505 
0.08199813 0.80829287 0.5830429 
-0.34754488 0.9316122 -0.106354654 
-0.5692081 0.8189586 0.07286321 
-0.94085884 0.10832258 0.32101548 
-0.84823835 -0.10064443 0.5199639 
-0.27985266 -0.3506521 0.89371455 
-0.5192003 -0.46884814 0.71457154 
-0.45531827 0.07122 0.8874757 
-0.68241495 -0.17309585 0.71017444 
-0.2540471 0.0146929575 0.9670803 
-0.0917514 0.9035158 0.4186178 
0.34736133 0.72774416 -0.5913786 
0.26871228 0.7914629 0.54898125 
-0.005296363 0.8829755 0.4693892 
0.2997334 0.8973306 -0.32397202 
0.41282746 0.8894193 0.19623171 
0.43339142 0.7107606 0.55406797 
0.5582522 0.66121036 0.501154 
0.7815128 0.01828299 0.62362134 
0.49002236 -0.035645 0.87098074 
0.17436635 0.046350986 0.98358935 
-0.31032816 0.7285761 0.61063355 
0.5732162 0.5720421 0.586678 
0.19259241 0.5842626 0.78838164 
0.5754805 0.79998845 0.16982539 
0.68400604 0.64311177 -0.34430078 
0.53345585 0.4880826 -0.69079685 
0.27170604 0.9607861 -0.055370405 
0.5920779 0.80506325 0.036290392 
0.31135094 0.9500285 -0.022505559 
0.008737231 0.876096 0.4820574 
0.07302493 0.9964695 -0.041423142 
0.05764785 0.99824977 0.013198818 
-0.3487682 0.84538555 0.4045788 
-0.7260641 0.50790805 -0.46353042 
-0.9368364 -0.33063057 -0.11410976 
-0.7081988 0.67467904 0.20799714 
-0.048389435 0.9113176 0.4088506 
-0.17534824 0.85745734 0.48375624 
-0.49897617 0.84765273 -0.180299 
-0.16325119 0.9852444 0.05140584 
-0.33816063 0.9344353 -0.11170489 
0.70546424 0.57424736 0.41540378 
0.4960383 0.18487298 0.8483915 
0.48366043 0.49254635 0.7235128 
0.27396917 0.9278719 0.2529717 
0.2974536 0.42473423 0.8550569 
0.71957177 0.45379212 0.52563214 
0.20128396 0.5178335 0.8314646 
0.41803217 -0.8542996 0.30890352 
-0.89157057 0.3499494 0.2874675 
0.028026225 0.9995179 0.01336257 
0.012655933 0.5758299 0.8174715 
-0.060347833 0.82751983 0.55818385 
-0.23154224 0.89747006 0.375414 
-0.22068356 0.6062116 0.7640722 
-0.47634056 0.79997814 0.36487615 
-0.10764894 0.969489 0.22023395 
-0.5811517 0.8128 0.04023613 
-0.3773717 0.70899093 0.5957537 
-0.30699944 -0.11768049 0.94440603 
-0.15631211 0.26249453 0.9521887 
-0.7015041 -0.08441176 0.7076487 
-0.20040701 0.64950955 0.7334674 
0.21134704 0.18787943 0.9591839 
0.5026101 0.6604757 0.55781275 
0.26427475 0.62990785 0.7303253 
-0.029859412 -0.24097313 0.9700724 
0.42315948 -0.023385571 0.9057535 
0.51606333 0.4156471 0.7489434 
0.48199025 -0.11080638 0.8691417 
0.019427102 0.17039384 0.98518455 
0.2353129 0.9001751 0.36648694 
0.33090538 0.0020121578 0.9436618 
-0.44186786 0.32871452 0.8346854 
-0.051171824 0.71325576 0.6990334 
-0.04900422 0.7220218 0.6901327 
-0.07673657 0.4651507 0.8818993 
0.003222343 0.6824729 0.7309039 
-0.10955332 0.8273285 0.5509316 
0.29287675 0.09646183 0.951272 
0.21785603 0.25035098 0.94332564 
0.7985934 0.108825296 0.59195083 
-0.3109455 -0.0028366782 0.9504235 
-0.42715853 -0.14118433 0.893086 
-0.1631281 -0.1004686 0.98147607 
-0.3126279 -0.41067564 0.85651 
0.49538866 0.5042416 0.70734054 
0.5721486 0.0009324186 0.82014954 
0.09813902 0.28366968 0.9538869 
-0.49674064 -0.14467326 0.8557561 
-0.13057518 0.7434315 0.65594196 
-0.5542334 0.13665055 0.82106763 
-0.5108899 0.69841874 0.5012014 
-0.5701763 0.70721734 0.41802225 
-0.4312313 0.7545198 0.49471152 
-0.40780187 0.8950994 0.18026292 
-0.37998158 0.7203932 0.5802136 
-0.06579464 0.85076106 0.5214182 
-0.6826424 0.19486345 0.70429236 
-0.9309048 0.2918143 0.21968338 
-0.05920994 0.5751783 0.8158824 
-0.15699333 0.46631724 0.8705753 
-0.21230316 -0.23700956 0.94802636 
-0.14143479 -0.036916643 0.989259 
0.25824216 0.40928745 0.875097 
0.0037572903 0.45439777 0.890791 
-0.41031396 0.26936308 0.8712554 
-0.89618266 -0.21836247 0.38623112 
-0.937062 -0.16525322 -0.3075814 
-0.68307334 0.49877116 0.53351504 
-0.84079874 0.19599839 -0.5046209 
-0.11511549 0.88457376 -0.45197096 
0.11023568 0.41085878 -0.90501004 
0.19517225 0.12952659 -0.9721783 
0.77260643 0.35147467 -0.52872014 
0.9834796 0.17181243 -0.05699547 
0.7457642 0.055481598 0.66389585 
0.36875468 -0.2807506 0.88611466 
0.20061937 0.3723704 0.90614134 
0.5416869 -0.35815862 0.760459 
0.6938968 -0.10560912 0.71228796 
0.08488167 -0.011335134 0.9963266 
0.03300293 0.56306267 0.825755 
-0.2521458 0.66797805 0.7001628 
-0.27800238 0.65980357 0.6981217 
-0.22877307 0.93173456 0.28201705 
-0.19075067 0.23061708 0.9541645 
-0.07324131 0.37215585 0.9252761 
-0.029156202 0.35849538 0.93307614 
0.3974221 0.44134566 0.8045308 
0.15900837 0.5940659 0.78854436 
-0.65405595 0.6787747 0.33388 
-0.016955871 0.7239505 -0.68964356 
0.35968632 0.8505516 -0.3836504 
0.8748888 0.46590087 0.13231044 
-0.6442109 0.7632377 -0.049605478 
0.5782703 0.78028405 0.23824406 
0.7560468 0.46001726 0.4655937 
0.57776994 0.36523488 0.7299216 
0.24992843 0.6399721 0.72661656 
0.24317694 0.5815507 0.77631414 
0.35140815 0.6014476 0.71747696 
0.29627237 0.6309427 0.71703136 
-0.26484156 0.8688038 0.41837668 
0.27195755 0.9615 -0.0394588 
0.3875271 0.3214979 0.86398023 
-0.7520325 0.116263315 0.64879125 
-0.15229 0.8315857 0.5341096 
-0.6563862 0.71119833 0.2517025 
-0.3455613 0.9083857 -0.23542069 
-0.4175807 0.7822981 0.4622081 
-0.38645047 0.63838005 0.6656779 
-0.5856637 0.24863043 0.7714797 
-0.32193238 0.2824445 0.9036507 
-0.23408769 -0.17163375 0.95694566 
-0.23845871 0.055576943 0.96956116 
-0.46858072 -0.029899908 0.8829146 
-0.585019 0.111219354 0.80335736 
-0.9982371 0.040941592 -0.04297388 
-0.7915366 -0.3270522 0.5162428 
0.42494652 0.5556022 0.7146514 
0.31012487 0.9289286 0.20227289 
0.46913365 0.70480525 0.5321308 
0.165561 0.780745 0.60251707 
0.89505386 0.28160557 0.34579903 
0.43691328 0.5585924 0.70504 
0.4619277 -0.34073508 0.8188543 
0.31900123 0.45650953 0.83056456 
0.4445283 0.36630586 0.81744397 
0.49123025 0.5080659 0.7075041 
-0.25715065 0.76375437 0.592075 
0.35919365 0.5680924 0.7404397 
0.7093133 0.4023134 0.578808 
0.5086868 0.5627816 0.65154797 
0.4787664 0.12928201 0.8683714 
0.40013385 0.8881725 0.22592616 
-0.49390945 0.3749617 0.7845109 
-0.32344538 -0.5268691 0.7859976 
-0.46927774 -0.5504962 0.6904581 
0.5137865 -0.3247543 0.7940769 
-0.19765358 -0.07172469 0.97764444 
-0.8363674 0.08925148 0.5408547 
-0.09504362 0.053074487 0.99405724 
-0.19099522 -0.16488762 0.96764296 
0.37259603 -0.2710244 0.8875348 
-0.22138627 0.9182526 0.32832965 
0.100264005 0.07783628 0.9919117 
0.5257277 0.39791232 0.75184864 
-0.35687715 0.3260122 0.8754169 
-0.19781968 0.93382335 0.29806253 
-0.4928192 0.82471734 0.2774358 
0.15625367 0.9863255 -0.052409902 
0.633527 0.7112465 0.30458513 
0.19085945 0.6114379 0.76793 
0.077981524 0.27648115 0.9578503 
-0.5450782 -0.10171016 0.8321928 
-0.44428578 0.69858027 0.56088847 
0.3786356 0.46854195 0.7981877 
0.025519002 0.5332698 0.84556025 
-0.19570768 -0.20684458 0.9586 
-0.5820384 -0.48013324 0.6562801 
-0.5551144 0.2949946 0.7777058 
-0.38028505 -0.32665503 0.86526287 
0.6075615 0.15546912 0.77890843 
0.69229835 0.53624094 0.4828754 
-0.559104 0.4160496 0.717151 
0.052369617 0.9571361 0.284865 
0.36996132 0.6481816 0.66557443 
-0.27727717 0.50213563 0.8191319 
0.06618569 -0.14699708 0.9869202 
-0.2250174 -0.047954947 0.97317404 
0.83413804 0.23333682 0.4997676 
0.116856895 0.070189215 0.99066544 
-0.14198318 0.5719943 0.8078758 
-0.10925686 0.91252863 0.39415044 
-0.070036784 0.6432328 0.7624607 
0.121973835 0.8765914 0.4655214 
0.13497034 0.75060415 0.6468204 
0.08346661 0.20048927 0.9761339 
-0.25771683 -0.51725703 0.8161049 
-0.46851316 0.737491 0.48641804 
-0.8739176 0.4609404 0.15427952 
-0.86135817 -0.11360809 0.49513164 
-0.8366828 0.49070436 0.24325137 
0.20536065 0.16840877 0.96408796 
0.121981196 0.4679415 0.87530077 
-0.34783846 -0.37528154 0.85916954 
0.13264796 -0.39726105 0.9080685 
0.17053537 0.09724349 0.98054147 
-0.5083114 0.12850474 0.8515316 
-0.6533038 0.025510538 0.756666 
-0.18492447 -0.1779199 0.96651304 
0.23450392 0.7031826 0.6712244 
0.7018206 0.40793794 0.5839816 
0.15362644 0.78587306 0.5990014 
-0.5380384 0.42987913 0.72506464 
0.15067254 0.049137168 0.98736185 
-0.41183415 0.4063239 0.8156554 
-0.5096793 0.7897395 -0.3413773 
-0.08172944 0.8055188 -0.58690685 
0.28825843 0.9566113 0.042449605 
0.917879 0.39668396 0.011835389 
0.66132766 -0.021068601 0.7498012 
0.26559228 0.4075914 0.8736877 
-0.71776104 0.2610618 0.6454966 
-0.859185 0.035053756 0.51046306 
-0.3474315 0.66855884 0.6575108 
-0.0038905097 -0.0724073 0.99736756 
-0.096361525 0.06299211 0.99335116 
-0.4741871 -0.12086429 0.8720887 
-0.3161845 0.6596695 0.68180907 
0.116174035 0.66012424 0.7421184 
-0.17969064 0.19743857 0.963706 
0.27115417 0.8235058 0.49831083 
0.38011798 0.7642766 0.5209525 
0.31126004 0.650451 0.69284254 
0.13343821 0.7424946 0.6564268 
-0.6963154 0.6002306 0.393533 
-0.55540353 0.32938084 0.7635674 
-0.677158 0.57032186 0.46496242 
-0.4272012 -0.5372857 0.72720236 
-0.44017175 -0.7797876 0.4451742 
-0.5701217 -0.0063993237 0.8215353 
0.035203617 -0.49489087 0.8682417 
-0.303781 -0.0053140973 0.9527271 
0.03912208 0.6648698 0.7459341 
0.24560945 0.72436357 0.64418435 
-0.63264436 0.50853664 0.584082 
0.21055976 0.8202919 0.53177625 
0.30233833 0.70980597 0.6362131 
0.65902406 0.7514198 0.03248978 
0.66410035 0.3557316 0.6575909 
0.06684343 -0.26285604 0.9625169 
-0.27626613 0.015076094 0.96096295 
-0.6758008 0.020872006 0.73678875 
0.11418079 0.3308355 0.9367555 
0.07273562 -0.026127296 0.997009 
0.36973095 0.1301367 0.9199802 
0.37071356 0.5124653 0.77456504 
0.5532225 0.2791169 0.7848813 
0.5229321 0.22235796 0.82286024 
0.586196 0.68776715 0.4281947 
0.4228776 0.7649791 0.4857794 
0.2695766 0.75615996 0.5962807 
0.59970766 0.7130549 0.36318532 
0.34460038 0.9196103 0.18859395 
-0.2955907 0.76368237 -0.57394737 
-0.013102677 0.9123722 0.4091521 
-0.27063003 0.46790257 0.8413244 
-0.5104122 0.6765607 0.53079665 
-0.9655165 0.09316711 -0.24310075 
-0.42688024 0.46665132 0.77460295 
-0.21581008 0.6909593 0.6899285 
-0.17792927 -0.09814343 0.9791369 
-0.113787726 0.8933344 0.43474817 
-0.28409895 0.95413655 0.09439943 
0.21597914 0.92602247 0.30957317 
0.41766462 0.7707123 0.48120558 
0.7178684 0.48142502 0.5028867 
0.0560134 0.3165517 0.94692004 
0.22243771 0.9311966 0.288781 
0.21490198 0.86855555 0.44657415 
0.62036276 0.54787004 0.56123835 
0.47554284 0.5196862 0.70977837 
0.7616495 0.6421968 -0.08644897 
0.85838515 0.4111805 0.3067663 
0.90860456 0.41313988 -0.061263397 
0.6553891 0.7066332 0.26671115 
0.64324194 0.45240003 0.6177168 
0.07556676 0.5777198 0.81272966 
-0.20966896 0.18665513 0.959791 
-0.15102047 0.40779784 0.90049636 
0.47661567 0.82024175 0.31629297 
-0.5997332 0.49974868 0.6249571 
-0.61379516 0.48652685 0.62172914 
-0.5268341 -0.19566666 0.8271399 
-0.40499377 -0.4651379 0.78716373 
-0.5915395 -0.43305412 0.68010676 
0.14891098 0.63277835 0.75987965 
-0.3350532 -0.11802266 0.93477815 
-0.41854608 0.13024601 0.89880764 
0.36654925 -0.0734793 0.92749256 
0.7194723 -0.074776106 0.6904841 
0.4155859 -0.43937168 0.79639244 
0.036243137 -0.23811741 0.9705599 
-0.095748216 -0.7040148 0.70370126 
-0.22489548 -0.6750151 0.7026925 
0.4136277 0.41932476 0.808133 
0.2747764 0.8117321 0.5153533 
-0.3674907 0.72850466 0.5781276 
-0.21064337 0.85950744 0.4657 
-0.11051582 -0.022142317 0.9936277 
-0.34826246 0.41332415 0.841354 
0.10117483 0.3556981 0.9291085 
-0.07778437 0.5031106 0.8607145 
0.15411107 0.032184497 0.9875292 
-0.36753508 -0.013413173 0.929913 
-0.31518242 0.16171281 0.93515193 
-0.8503379 0.40467668 0.33639625 
-0.272602 -0.43637767 0.8574747 
-0.15147606 -0.77699006 0.6110167 
-0.6154404 -0.26331255 0.74289954 
-0.348692 0.5123702 0.784787 
0.31435558 0.56979525 0.7592851 
0.18758906 -0.09593477 0.9775515 
-0.5818935 -0.31761092 0.74868107 
-0.5008231 -0.23994577 0.83162636 
0.35513592 0.0518658 0.93337476 
0.06830928 0.17564107 0.9820815 
-0.29352987 0.9172489 0.2692486 
-0.19690843 0.50744057 0.8388869 
-0.13508148 0.849476 0.5100427 
-0.27954543 0.07066707 0.9575284 
-0.13122931 0.9151069 0.3812588 
0.37847134 0.7260962 0.57405907 
-0.119233266 0.84218794 0.5258356 
0.04562557 0.4381206 0.89775753 
-0.06890399 0.029093621 0.99719906 
-0.03993493 -0.42667338 0.9035238 
0.25773016 -0.70163053 0.6642965 
-0.28505173 -0.47703817 0.8313724 
-0.30192184 -0.37330592 0.8772035 
-0.039270494 0.3002366 0.95305604 
-0.26722416 -0.110984765 0.9572218 
-0.77972317 0.29018635 0.5548188 
-0.641407 0.7110792 0.28803384 
-0.45025396 0.8198401 0.35374245 
-0.38077345 0.8980391 0.22031176 
-0.5172132 0.6906056 -0.50552404 
0.97782606 -0.18605845 -0.096117295 
0.96320826 0.26354325 -0.052676722 
0.7353216 0.67763937 -0.010350926 
0.12511086 0.04910738 0.9909268 
0.82763016 -0.55098003 0.10700176 
-0.03653939 -0.3220393 0.9460209 
0.27121252 -0.49646056 0.8246035 
0.6220676 -0.062360484 0.7804762 
0.24078524 0.51024336 0.8256356 
-0.13630302 0.26475713 0.9546336 
-0.20318788 0.4685507 0.8597528 
-0.16487259 0.051679887 0.98496 
0.18099539 0.5762274 0.79699606 
0.48921376 -0.19812411 0.84936255 
0.18233392 0.110725805 0.9769822 
0.14088683 0.29709122 0.94439805 
-0.382016 0.30749285 0.87149984 
-0.50638235 0.6884372 0.51926017 
-0.62786585 0.39842403 0.6686126 
-0.42850575 0.88041186 0.20311996 
0.25543815 0.96461535 0.06533464 
0.45830086 0.8544097 -0.24483585 
-0.030490194 0.870921 -0.49047634 
0.8191542 0.48910242 0.2996085 
0.7690807 0.59220564 0.2404317 
0.89099056 0.43431863 0.13229996 
0.13520105 0.94027805 0.31240678 
-0.28977054 0.015381071 0.95697254 
0.51709765 0.7956521 -0.31551224 
0.31337574 0.942286 -0.11786728 
0.24623379 0.6829134 0.6877487 
0.09363789 0.17584762 0.9799539 
0.2835474 0.7215529 0.63163465 
0.67566895 0.331279 0.65857863 
0.34818792 0.63201153 0.69233423 
-0.51422244 0.46728712 0.7191788 
-0.62368864 0.71217215 0.3222163 
0.2039458 0.6668082 0.7167796 
-0.18372773 -0.24918461 0.95086867 
-0.032821476 -0.3795826 0.92457545 
-0.43740135 0.03692977 0.8985078 
-0.2180931 -0.163082 0.9622056 
-0.12559147 0.06635872 0.9898603 
-0.012316621 0.351864 0.9359701 
-0.26967293 0.8645808 0.42400092 
0.15125528 0.35889146 0.92104226 
0.22261305 -0.56065536 0.79756457 
-0.522172 0.34276822 0.7809266 
-0.036198184 0.4945076 0.8684193 
-0.37775344 0.49091998 0.7850478 
0.0060221716 -0.49965635 0.86620283 
0.25798312 -0.0035202592 0.966143 
0.023728969 0.78319377 0.6213249 
0.33426577 0.049645822 0.94117045 
-0.2577748 0.3913465 0.8834026 
0.6352725 0.3258525 0.70017785 
0.3972003 0.725035 0.5626332 
0.37801638 0.7835517 0.49310276 
0.1924761 0.19377623 0.96197915 
0.6921855 -0.2073577 0.6912901 
0.5365965 0.056897383 0.8419186 
0.09824317 0.26596922 0.9589623 
0.6664954 -0.12194964 0.7354673 
0.25382796 0.8590021 0.44462 
0.6267507 -0.5955216 0.5025312 
0.63567525 -0.10231707 0.7651459 
0.62102515 -0.6726866 0.40226933 
0.4054043 -0.24944854 0.8794446 
0.18978132 -0.8027065 0.5653719 
0.5153485 -0.40513003 0.7551725 
0.44626805 0.04452592 0.893791 
0.18974487 -0.17801528 0.9655608 
0.45275518 0.21508127 0.8653051 
-0.07592417 0.81264144 0.5777972 
-0.59369814 0.39775392 0.6995101 
-0.40857387 0.67502695 0.61433387 
-0.44676483 0.67290694 0.58957404 
0.4091208 0.67518336 0.6137977 
0.19898668 0.30455604 0.93147725 
-0.20682332 -0.031570695 0.9778688 
-0.1474093 0.7465427 0.6488024 
-0.0008781662 0.3680504 0.9298055 
-0.14412977 0.34355515 0.92800677 
-0.3102261 0.1499952 0.9387552 
-0.0066165766 0.14241822 0.98978454 
-0.40547666 -0.5902802 0.69796705 
-0.15350454 -0.41041914 0.89888406 
-0.6332381 0.17410614 0.75411975 
-0.27293015 -0.36354256 0.89069974 
-0.44326216 -0.2821721 0.85082173 
0.662266 -0.36202878 0.6560022 
0.3862246 0.15225378 0.9097524 
-0.022042584 0.7440864 0.6677198 
-0.5648909 0.41254047 0.7146388 
0.26122472 0.9619963 0.079528086 
0.58440155 0.6431399 0.4948191 
0.61712044 -0.4814017 0.6224266 
0.8168495 -0.42937344 0.38522112 
0.11710845 -0.12732257 0.9849237 
0.69378084 -0.13702439 0.70703083 
0.08837672 -0.104362756 0.9906049 
0.035632063 0.99809074 0.050450947 
0.34412098 0.6664775 0.66135365 
0.26179802 0.9141939 0.30937257 
-0.09819969 0.54940873 0.82976323 
-0.06451712 0.77993655 0.6225243 
-0.5583759 0.3545472 0.7500084 
-0.72453713 -0.121528104 0.6784371 
-0.77967006 0.49017495 0.3896706 
-0.6011223 0.5983781 0.52971274 
-0.7135786 0.14992917 0.6843442 
-0.19544458 0.25924224 0.94583035 
0.33049944 0.24872212 0.91044354 
0.2913707 0.22907178 0.92877835 
-0.35402185 0.2451879 0.90252507 
-0.49435169 0.43217173 0.7542175 
0.107055314 -0.6365656 0.7637561 
0.18320797 0.32114133 0.92914104 
0.5404964 -0.0035542755 0.8413389 
0.35636264 0.42910776 0.8299833 
0.11640802 0.40924305 0.9049693 
-0.18372807 0.48469824 0.8551677 
-0.44780514 0.22666076 0.8649251 
-0.25754845 -0.3780571 0.88923657 
-0.81764793 0.44922748 0.3600647 
-0.42700514 0.8493295 -0.31033215 
-0.35491067 0.93466073 0.021161808 
0.6619022 0.74069935 -0.115108795 
-0.22575238 0.7018348 0.67562115 
-0.009923253 0.596249 0.80273825 
0.41362214 0.4731449 0.77785003 
-0.004997804 0.1837644 0.98295766 
0.10018805 0.19914153 0.9748359 
-0.42646578 0.48967072 0.760493 
0.30087966 -0.31422293 0.90040857 
-0.19062054 -0.2527225 0.9485754 
-0.32265925 0.3661362 0.87283176 
-0.20295635 0.40668207 0.89074033 
0.09405029 -0.059150867 0.9938087 
0.17580616 0.084428675 0.9807977 
0.003744447 0.8304791 0.55703723 
-0.31139445 0.61788195 0.7219803 
-0.23646109 0.54269886 0.80595547 
-0.34957308 0.64403206 0.6804568 
-0.066626154 0.75344723 0.654124 
-0.09807528 0.5092655 0.8550029 
-0.52083766 0.5187449 0.6779616 
-0.40241826 0.39536083 0.8256812 
-0.716781 -0.28884006 0.63466245 
-0.3295588 0.0016438279 0.94413364 
-0.8227176 0.13976239 0.55100125 
-0.07486341 0.31232125 0.94702214 
-0.4547528 0.60194665 0.65639937 
-0.15793853 0.67977184 0.7162162 
-0.36207312 0.62207997 0.6942043 
-0.37396213 0.63858664 0.6725768 
0.12274619 0.6149602 0.77894634 
0.5639232 0.54085803 0.6240699 
0.26439214 0.055318635 0.9628275 
0.5649371 -0.026097156 0.8247212 
0.22059342 -0.31599346 0.9227604 
0.5513458 -0.08593575 0.82983917 
0.17925023 0.12932591 0.9752663 
-0.12863465 0.073505506 0.98896414 
-0.2577023 -0.36559424 0.8943883 
0.30544305 0.2114093 0.92844534 
0.7718783 0.2721705 0.5745669 
0.67743117 -0.41961047 0.60416406 
0.08565438 0.52550036 0.84647083 
0.1868225 -0.13599159 0.9729357 
0.17823727 0.37193766 0.9109852 
-0.28915644 0.38896435 0.8746973 
-0.2725112 0.7005157 0.65955704 
0.5800586 0.59604806 0.5552106 
0.089599386 0.79527414 0.59959245 
-0.12504274 0.98768055 0.0940821 
-0.98483825 0.13419293 0.10993615 
-0.43186307 0.85203576 0.29585373 
-0.33377376 0.39681458 0.85506326 
-0.7644559 0.44055 0.47066212 
-0.3833529 0.45929322 0.8013054 
-0.3908034 0.9204742 0.00041253265 
-0.40731257 0.91314024 -0.016475886 
0.06485083 0.99724543 -0.036000088 
0.3814006 0.9125465 0.14762305 
0.08834331 0.539223 0.83751667 
0.6667622 0.13605817 0.73274577 
0.095656395 0.102779604 0.99009407 
0.24458136 0.3462923 0.9056829 
0.02359584 0.32795957 0.94439703 
-0.3950999 0.29754373 0.86911666 
-0.36775154 0.08287539 0.9262238 
-0.1305911 0.7368257 0.6633506 
0.10223301 0.8582 0.503032 
-0.10364963 0.94163567 -0.32027945 
0.7751517 0.16966227 -0.60856766 
0.84890723 0.18084629 0.4966401 
0.015734782 0.023865575 0.99959135 
-0.17360178 0.1287494 0.9763637 
0.2019166 -0.102585584 0.9740154 
-0.5877829 0.50077456 0.6354024 
-0.8401038 -0.5255178 0.13437532 
-0.10902406 -0.59239846 0.7982342 
-0.7505531 -0.21424529 0.6251153 
-0.1706128 -0.61417925 0.7705032 
-0.28832442 0.122560285 0.94965684 
-0.6778413 0.4705554 0.5648972 
-0.060614135 -0.059279315 0.99639946 
0.119229585 -0.2048069 0.97151345 
0.09946665 0.23390797 0.9671575 
0.29636118 0.266803 0.91705304 
0.91066533 -0.36049616 0.2018197 
0.902796 -0.3203907 0.28689614 
-0.048867647 -0.29623064 0.9538656 
0.36951914 0.1501109 0.9170182 
-0.18297544 0.13994706 0.9731058 
-0.48486724 0.6864328 0.54195374 
-0.38622373 0.70927536 0.5897116 