# OOMMF: rectangular mesh v1.0
# Segment count: 1
# Begin: Segment
# Begin: Header
# Desc: Time (s) :  1.3299999999999996e-07
# Title: m
# meshtype: rectangular
# meshunit: m
# xbase: 2e-09
# ybase: 2e-09
# zbase: 5e-10
# xstepsize: 4e-09
# ystepsize: 4e-09
# zstepsize: 1e-09
# xmin: 0
# ymin: 0
# zmin: 0
# xmax: 1.024e-06
# ymax: 1.024e-06
# zmax: 1e-09
# xnodes: 256
# ynodes: 256
# znodes: 1
# ValueRangeMinMag: 1e-08
# ValueRangeMaxMag: 1
# valueunit: 
# valuemultiplier: 1
# End: Header
# Begin: Data Text
0.85404944 0.073177226 -0.5150191 
0.5742447 0.36284 0.73388714 
-0.24238932 0.12026868 0.96269566 
-0.46396762 0.38160872 0.79944277 
-0.5763905 0.5964905 0.5585456 
-0.051909383 0.4287565 0.90192753 
-0.38520002 0.15408699 0.90987813 
-0.1256504 0.8801663 0.45773295 
-0.6841489 0.51313305 0.5182999 
-0.07474811 0.9577574 0.27769318 
0.16400637 0.61153406 0.7740336 
-0.6589705 -0.17882688 0.7306018 
-0.120862834 0.43763733 0.8909915 
0.39201283 -0.3321795 0.85789436 
0.35379747 -0.056469116 0.93361586 
-0.060072195 0.2146673 0.97483814 
-0.38998625 0.533451 0.7505602 
-0.4662471 -0.037838627 0.883845 
-0.842799 0.4154545 0.3421804 
-0.31977084 0.94407254 0.08045981 
-0.78569263 0.50343865 0.35949525 
0.009254563 0.60737973 0.7943577 
-0.8481301 0.4815234 0.22093093 
-0.7815746 0.47932655 -0.3992334 
-0.6744709 -0.08070241 -0.73387754 
0.19097912 0.6631048 -0.72375345 
-0.056397807 0.9978072 0.03464223 
0.9303445 0.2812695 0.23525868 
0.90084463 0.39316002 -0.1841307 
-0.053582244 0.04310413 0.99763274 
-0.27150884 -0.062158562 0.9604266 
-0.26709428 0.095284104 0.9589482 
-0.21536647 -0.04984383 0.97526044 
-0.41173178 0.8803653 -0.235444 
-0.43263987 0.8726693 0.22643137 
-0.91751146 0.38590452 -0.0961794 
-0.8605453 0.43746093 -0.26094052 
-0.9606811 0.26827884 0.071543045 
-0.09018014 0.9906644 0.10223284 
0.4300713 0.83815813 0.3354544 
0.78732127 0.6164105 -0.012786516 
0.6734216 0.26547244 0.6899476 
-0.38583702 0.008197407 0.92253053 
-0.9698974 -0.2314927 0.07556618 
-0.5250992 0.015824905 0.850894 
0.21374753 0.9538343 0.21097927 
0.04096784 0.998253 -0.042574883 
-0.41663122 0.88861036 0.19180754 
0.40752485 0.45691442 0.79066604 
0.025520317 0.93278134 0.3595383 
0.30623534 0.28591654 0.9080043 
0.28203768 0.16101614 0.94579524 
0.05559367 0.58289 0.81064713 
-0.43725702 0.4150955 0.79781085 
-0.6186057 0.58367765 0.52597296 
-0.8341554 0.12554014 0.5370518 
-0.3601386 0.094508044 0.9280994 
-0.82065547 0.0034443482 0.571413 
-0.9638495 -0.26639202 0.005429756 
-0.97770923 0.010925254 -0.20967898 
-0.77871686 0.51514745 -0.35808265 
-0.16925567 0.73201054 -0.6599342 
0.44307706 0.88488936 0.1437134 
0.6956463 0.42973888 0.5756742 
0.5772787 0.6461132 0.4992866 
0.5987762 0.489549 0.633884 
0.36939922 0.6601285 0.65404487 
0.8123609 0.5180318 0.26779273 
0.27931243 0.5908447 0.7568932 
0.30627733 0.29528815 0.9049857 
-0.21916391 0.89083016 0.39798108 
-0.1910004 0.96243435 0.19297417 
0.30802307 0.9245006 0.22454542 
0.07105484 0.9347026 0.34825626 
0.18341282 0.88302404 0.43200508 
0.57451004 0.71283376 -0.40225166 
0.3302296 0.7322311 0.5956392 
0.41385484 0.69890743 0.58331174 
0.6257782 0.63703054 0.45010433 
0.37955737 0.81757563 -0.43302014 
-0.1618596 0.67510456 -0.71974677 
0.68813086 0.6256599 0.36745834 
-0.86806464 -0.075628534 0.4906568 
-0.9890998 0.059824698 -0.13454649 
-0.774105 0.6324907 -0.026777599 
-0.08679625 0.9401199 0.3296073 
-0.8627751 0.4416303 0.24613391 
-0.8988739 -0.4241005 0.1102936 
-0.567734 -0.56394017 -0.599708 
-0.5425326 -0.837955 0.059076082 
-0.8391807 -0.5338586 -0.10378285 
-0.60484433 -0.47312057 -0.6405626 
-0.6048525 -0.7687271 -0.20787519 
-0.26235625 -0.49333823 -0.8293291 
-0.25255257 -0.5856224 -0.7702361 
0.4143955 -0.09315643 -0.90531665 
0.9970823 -0.023573505 -0.072603785 
0.50346696 0.50561386 0.70062524 
0.14747173 0.88794255 0.43567222 
0.0075860736 0.50231606 0.86465085 
0.17055878 0.94223267 0.28828356 
0.3517141 0.69560945 0.6264382 
0.40519875 0.66742146 0.6247901 
-0.4838185 -0.048895292 0.8738014 
-0.08810293 0.969347 0.22935604 
-0.60702026 0.7644664 0.2170658 
-0.10955054 0.9864142 0.12241659 
-0.25991812 0.7927809 0.55130845 
-0.046780124 0.6942694 0.7181933 
-0.50576985 0.5062402 0.6985112 
-0.054238703 0.56035876 0.8264722 
0.14057735 0.77795064 0.6123976 
0.8897643 0.41925675 0.18039754 
0.63022774 0.5010611 0.5930859 
-0.6141986 0.6749037 0.40898064 
-0.22345224 0.18413045 0.9571652 
-0.40090138 -0.52391666 0.7515248 
-0.38658974 0.20633686 0.89887345 
-0.5441881 -0.21605934 0.8106651 
-0.9264029 0.36623955 0.08744273 
-0.81030524 0.54319304 0.21987887 
-0.3112758 0.6089801 0.72955513 
-0.40413022 0.18683487 0.895417 
0.06787855 -0.14656593 0.9868693 
-0.2847331 0.12705748 0.9501492 
-0.5592296 -0.051380675 0.8274191 
-0.105172604 -0.0060279327 0.9944358 
0.40647995 0.037449114 0.9128919 
0.6275138 0.43837819 0.6434679 
-0.39592773 0.26592708 0.87893355 
-0.62677395 0.7271092 -0.28011903 
-0.061034635 0.98412675 -0.16664127 
-0.73415744 0.122977555 -0.6677496 
-0.17610376 0.62917876 -0.7570481 
-0.4008009 0.8357591 -0.3753205 
-0.041176625 0.9459713 -0.32162526 
-0.54757625 0.5038195 -0.6680766 
-0.0089588845 0.92495835 -0.37996295 
0.47756308 0.8298078 0.28870815 
0.43113613 0.76318985 0.48131377 
-0.19002548 0.35744596 0.9143975 
-0.53853047 0.43376297 0.7223813 
-0.72057325 0.523742 0.45438814 
-0.9674131 -0.10046351 -0.2324199 
0.5524976 0.833514 -0.0009088133 
0.5422238 0.8241269 -0.16373199 
0.5896342 0.33274332 -0.7359439 
0.864098 0.3861796 -0.3228004 
-0.19290765 0.93692946 0.29146174 
-0.2317369 0.5827452 0.7789133 
-0.64861226 0.723016 -0.23780234 
-0.19201125 0.92963463 0.31450164 
-0.3782025 0.753837 0.5373014 
-0.23329644 0.12879457 0.9638386 
-0.351252 0.86445063 -0.35964862 
-0.38299513 0.9071961 -0.17409748 
0.14888132 0.10827778 0.9829091 
0.38493657 0.06376772 0.9207375 
0.13847809 -0.010246933 0.99031246 
0.32225734 0.26035345 0.91014636 
0.8117 -0.26341292 0.52130306 
0.60462993 0.41926542 0.67722905 
0.40145665 0.9144068 0.051892094 
0.3363348 0.8370646 0.43151107 
0.65378 0.2785702 0.70354134 
0.7669817 -0.033924963 0.64077157 
-0.09207443 -0.27970445 0.95566094 
-0.6642903 0.3392997 0.6660287 
-0.13439322 0.70492226 0.696436 
-0.2215425 0.008641753 0.97511244 
0.3688793 -0.05650869 0.92775804 
-0.15133907 -0.2584335 0.95410097 
0.38064882 -0.4723566 0.7949753 
0.17959855 0.26022595 0.9486975 
0.47225884 0.4583729 0.75290495 
-0.13538586 0.6673537 0.7323318 
0.57648087 0.76623595 0.2838177 
0.41387212 0.839015 0.3532191 
-0.34266278 0.93579745 -0.08285834 
-0.35241917 0.33807626 -0.8726427 
-0.18961468 0.70379055 -0.6846351 
0.7533559 0.65704525 -0.027322954 
-0.2882327 0.82745415 -0.48191467 
0.04762479 0.95493096 -0.2929828 
-0.024942411 0.31140584 -0.9499497 
-0.49707788 0.3538067 -0.79229695 
-0.12352199 0.84947413 -0.512968 
0.22945666 0.45240662 -0.8617877 
-0.25047204 0.9440943 0.21435894 
0.047952164 0.99187434 -0.11783833 
0.19743894 0.96921897 -0.14708011 
0.4609438 0.8291909 0.3161855 
0.5512179 0.783561 0.2866898 
0.35722002 0.6811121 0.63912463 
0.07459374 0.99585146 0.052111614 
-0.1669399 0.5350708 0.8281488 
-0.76082104 0.31730083 0.56610215 
-0.22476102 0.56538224 0.7936154 
-0.16668174 -0.22916111 0.95901126 
-0.30070406 0.6909231 0.65742105 
-0.04955076 0.5205368 0.85240036 
0.833463 0.2214924 0.5062416 
0.25040057 0.10840163 0.9620545 
-0.39924484 0.31097627 0.8624948 
-0.41694906 -0.009397052 0.90888137 
-0.101264775 0.95316565 0.28499252 
0.10469348 0.53594667 0.8377353 
-0.08702677 0.72371495 0.6845898 
0.19058141 0.9019612 0.38748536 
-0.6612016 0.44772512 0.60195917 
-0.9026955 0.43027866 -0.0010462141 
-0.6125263 0.7017408 -0.36382878 
-0.396135 0.6529437 -0.6455554 
-0.6376885 0.15266514 -0.7550145 
0.61791426 0.7018408 0.35440305 
0.6054434 0.625249 0.492445 
0.11414796 0.28280208 0.952362 
-0.48716605 0.580163 0.6527481 
0.013162485 0.7137914 0.7002347 
0.53007936 0.81753874 0.22504754 
0.39637592 0.7755852 0.4912779 
0.09547904 0.41619754 0.90424746 
-0.602164 0.62247795 0.4999199 
-0.07088624 0.82063925 0.56703293 
-0.16641127 0.9481952 -0.27061635 
-0.050094396 0.9141833 0.40219325 
0.028831229 0.8534824 0.5203235 
0.11471445 0.68269295 0.72164464 
0.43851197 0.5303646 0.72554857 
0.40793678 0.8694496 0.2786485 
-0.23133212 0.9495979 0.21154054 
0.3420649 0.7675154 0.54213625 
0.24103335 0.7532662 0.6119583 
0.56314987 0.7348789 -0.37790915 
-0.49649575 0.79328907 0.35239843 
0.22807494 0.9091781 0.34839204 
0.733307 0.6622789 0.1537779 
-0.13989349 0.9901392 -0.007373172 
0.4862479 0.8678697 -0.10181051 
0.4128183 0.9096736 -0.045552198 
0.53106487 0.8291707 0.1744877 
0.28471133 0.9345948 0.21324189 
0.481918 0.45411557 0.7493558 
0.3412995 0.8349451 0.43171906 
-0.70400995 0.627214 -0.3331256 
-0.119802006 0.85155183 -0.51039886 
-0.255312 0.91856664 0.30174693 
0.18717906 0.47480595 0.8599554 
0.4158831 0.6700014 0.61493045 
-0.16277735 0.51973766 0.8386754 
-0.052074116 0.9609011 -0.27195105 
-0.4218646 0.87070936 0.2527755 
-0.3996628 0.7508953 0.5257623 
0.04000319 0.9991189 0.012699937 
0.047190934 0.99039924 -0.12993239 
0.5829369 0.6965404 0.41834915 
0.6849663 0.6939519 -0.22192788 
0.5982349 -0.14682284 0.7877552 
0.28753054 -0.40102193 0.86977446 
0.18814038 -0.07575704 0.97921604 
0.33318314 0.10796869 0.93665993 
0.24959855 -0.4683125 0.8475753 
-0.5683694 -0.2402935 0.7869024 
-0.010713935 0.76412135 0.6449837 
-0.30894917 -0.06019375 0.9491718 
-0.12251212 0.78176016 0.6114262 
0.0009987432 0.5884206 0.8085544 
0.24157456 0.013514612 0.97028816 
0.34678593 -0.0004796895 0.9379442 
0.5643911 -0.015760362 0.8253572 
-0.07094967 0.5607996 0.824906 
-0.048855096 0.37601972 0.92532283 
-0.37804997 0.37127316 0.84807694 
-0.65101194 0.57398325 0.49671587 
-0.4959028 0.8531433 0.16194765 
-0.5902803 0.74066263 0.32091767 
-0.89821 0.4392242 0.01734505 
-0.63751715 0.65051305 0.412801 
-0.9767221 0.19397543 0.091583736 
-0.95074564 0.2948737 -0.095563024 
-0.39167613 0.7192569 -0.5738113 
0.37287688 0.91987365 0.1216368 
0.3560851 0.86137295 -0.36227086 
0.7131595 0.5587873 -0.4232734 
0.76650214 0.6402321 -0.050768714 
0.61965 0.068875134 0.78185046 
-0.6795647 0.38491344 0.6245267 
-0.10205722 0.42640424 0.89875686 
-0.5217319 0.054795127 0.85134804 
-0.7435614 0.11262903 0.65911394 
-0.85695916 0.46931234 -0.21299522 
-0.41833943 0.908282 0.0039967764 
-0.5199927 0.8537401 -0.027118443 
0.37120974 0.9077351 0.19550039 
-0.28239632 0.9562455 -0.076466106 
0.3126361 0.9439404 0.10599702 
-0.0670534 0.9776666 0.19917794 
0.7689487 -0.31986475 0.5535384 
0.5775761 -0.1026596 0.8098562 
-0.30893087 0.9175834 0.25020477 
-0.79082215 0.2636261 0.55236006 
-0.7578843 0.27892482 0.58975613 
-0.64975524 0.6331356 0.42066318 
-0.027275395 0.33072826 0.94333184 
0.39987406 0.49320346 0.7725613 
0.46467048 0.3085983 0.8299689 
0.14486027 -0.11589312 0.9826415 
0.09497099 0.042924207 0.9945542 
-0.7410514 -0.060319446 0.6687335 
-0.5515065 0.2919744 0.78140366 
-0.5567719 0.32805777 0.7631404 
-0.9007762 0.09705503 0.42329967 
-0.87445784 0.12650752 0.46831533 
-0.9683064 -0.027807781 -0.24821259 
-0.89729095 0.17022759 -0.40729794 
-0.9181244 0.2107595 0.33560106 
-0.10842378 0.9596113 -0.25959694 
0.37648627 0.5109069 -0.772808 
0.68467224 0.6763511 -0.2716124 
0.5485321 0.57486326 0.6071612 
0.4449395 0.43814433 0.7810624 
0.7801374 0.13913432 0.6099403 
0.8979245 0.35314173 0.26272148 
0.45617342 0.4613534 0.76095915 
0.12651244 -0.30319157 0.94449437 
0.21360734 -0.105932124 0.97115934 
-0.9391465 0.28770846 0.18769033 
0.7280487 0.6729544 -0.13068138 
-0.02472914 0.9259839 0.3767524 
0.24261846 0.7758245 0.58243674 
0.052216545 0.72809315 0.6834866 
-0.14890908 0.9813779 0.121340424 
-0.41274658 0.8364329 0.3605833 
0.17042944 0.9403405 0.29447168 
0.6638419 0.559201 0.4965967 
0.329511 0.8738247 0.35756528 
-0.14377686 0.78121084 0.6074848 
0.44196135 0.61987597 0.6484012 
-0.6468916 0.7126502 0.27140552 
-0.13457422 0.59520376 -0.7922262 
-0.83420956 0.5504743 0.032750156 
-0.21746391 0.96760255 0.12827654 
-0.9128207 0.36220852 0.18858248 
-0.18760918 -0.39205936 0.9006066 
-0.7464217 -0.64292276 -0.17177038 
-0.8331869 -0.46517378 -0.29902017 
-0.94197464 0.07462532 -0.32728407 
0.12893325 0.16973248 -0.97701955 
0.650095 -0.7000691 -0.29543155 
0.6765443 0.26415136 -0.68739504 
0.72545415 -0.6882614 -0.003548967 
0.71212584 -0.42746046 -0.5569151 
0.5607535 0.73478216 -0.38164213 
0.6724391 0.68273467 0.28583056 
0.0053604264 0.40772814 0.9130877 
0.09211421 0.67618465 0.73095095 
0.62334883 0.7731644 0.1168471 
0.6939886 -0.118956126 0.710091 
0.47624514 0.35085514 0.80628234 
0.41014773 0.38587475 0.8263653 
-0.1851749 -0.20589454 0.9608943 
-0.43134066 0.31002587 0.847248 
0.19745874 -0.2014361 0.9593923 
-0.40854415 0.20783603 0.88876086 
-0.06551142 0.47631928 0.87682855 
0.5018087 0.19728564 0.84217954 
0.24014856 0.6988742 0.6737237 
-0.26867676 0.49982795 0.82339835 
0.014993053 0.88541037 0.4645684 
-0.43258944 0.60841715 0.6653533 
-0.44318122 0.33181867 0.8327585 
-0.35670623 -0.19986583 0.91258657 
-0.2961476 -0.5541001 0.7779909 
-0.32151988 -0.043147773 0.9459193 
-0.08633505 0.061474156 0.9943677 
-0.2770855 0.16861324 0.9459352 
-0.39753282 0.3016161 0.8666 
-0.059953723 0.6398475 0.7661598 
-0.7011403 0.48884493 0.5190693 
-0.40820405 0.18900618 0.89311045 
-0.067920305 0.88571143 0.4592408 
0.44157133 0.06681816 0.8947347 
-0.21617678 0.39168268 0.8943447 
0.75284404 -0.42590842 0.5018247 
0.6518069 0.1878174 0.7347601 
0.35404092 0.31814814 0.87945265 
-0.07097268 0.30877313 0.9484841 
-0.07140207 0.7016463 0.7089388 
-0.3874903 0.91784793 0.086061575 
0.0600945 0.95234287 0.29905152 
0.3847511 0.91432524 0.12639624 
-0.19399881 0.94846356 0.25056225 
-0.37187558 0.9044573 -0.20896348 
-0.27429292 0.9370193 -0.21623684 
0.710019 0.66339844 0.23616861 
0.6104086 0.31585148 0.72638786 
-0.5424699 0.25025335 0.8019351 
-0.020553656 0.88469887 0.46570978 
-0.7948051 0.50404644 0.3379677 
-0.8381285 0.42675564 0.3397356 
0.18962185 0.975963 0.1074233 
0.17493352 0.70725507 0.6849735 
0.37264115 0.66846836 -0.6436527 
0.1702085 0.8826208 0.438189 
-0.14056394 0.7011595 0.6990116 
-0.6051663 0.7535472 -0.25678876 
-0.17278087 0.58895147 0.7894827 
-0.16338022 0.80627334 0.5685334 
-0.58751196 0.36228982 0.7235854 
0.23613855 0.94133985 0.24107647 
0.33340627 0.93407154 0.12787023 
0.33918715 0.8678225 0.36309275 
0.5062746 0.40540892 0.7611371 
0.2076858 0.3950206 0.89488846 
0.06793489 0.58035636 0.8115241 
0.35093543 0.7971909 0.49125466 
0.45474806 0.6267883 0.63272476 
-0.019293137 0.9821569 0.18707167 
0.23396705 0.9713596 0.041472077 
0.41641146 0.90618926 -0.07363805 
0.47143015 0.780726 0.41014692 
0.85494685 0.2393747 0.46017995 
0.3907978 0.09125991 0.9159414 
-0.3966389 0.81909186 0.41444707 
-0.4473746 0.72039783 0.529984 
-0.40212566 0.5148689 0.7571031 
-0.43717003 0.5065342 0.74317265 
-0.5103246 -0.22014701 0.83132684 
0.63067657 -0.6554881 0.41543064 
0.45114276 -0.1472291 0.88022375 
0.09917292 0.4775366 0.8729969 
-0.24264364 0.5735705 0.7823945 
-0.011964042 0.44188258 0.89699316 
-0.51241577 0.3945415 0.76273656 
-0.4104994 0.8574066 0.31039375 
-0.42816702 0.8718314 -0.23787205 
-0.32800624 0.80682695 -0.4913678 
-0.06175865 0.98459727 -0.16356708 
0.12191269 0.9863867 -0.11035702 
0.12028252 0.9492429 -0.29063752 
0.044698883 0.70661724 -0.70618284 
0.06026849 0.95466316 -0.2915235 
0.12468584 0.99058205 0.05657553 
0.34271315 0.92450345 -0.1668564 
0.16544384 0.96918744 0.18249424 
0.375291 0.8963451 0.23605528 
0.8554109 0.043599162 0.5161119 
-0.027452298 0.2653089 0.9637726 
0.070922665 0.9961942 -0.050666895 
0.18900716 0.90998507 0.3690575 
-0.03445111 0.998483 -0.042951036 
-0.39007854 0.79653054 0.4619285 
-0.20730926 0.58766186 0.78209746 
-0.5876062 -0.3799298 0.71440345 
-0.5480665 0.36090866 0.7545648 
-0.57359993 0.071824014 0.8159808 
0.32343727 0.34776258 0.8800282 
-0.21191728 0.6799881 0.7019311 
-0.33535358 0.3273954 0.88337433 
-0.6101281 -0.10982048 0.7846549 
-0.12299195 -0.30098662 0.94566387 
-0.12642723 0.9316715 0.3405942 
-0.68166506 0.25087124 0.68731105 
0.3010059 0.098229304 0.94854975 
-0.010587457 0.54800504 0.836408 
-0.4183583 0.69236326 0.58788556 
-0.4508346 0.88771915 -0.093289465 
-0.5219758 0.81846386 0.2401212 
-0.29150409 0.8889797 -0.35318622 
0.2843285 0.91733336 0.27866992 
0.48944676 0.3720239 0.7886953 
0.56711787 -0.073978536 0.8203076 
0.7344243 -0.14552426 0.6629056 
-0.29655078 -0.28685635 0.91091776 
0.23840728 0.43378237 0.8689044 
0.14030205 0.6146026 0.77625966 
-0.34586868 0.88384646 0.31494525 
0.27441937 0.50543165 0.81806654 
0.17724192 0.12733974 0.9758944 
0.19434378 0.75344634 0.62813157 
-0.28367996 0.8527193 0.43862903 
-0.8325576 0.51056814 0.21486758 
0.3026468 0.05541725 0.9514904 
0.32800186 0.6595574 0.6763128 
0.44508377 0.4416261 0.77901655 
0.64433134 0.24167655 0.7255547 
-0.51750594 0.69720584 0.49607623 
-0.18320736 0.63949656 0.74664533 
-0.48175654 -0.02487362 0.875952 
-0.45559713 0.48637688 0.7455661 
-0.4094215 0.25922647 0.8747432 
0.03390123 0.9984998 0.04299924 
-0.24202694 0.9699284 -0.025729707 
-0.24270825 0.95598364 0.16488847 
-0.47244444 0.8810533 0.02326394 
0.13881223 0.9777183 -0.15747434 
-0.17732243 0.73665667 0.65260535 
0.6232314 0.6901675 0.3677656 
0.07096167 0.573571 0.8160765 
0.09421345 0.4351854 0.89539796 
-0.46975908 0.60943997 0.6386779 
-0.22772947 0.9710184 -0.07254429 
-0.100272045 0.74836886 0.6556597 
-0.028123176 0.8687298 0.4944874 
0.6360108 0.45556134 0.62285966 
0.1268902 0.41813412 0.89947927 
-0.68481106 0.607208 0.4029049 
-0.5071747 0.6246738 0.5937647 
-0.34716776 0.8609236 0.37186694 
0.3176994 0.92585343 0.20460345 
0.049152013 0.82079464 0.56910473 
-0.08120381 0.93932414 0.3332811 
0.9522984 0.21178553 0.21971509 
0.645546 0.70542747 0.29264745 
0.21486832 0.30547148 0.92764163 
-0.29529822 0.061767798 0.95340645 
0.07435088 -0.32167903 0.94392514 
-0.13877183 0.25842467 0.9560121 
-0.0479534 0.2495217 0.96718127 
0.012726109 0.68476534 0.72865254 
-0.26004183 0.56220526 0.78505015 
-0.15324137 0.7080574 0.6893271 
-0.22880238 0.36194175 0.9036857 
-0.4009706 0.6676623 0.62725574 
-0.06621448 0.75271344 0.65501004 
-0.41252226 0.5540199 0.7231096 
-0.09293616 0.99261487 0.0779663 
-0.23962653 0.92023045 -0.3094434 
-0.48750383 0.50331223 0.7134541 
-0.34171644 0.7933039 0.50388366 
-0.26005763 0.92303646 0.28350297 
-0.5914353 0.68817204 0.42026606 
-0.08182693 0.996584 0.011167524 
-0.7137143 0.6980314 0.058001686 
-0.9385033 0.31081784 0.15034598 
-0.6906309 0.70400786 0.16553508 
-0.5950347 0.7445649 -0.3025836 
0.24607258 0.9151121 -0.319403 
0.47302604 0.86330956 0.17590585 
0.674385 0.7261368 0.1339041 
0.1353376 0.6437494 0.75317353 
0.06954749 0.67241037 0.736904 
0.018733613 0.5333782 0.84566945 
0.07132169 0.5217654 0.8501025 
-0.17090215 0.60124713 0.7805732 
-0.47089243 0.5693113 0.67390287 
-0.24756265 0.7438832 0.6207661 
-0.6600639 0.48407733 0.57444316 
-0.5750521 0.75451833 0.31625485 
-0.70220697 0.7062755 0.089890994 
-0.13559984 0.9144551 -0.38129336 
0.110271476 0.99362284 -0.02353528 
0.049833853 0.9006248 0.43173087 
0.09258367 0.6111799 0.7860581 
0.09770484 0.6643816 0.74097973 
-0.027011909 0.8099679 0.585852 
-0.65600747 0.12747285 0.7439119 
0.12011993 0.7112413 0.6926089 
-0.16266665 0.9153349 0.36837736 
-0.04864395 0.606651 0.7934786 
-0.30247578 0.8706608 0.38788947 
-0.1420577 0.8002676 0.58257306 
-0.23564385 0.104359455 0.9662201 
-0.09409929 0.091619864 0.9913381 
0.06521823 0.35655266 0.93199617 
0.4254447 0.0987092 0.89958507 
0.16354196 -0.041938752 0.9856446 
-0.46547157 -0.07746367 0.8816665 
-0.720926 0.06660873 0.6898037 
-0.9047801 0.39817426 0.15109676 
-0.640512 0.7341036 -0.22546898 
-0.3218306 0.87937397 -0.3508939 
-0.024704777 0.5244569 -0.8510786 
0.5806879 0.6007953 -0.5494057 
0.5347176 0.8144795 -0.22516702 
0.61675817 0.07999988 0.7830769 
0.9458321 0.18545647 0.26647255 
0.33461317 0.26655513 0.9038708 
0.71782845 0.45793262 0.52442366 
0.827512 0.05021817 0.55919755 
0.04202905 -0.29356867 0.95501363 
0.2227943 -0.021236764 0.9746342 
-0.68361974 0.724319 0.0895889 
0.6557371 0.6236421 0.42553434 
0.06554936 0.6728539 0.73686564 
-0.0088553 0.7410083 0.67143756 
-0.6663226 -0.17131193 0.7257179 
-0.68791306 0.54696405 0.47708085 
-0.5985435 0.5416287 -0.5902408 
0.04290304 0.81428385 0.5788793 
0.2729311 0.45355526 0.84840816 
0.6418722 -0.30729687 0.70254445 
0.35673204 0.40220854 0.8431908 
0.8303229 0.5514913 0.08013217 
0.18369028 0.6477735 0.7393561 
-0.09172376 0.9095377 0.40537405 
-0.7662693 0.63418835 -0.103133716 
-0.44765246 0.86329246 0.23309535 
-0.5115755 0.7231594 0.4640378 
-0.93380356 0.1293519 -0.33358514 
-0.67733425 -0.7278087 0.10729816 
-0.5603385 -0.45725226 -0.6906092 
-0.93358326 0.35449997 -0.05246029 
0.004926879 0.71644616 -0.69762504 
0.44802707 -0.18948016 -0.87371 
0.79172754 0.57222867 -0.21382673 
0.7174527 0.55812454 -0.41684374 
0.95169044 -0.14414132 -0.27112493 
0.5918204 0.10386436 -0.7993502 
0.8747885 0.41636172 0.24776612 
0.6672689 0.7353636 -0.11829062 
0.10517349 0.7017793 0.7045881 
0.84830874 0.4277807 0.31205124 
0.7262342 0.2651699 0.6342467 
0.31408283 -0.016949443 0.94924426 
-0.57772017 0.18949108 0.7939348 
0.14479208 0.064060085 0.9873862 
-0.47545475 0.31101453 0.8229295 
-0.27021107 0.4223724 0.8652096 
-0.036099497 0.25124413 0.9672504 
-0.17099066 0.17084937 0.97034675 
-0.23319818 0.24689361 0.9405648 
-0.13175872 0.05361844 0.98983073 
0.10797815 0.39730078 0.9113138 
0.404103 0.59261316 0.6967858 
0.6818539 0.5938093 0.4271602 
-0.047777656 -0.14114743 0.98883504 
-0.12694278 -0.013951978 0.99181193 
-0.3490021 -0.66553026 0.6597478 
0.13827193 -0.6437624 0.7526294 
-0.2267573 -0.6383291 0.7356067 
0.092109025 -0.28622356 0.95372534 
-0.20415099 0.2695589 0.94109535 
-0.45078152 0.38631245 0.8047103 
-0.18560791 -0.12089546 0.97515845 
-0.04371531 0.7705121 0.6359245 
0.6198058 0.6483925 0.4420723 
0.7082377 0.03549593 0.7050811 
-0.46178976 -0.09067672 0.88234234 
0.27397615 -0.25807226 0.92646414 
0.4472127 -0.3002529 0.8425254 
0.041818738 0.10455652 0.9936394 
0.06979333 -0.065052465 0.99543816 
-0.7502093 0.0028009256 0.6611945 
-0.21538258 0.55645406 0.802477 
-0.20258619 0.95011765 0.2371399 
-0.55484974 0.8026183 0.21896487 
0.025935335 0.73802257 -0.67427754 
-0.031213854 0.81701285 0.57577413 
0.06569693 0.9885399 0.13591503 
0.113508046 0.34242356 0.93266404 
0.5159221 0.56560004 0.6433669 
-0.9301119 0.3509601 -0.10825433 
-0.896646 0.42393473 -0.12769188 
-0.8042123 0.22555976 0.54987776 
0.35272524 0.29910102 0.88663614 
0.27281916 0.5039141 0.81953657 
-0.10597554 0.6153612 0.7810889 
0.014886342 0.69582266 0.7180594 
-0.22634752 0.7936294 0.56472933 
-0.17788453 0.8610722 0.47635257 
-0.40263712 0.86348134 0.3037816 
0.00051222974 0.65684116 0.7540288 
0.29043105 0.8380009 0.4619573 
0.56204736 0.75366455 0.3407238 
0.12920652 0.91469955 0.38292375 
0.03392413 0.8816163 0.47074616 
0.7660663 0.20676483 0.60859734 
0.75809234 0.13148306 0.6387552 
0.2733101 0.6075385 0.74578726 
0.5867891 0.6975588 0.41120595 
-0.1507118 0.8671289 0.47473496 
0.38900197 0.83411014 0.3910724 
0.58664954 0.77817893 0.22423185 
0.3450672 0.451494 0.8228498 
0.5171852 0.29455167 0.8035912 
0.17728631 0.39977038 0.8993072 
0.075618416 0.27501887 0.9584605 
0.20488779 0.2515027 0.94592154 
-0.19547504 -0.26257578 0.944904 
-0.007052564 0.04433801 0.9989917 
0.2578548 -0.09021338 0.9619628 
-0.52439195 -0.022173729 0.85118836 
-0.6427471 -0.30795586 0.7014552 
-0.018747997 -0.019520763 0.99963367 
0.36727196 -0.46642753 0.804709 
0.4420573 -0.20913187 0.8722667 
-0.100664556 0.38768137 0.9162804 
-0.5286551 0.06693166 0.84619385 
0.26569188 0.2549087 0.929747 
0.06779878 0.70452076 0.70643747 
-0.38446346 0.86964023 -0.3096993 
0.07407262 0.9798073 0.18571714 
-0.20574357 0.90913725 0.36213127 
-0.15093084 0.90187746 0.40476775 
0.11461804 0.57235485 0.8119561 
0.049478367 0.9921012 -0.115270235 
0.11407519 0.99033654 -0.0788698 
0.3812797 0.8771337 -0.29199705 
0.15346687 0.98747194 -0.036704022 
0.14970532 0.97839767 0.14257033 
0.72483426 0.6601262 -0.19710098 
0.8899067 -0.0031923123 0.45613167 
0.6649213 0.39123684 0.6362496 
0.17968936 0.96329594 0.19943133 
0.11838096 0.93345857 0.33858708 
-0.22622427 0.89660686 0.38068202 
0.29783902 0.52964 0.7942124 
0.084931515 0.1917345 0.9777651 
-0.26831442 -0.66916764 0.6929806 
-0.39218116 0.14977522 0.9076131 
-0.1950118 0.46821463 0.86182684 
0.05303594 0.6587155 0.7505206 
-0.19520156 0.9068966 0.37341002 
0.20614164 0.85585177 0.47436634 
-0.40427077 0.015718257 0.9145044 
-0.07280494 0.04148408 0.9964831 
-0.5438743 0.23437567 0.8057721 
0.151155 0.5442403 0.8251998 
-0.33041024 0.2837525 0.9001743 
0.2600912 0.6543123 0.7100901 
-0.2263734 0.93005 0.28941697 
0.35575092 0.82112867 -0.44630605 
-0.09362703 0.6827579 -0.72462106 
0.28373602 0.88598317 -0.36678034 
0.84599495 -0.34202045 0.40904108 
0.033434913 0.17422338 0.98413837 
0.63746715 -0.53366715 0.55572927 
-0.03376395 -0.41961455 0.9070743 
0.503069 -0.57504624 0.6451694 
0.34391126 0.02341996 0.93871003 
-0.13288422 0.021188444 0.99090505 
-0.2920386 0.87924844 0.37634513 
0.10680103 0.020053254 0.99407816 
-0.32077652 0.30722344 0.89594436 
0.30224988 0.6592395 0.6885117 
0.5036011 0.025548946 0.8635585 
0.5423825 0.36015612 0.7590184 
-0.2862899 0.030732226 0.9576501 
0.3962322 0.49709305 0.77194464 
0.5025577 0.66254735 0.555398 
0.16774645 0.2874631 0.9429879 
-0.25506103 0.6827593 0.68467784 
-0.52943766 0.26714644 0.80518854 
-0.302202 0.6776107 0.6704609 
-0.09611535 0.4309433 0.8972457 
-0.45886993 0.5796751 0.6733611 
-0.29894802 0.87279826 0.38581514 
-0.30277288 0.8443121 0.4421151 
0.0248306 0.6516365 0.7581248 
-0.5169788 0.83529377 0.18712889 
-0.325457 0.87094444 -0.36814874 
-0.105475195 0.98867935 -0.10671505 
0.23808697 0.8516545 0.46690392 
-0.2882858 0.85577726 0.4295773 
-0.309801 0.931524 0.19049004 
-0.47940144 0.72738045 0.49101126 
-0.08537656 0.9962184 -0.016117152 
0.43934363 0.80175024 0.40518337 
0.0069306116 0.77421397 0.63288605 
0.2510648 0.9189085 0.30425924 
-0.70476174 0.4246085 0.5683473 
-0.4872182 0.736228 0.46966678 
-0.39638543 0.7855795 0.4751248 
-0.7369654 0.51236665 0.44086564 
-0.3536251 0.3266782 0.8764877 
-0.3635856 0.7282389 0.5809248 
-0.02923967 0.9796239 0.19870067 
0.8700886 0.49248183 -0.020191029 
0.7711738 0.6279488 0.10474358 
0.6279692 0.3583468 0.6908273 
0.7397916 -0.2828177 0.6105102 
0.5701832 0.12386502 0.812126 
0.6378319 0.04040118 0.7691153 
0.29794893 0.4272637 0.853623 
-0.3963241 0.46840757 0.78963375 
-0.37763005 0.69327164 0.6138159 
-0.42905167 0.72610843 0.53729075 
-0.3471033 0.8505955 0.39497665 
-0.21646048 0.97613364 0.01755283 
0.25685 0.9620605 0.09202079 
0.049792998 0.8817599 0.4690632 
-0.70138717 0.62228 0.347597 
-0.35910287 0.6266381 0.6916429 
-0.15158853 0.8842113 0.4418047 
0.026573204 0.77223104 0.63478595 
-0.7033729 0.36807173 0.6081035 
-0.51197547 0.83266824 -0.2110565 
0.29333496 0.95541316 -0.03376894 
0.12814426 0.8544145 0.5035425 
-0.3094921 0.90284413 0.2984747 
0.122690745 0.38338888 0.9154015 
-0.38134652 0.6247933 0.6813283 
0.3422165 0.724217 0.59866333 
-0.0026345933 0.9895535 0.14414196 
0.59390795 0.74994 0.2913134 
0.31327018 0.900257 0.30232292 
-0.08425597 0.92464554 0.3713914 
0.30054247 0.046598107 0.95262945 
0.5000561 0.57681775 0.6459297 
-0.6571822 0.13566831 0.7414214 
-0.56931347 0.07978599 0.8182398 
-0.41343173 0.38690847 0.8242428 
-0.11112987 0.7608357 0.6393586 
-0.5102815 0.85280067 -0.1111039 
-0.18134731 0.8151359 -0.5501515 
0.37092698 0.92526144 0.079400495 
0.5077649 0.8471162 0.15674536 
0.73603284 0.5572967 0.38428658 
0.49586782 0.38661343 0.7775893 
0.4132332 0.14455268 0.8990789 
0.18067192 0.26234668 0.9479093 
0.2241578 0.68764836 0.6905744 
-0.106142536 -0.15275833 0.9825471 
-0.25825438 0.01662605 0.965934 
-0.44104427 0.36694995 0.8190408 
0.056000758 -0.25703964 0.964777 
-0.85124916 -0.19193913 0.48839974 
-0.6988057 -0.3422905 0.6280986 
-0.18079987 -0.3003063 0.9365509 
0.4090339 -0.24208024 0.879823 
0.3118562 0.52751654 0.7902355 
-0.371759 0.3808667 0.8466025 
-0.7335049 0.2149043 0.64481527 
-0.5806063 0.40712067 0.705088 
-0.5120819 0.7001773 0.49751768 
-0.56654394 0.48659176 -0.6650236 
-0.39630315 0.41953385 -0.81666106 
0.2640125 0.8665765 -0.42348883 
0.3688737 0.92552376 -0.08566203 
-0.037578285 0.80333877 0.5943356 
-0.6998943 0.5000566 0.5099916 
0.42894453 0.8761089 0.2200903 
0.30923268 0.42016461 0.8531337 
-0.43494362 -0.21875535 0.87348175 
-0.09502583 -0.47816747 0.8731128 
0.29197615 0.45515755 0.84117866 
0.18343477 0.4549175 0.87143666 
0.2135839 0.8801957 0.4238366 
-0.24714106 0.7578387 0.60382265 
-0.47103867 -0.0066063213 0.8820878 
-0.9587021 -0.15402372 0.23909622 
-0.8564661 -0.47222772 0.20848711 
-0.79255396 0.6065011 -0.06336198 
-0.45461145 0.89068896 0.0012688598 
-0.35865358 0.76476836 0.5352541 
-0.8966202 0.4057069 -0.17740948 
0.13371578 0.9620722 -0.23777594 
0.5575248 0.7102541 0.42977357 
-0.27183995 0.947525 0.1682245 
-0.5062268 0.5777138 0.64029783 
-0.13858107 0.73112637 0.6680191 
-0.54008347 0.06014666 0.8394596 
-0.6102887 -0.004834116 0.7921644 
-0.3890412 0.8749516 0.28828236 
-0.41833293 0.8784162 -0.23104702 
-0.499342 -0.86497533 0.04975113 
-0.45436418 -0.4696458 -0.75695837 
-0.79107505 0.05841311 -0.6089238 
0.18233618 0.9698222 0.16185941 
0.0510803 0.9542707 -0.29454768 
-0.024618037 0.8245644 0.5652322 
0.63298744 0.5759673 -0.51728976 
0.86524314 0.33591986 -0.37217227 
0.804254 0.49547425 -0.32814756 
0.62969947 0.7524804 -0.19300717 
0.8244093 0.5504494 0.13173737 
0.7677519 0.60513806 0.2106303 
0.9763201 0.18319632 -0.11505802 
0.14222354 0.31174335 0.9394619 
0.35584798 0.25904396 0.8979246 
-0.7420231 -0.3051856 0.59687823 
-0.094287224 0.32743078 0.940159 
-0.5865878 0.6501267 0.4829597 