# OOMMF: rectangular mesh v1.0
# Segment count: 1
# Begin: Segment
# Begin: Header
# Desc: Time (s) :  1.3599999999999995e-07
# Title: m
# meshtype: rectangular
# meshunit: m
# xbase: 2e-09
# ybase: 2e-09
# zbase: 5e-10
# xstepsize: 4e-09
# ystepsize: 4e-09
# zstepsize: 1e-09
# xmin: 0
# ymin: 0
# zmin: 0
# xmax: 1.024e-06
# ymax: 1.024e-06
# zmax: 1e-09
# xnodes: 256
# ynodes: 256
# znodes: 1
# ValueRangeMinMag: 1e-08
# ValueRangeMaxMag: 1
# valueunit: 
# valuemultiplier: 1
# End: Header
# Begin: Data Text
0.88068134 0.41532007 0.227837 
0.88188374 -0.08298661 0.4641059 
0.42254284 -0.07484855 0.9032472 
0.5469946 0.45202878 0.7046041 
-0.15911533 0.6726771 0.7226257 
-0.4050912 0.5778123 0.70854366 
-0.14625041 0.4045932 0.90272653 
-0.005250759 0.44302437 0.89649427 
-0.024324633 0.03472567 0.99910086 
-0.88181645 0.22767667 0.41299295 
-0.36116236 0.26586425 0.8937997 
-0.07798441 -0.39089218 0.91712695 
-0.6729828 0.054820534 0.7376238 
-0.70737755 0.32628214 -0.6270223 
-0.5941581 0.31765985 -0.7389644 
-0.7356237 0.3199448 -0.5970704 
0.17085925 0.9852724 0.006746452 
0.16627271 0.22037318 -0.96113944 
0.40925688 0.56043535 -0.72001463 
0.40782252 0.17130378 -0.8968477 
0.60889095 0.5028934 -0.61347383 
0.840213 0.5365671 0.07834586 
0.7479699 0.310672 0.5865356 
0.9192066 -0.13343948 0.37047696 
0.802653 -0.1401052 0.5797575 
0.9859399 0.13811883 0.09405239 
0.6808869 0.5339066 -0.50133514 
0.64295805 0.7171047 -0.26900914 
0.92547345 0.18056539 -0.33300933 
0.7529402 0.3251926 0.5721284 
0.9124228 0.27509513 0.30299744 
-0.25261587 0.0864155 0.96370006 
0.123703614 -0.27263135 0.9541329 
-0.01744857 -0.064728566 0.9977504 
0.13298446 -0.9738272 -0.18432501 
-0.27257425 -0.87447435 -0.40124536 
0.711039 0.07634809 0.6989954 
0.53314704 0.31233588 -0.78625745 
0.7438303 0.3627497 -0.56136364 
0.086317524 0.9649505 0.24783032 
0.19261073 0.8274363 0.5274945 
0.7529615 0.23082756 0.6162529 
0.5028949 0.62955254 0.59225035 
0.21807034 0.9149495 -0.3395775 
0.64627653 0.7306594 -0.22014412 
0.7751769 0.34294915 -0.5305532 
0.8925539 -0.35749945 -0.27484876 
0.68668914 0.45382816 0.5678892 
0.40430698 0.885559 0.22873834 
-0.1436307 0.98802704 -0.05632856 
-0.4616008 0.6384171 -0.6159127 
0.38391095 0.92008877 0.07777664 
0.09780172 0.98751694 0.123471916 
0.64696914 0.74025506 -0.18290271 
0.26568615 0.93838114 -0.22102463 
0.5851949 0.57803637 0.56870115 
0.8718882 -0.14457728 0.46787646 
0.9457128 -0.30470136 -0.11306797 
0.94239944 0.28476816 0.1754725 
-0.025090467 0.5098424 0.8599019 
0.57245487 0.3649386 0.7342447 
0.36217457 -0.17183214 0.91613495 
0.49954966 -0.16121773 0.8511516 
0.32008195 0.93821603 0.13152331 
0.41625026 0.7327557 0.5383352 
-0.16575581 0.90663713 0.38798735 
-0.6135875 0.78612936 -0.074236766 
-0.60099643 0.77676684 0.18824638 
0.02518165 0.50685877 0.8616614 
0.15324946 0.8533314 0.49833742 
-0.31419072 0.9419772 0.11816641 
-0.47094613 0.6943948 0.5440824 
-0.07350783 0.7769891 0.6252077 
-0.13229379 0.46321896 0.8763143 
-0.5564622 0.5191709 0.6486999 
-0.19649419 0.97759223 0.07552078 
-0.4716323 0.5607009 -0.6805715 
-0.29701698 -0.58313984 -0.75612754 
-0.18450941 0.23810896 -0.95355153 
-0.82016176 0.11259606 -0.56094277 
0.63446456 -0.52691436 -0.5655228 
0.7734817 0.15349898 0.6149505 
0.8776359 0.43458936 0.20220616 
0.41871706 0.75629115 0.50269264 
0.10055131 0.09068297 0.99079067 
0.34265566 -0.15399355 0.9267541 
0.12858659 0.19697459 0.97193956 
0.21390533 -0.4820217 0.8496468 
-0.16714895 0.39814118 0.90196717 
-0.29864693 0.4614757 0.8353743 
-0.17997088 0.80969024 -0.5585806 
0.013488651 0.9770218 -0.21271221 
-0.31120795 0.31663266 0.8960432 
-0.8449001 0.45459455 0.28193575 
-0.5347528 -0.03201652 0.8444018 
-0.96385545 -0.05490312 0.26070738 
-0.86326283 0.41450307 -0.2880355 
-0.37580296 0.4906023 0.7861816 
-0.67589396 0.6633481 -0.32114902 
-0.4333316 0.87347275 -0.22196677 
-0.2436043 0.8859087 -0.3947438 
0.22513554 -0.19378756 -0.9548615 
0.45676956 0.87717307 -0.14808466 
0.7537529 0.32832316 0.5692631 
0.48932293 0.36885917 0.79025686 
0.40186504 0.8653451 0.29947013 
0.38967127 0.9209513 -0.002243888 
0.51672286 0.7331701 0.4421076 
0.6082899 0.47869125 0.6331178 
-0.30064872 0.5515676 0.778064 
-0.048380036 0.5501597 0.8336569 
0.0054375576 0.7139309 0.7001951 
-0.2628548 -0.0026767878 0.96483177 
-0.5728115 0.0190191 0.8194665 
-0.940242 -0.009491539 0.34037492 
-0.91957974 -0.27021453 -0.28523177 
-0.8631665 0.50224525 0.051896937 
-0.7171909 0.5647586 -0.40827066 
-0.4663445 0.46974155 -0.749577 
-0.3245027 0.879731 -0.34752205 
-0.4878787 0.4025225 -0.7745643 
-0.25525892 0.45036504 -0.8555783 
-0.16248608 0.5498706 -0.81929284 
0.02493358 0.6651814 -0.7462654 
0.48012888 0.0028116219 -0.87719345 
0.40704238 0.6294569 -0.6618917 
0.9078947 0.33551547 0.2513101 
0.79472107 0.56732374 0.215783 
0.5628532 0.6447457 -0.51720333 
0.12639017 0.59548265 0.79336375 
0.6332415 0.051583417 0.7722335 
0.87988466 0.09412293 -0.4657726 
0.34046018 -0.3600773 0.8685801 
-0.09110656 -0.91351384 0.39647445 
-0.10126661 -0.8976 0.42902142 
0.0007039792 -0.321956 0.94675446 
-0.34193406 0.6445277 0.6838606 
-0.3193739 0.80482143 0.50026274 
-0.4950261 0.25464407 0.830726 
-0.96568525 -0.18521015 0.18206923 
-0.33485028 0.34194523 0.87803686 
0.14894128 0.9813325 -0.12166863 
0.9190582 0.0826761 -0.3853527 
0.46847886 0.13150072 -0.87363327 
0.17607172 0.94904125 0.26137996 
-0.123744555 0.98824364 -0.08978757 
0.0020369918 0.9963068 -0.085841194 
0.60135853 0.798184 0.035642922 
0.4721667 0.25958207 0.84242254 
0.49466255 0.14408793 0.8570576 
0.7074778 -0.12338106 0.69588244 
0.37457556 -0.3825163 0.844615 
0.82702017 -0.36435163 0.42811853 
-0.37247315 0.60299486 0.70545095 
-0.3965778 0.7602222 0.514576 
0.13162959 -0.6749981 0.72598296 
-0.044882085 -0.65983754 0.7500668 
-0.39576593 -0.1757331 0.9013807 
-0.42324367 0.60580385 0.67369616 
0.572826 0.49070975 0.6565625 
0.19592732 0.905849 0.37556633 
0.1983787 0.76324207 0.6149045 
0.88606083 -0.083637245 0.45596167 
0.22655001 -0.13170397 0.965054 
-0.49290234 0.524075 0.694545 
-0.03142193 0.7998026 -0.5994403 
-0.5430234 0.8384566 0.046002723 
-0.7163098 0.53185797 -0.45169392 
0.21525587 0.46722874 -0.8575326 
0.9192755 0.3106719 0.24169305 
0.6152336 0.7645156 0.19236307 
0.86096793 -0.3408402 -0.37757424 
0.09389074 -0.98269784 0.15965426 
0.5813204 -0.5313585 0.61621815 
0.6780075 -0.013828329 0.7349249 
0.39275706 0.0041524535 0.91963285 
0.007437222 0.07877725 0.9968645 
0.87686795 0.40312916 0.2618962 
0.3250113 0.8585909 0.3964711 
0.5276167 0.69658977 0.4861927 
0.1663742 0.3069578 0.9370681 
0.12547182 0.91441214 0.38484713 
-0.15050434 0.8267611 0.5420467 
-0.40091512 0.2880533 0.8696507 
-0.61525637 0.7334214 0.28905496 
-0.6256689 0.76162136 0.16873457 
0.21799563 0.97405845 0.06073041 
0.40124068 0.38033155 0.8332791 
0.14112346 0.19434227 0.97072923 
0.8818814 0.063555025 0.4671682 
0.4522407 0.87265784 0.18424596 
0.8906029 0.33210996 -0.31069213 
0.46777475 0.15470217 -0.87020344 
0.62841976 0.54093236 0.55899996 
0.79492456 0.57816315 -0.1839087 
0.89286876 0.18245058 0.4117006 
0.8283699 0.37623605 0.41502994 
-0.30155554 0.9401416 -0.15873888 
0.72741646 0.6467929 0.22918186 
0.74764496 0.6404921 0.17549059 
0.9292638 0.2578697 0.26452237 
0.14361498 -0.103908986 0.9841634 
-0.2765358 0.4955192 0.8234007 
-0.6974422 0.5187154 0.49447843 
-0.8287816 0.2730451 0.48843378 
-0.49849483 0.288726 0.8173984 
-0.15411171 0.3405249 0.92751956 
-0.78011894 0.50675213 0.36690164 
-0.9549425 0.26284128 0.13783798 
-0.74280804 0.62669736 0.23555608 
-0.9485753 -0.12337583 0.2915192 
-0.8992012 0.25343168 -0.35666448 
-0.68788767 0.56079394 -0.46078277 
0.14526501 0.9880364 0.051791552 
-0.45242906 0.3718309 -0.81058615 
-0.3454788 0.8426436 -0.41303283 
-0.10821464 0.30189374 -0.94718 
0.3174364 0.7274708 -0.608293 
0.1391041 0.9441529 -0.2987064 
-0.34626368 0.7499721 -0.5635985 
0.032050617 0.9507104 -0.30841944 
0.5065132 0.7287114 -0.46089497 
0.7296862 0.62599236 0.27512103 
0.15897423 0.9329151 0.32310474 
-0.49320886 0.86504245 -0.09190569 
0.28442046 0.6767757 -0.6790286 
0.6386957 0.7259589 0.25505212 
-0.28883255 0.6042354 0.74261385 
-0.00073977717 0.88581747 0.46403337 
-0.15177731 0.532476 0.8327263 
0.32265386 -0.14394604 0.93550736 
-0.033633675 0.32995 0.9433991 
0.122611634 0.2318876 0.96498424 
0.27247715 -0.007063903 0.9621363 
0.42927575 -0.45763814 0.778646 
0.5415189 0.10221264 0.83445185 
0.32382685 -0.33683184 0.88412696 
0.008337758 0.22399715 0.9745542 
-0.40508202 -0.3806216 0.83128554 
-0.54738384 -0.05236871 0.8352417 
-0.4982155 0.4213697 0.757779 
-0.045763038 0.05706192 0.9973213 
-0.8663418 0.47589704 -0.15157205 
-0.65588766 0.11308239 0.7463403 
-0.65491676 0.12240529 0.7457218 
-0.17459485 -0.055025402 0.9831017 
-0.11258241 0.24657544 0.9625621 
-0.04804772 -0.2523405 0.96644485 
-0.6295404 0.33088005 0.7029917 
-0.11147894 0.15125471 0.98218864 
0.00459019 0.9372474 -0.34863508 
0.19760236 0.90388465 0.3794022 
-0.38629252 0.4702316 0.79351145 
-0.2853928 0.76772255 0.5737187 
-0.6448693 0.05802148 0.7620874 
-0.38574082 -0.044037938 0.92155564 
0.99962074 -0.011604754 -0.024974875 
0.5758124 -0.2552469 0.7767169 
-0.19213802 -0.19407304 0.96198684 
-0.14169703 -0.00779362 0.9898794 
0.45322973 0.30394915 0.83797246 
-0.3694061 0.35385507 0.8592589 
-0.13165888 -0.63181 0.76386 
-0.23303594 -0.4967793 0.8360053 
-0.48951796 0.060599595 0.869885 
-0.9154045 0.06420279 0.39738244 
-0.5372489 0.22476454 0.81292343 
-0.25966847 -0.35755923 0.8970639 
-0.40635955 0.2548205 0.8774614 
-0.8862198 -0.21824016 0.40863898 
-0.94756335 0.18566011 -0.26010406 
-0.74260914 -0.2660931 -0.6145944 
-0.48283422 0.8756986 -0.0048060925 
-0.055024862 0.81304365 -0.57959676 
0.5476926 0.53657776 -0.6419636 
0.97813284 0.0055227005 -0.20790823 
0.44908056 0.8664842 0.21801765 
0.38347906 0.8758634 0.29292855 
0.25685877 0.43444014 0.8632992 
0.7192249 0.48834407 0.49420208 
0.31017742 0.84327334 0.43895337 
0.64631927 0.55416214 0.524572 
0.34074903 0.80254775 0.48970115 
0.111805774 0.70766383 0.6976471 
0.8459953 0.3809931 0.37300968 
0.2917005 -0.20508838 0.9342643 
0.13889769 -0.31774652 0.93794703 
-0.0135772 0.47107986 0.8819862 
0.21744315 0.1004548 0.9708899 
0.68874156 -0.24246322 0.6832618 
0.5731593 -0.81900615 -0.026785046 
0.7463497 -0.60148215 -0.28492364 
0.70469135 0.0019381397 0.70951134 
0.67528856 0.39877763 0.6204529 
0.41479045 0.8992163 0.13913633 
0.39585873 0.22841771 0.88944995 
-0.088787474 0.9955961 -0.030087974 
-0.086366616 0.7222955 0.68617064 
0.084343694 0.56350607 0.821795 
0.19545652 0.8303819 0.521788 
0.6436505 0.679226 0.3526559 
0.46662018 0.6955981 0.54626817 
0.31233522 0.8405692 0.4425949 
0.29421335 0.39045346 0.8723444 
0.0317543 0.88626987 0.46207955 
-0.23273897 0.80173355 0.5505051 
0.076717526 0.7887193 0.6099478 
0.36448845 0.7654798 0.5302725 
0.5161072 0.7186825 0.4659708 
0.3804613 0.629968 0.6770447 
0.67667913 0.72929853 0.10113926 
0.636677 0.7156063 0.2873153 
0.85284126 0.49454042 -0.16760539 
0.8817848 0.3911815 0.2635008 
0.69804305 0.5483191 0.4605237 
0.33129406 0.45351106 0.82738876 
0.46579415 0.514826 0.71971524 
0.45168865 0.25127828 0.8560589 
0.55625147 0.47851515 0.6794171 
0.3106688 0.75460416 0.57797706 
0.15821357 0.72032356 0.6753536 
0.34681636 0.9153272 0.20468205 
0.47011763 0.71770525 0.51370096 
-0.42104587 0.8980182 -0.12760858 
0.8565949 0.48796117 0.16774733 
0.695615 0.42015392 0.58274394 
0.6035286 0.6676555 0.43587768 
0.08627498 0.685348 0.7230871 
0.03166129 0.6022178 0.79770374 
-0.11864869 0.7931762 0.5973225 
0.1949995 0.6949726 0.6920899 
-0.719854 0.69363827 0.026004119 
-0.52254987 -0.48451906 -0.7015575 
-0.59487265 -0.6474707 -0.47634897 
-0.2569687 -0.47176823 -0.8434465 
0.1599963 0.17158832 -0.9720898 
0.6969873 0.6780035 -0.23349519 
0.4778985 0.87769693 -0.0355133 
0.7924286 0.5435974 0.27669284 
0.43348333 0.46740472 0.7704707 
0.7785903 -0.4150025 0.4707124 
0.32383934 -0.21407843 0.921574 
0.57059735 -0.05404111 0.8194499 
0.57457376 -0.03975708 0.81748664 
-0.43093476 -0.38405976 0.8165742 
-0.01641924 -0.001759478 0.9998637 
-0.6338106 0.76571006 -0.10941767 
-0.3137028 0.9223938 0.22534478 
-0.34101257 0.8576522 0.38489383 
-0.27065656 0.6837253 0.67769074 
0.42835417 0.30645102 0.8500591 
-0.57256424 0.7761818 0.26403013 
-0.3857509 0.7977034 0.46353617 
-0.88225645 0.27398223 0.38282812 
-0.88012254 0.46366432 -0.10197957 
0.14932397 0.9495431 -0.2758086 
0.26479983 0.9240957 -0.2755507 
0.8052648 0.573871 -0.1490659 
0.95395863 0.29879665 -0.026144313 
0.7569802 0.6455774 0.10104923 
0.4888139 0.26865184 0.8299923 
0.83975995 0.36288235 0.40388083 
0.13499473 0.26321137 0.9552467 
0.39045742 0.14571325 0.90901643 
0.5248742 0.60912126 0.59454054 
-0.31749284 0.2037137 0.92612046 
-0.25938666 -0.14044963 0.9555064 
-0.10032475 0.47281805 0.8754302 
-0.45608166 -0.32159486 0.829799 
-0.20621021 0.05352294 0.9770428 
-0.84625345 -0.06464598 0.52884424 
-0.50877714 0.81086606 0.28920943 
-0.6645472 0.5794271 0.47184882 
-0.10302401 0.97291976 0.20691389 
-0.29077265 0.93503284 0.20289148 
-0.3969002 0.90252197 -0.16710617 
0.1275531 0.8180188 -0.56087023 
-0.11050456 0.6111325 -0.78377664 
0.024956033 0.44865102 -0.8933586 
0.19080187 -0.16874354 -0.9670162 
0.34155917 0.5774405 -0.74155235 
0.004291606 0.9992491 -0.038507443 
0.48266703 0.68612766 0.544299 
0.64842033 0.7611518 -0.014112109 
0.3075804 0.86642706 0.3933173 
-0.014333256 0.48499003 0.8744023 
-0.20973174 0.7493461 0.62808686 
0.95990765 0.08980098 0.26554337 
0.39046887 -0.20014173 0.8985975 
0.55220854 -0.082692936 0.8295949 
-0.5048708 0.2396302 0.82926655 
-0.3115948 0.26789585 0.9116691 
-0.5356612 0.2351343 0.8110357 
-0.39965245 -0.4417772 0.80318797 
-0.57614774 -0.287987 0.7649296 
-0.3688346 0.23966762 0.89806485 
-0.8903857 0.36344644 0.27408063 
-0.62608725 0.7092739 -0.32395294 
-0.051947925 0.55908805 -0.8274793 
0.8309545 0.52777857 0.17596723 
-0.5112947 0.7424544 -0.43282712 
-0.50784516 0.8592509 0.061491113 
-0.10187556 0.95838726 0.26667476 
0.6342034 0.7478537 0.19621678 
0.89273506 0.33111408 0.30559388 
0.5731017 0.2008695 0.79448473 
0.9359129 -0.20073396 0.28943565 
0.92484814 -0.2840214 0.2529584 
0.4228734 0.80076665 0.42420626 
0.41660205 0.8034002 0.42543024 
-0.21057259 0.4202423 0.88264126 
0.28303924 -0.64293534 0.71170425 
0.13683657 -0.28422046 0.9489439 
-0.0100721745 0.5564817 0.8307988 
-0.66828996 0.4696589 0.57689613 
0.14305307 0.50636643 0.85036993 
-0.32171053 0.66902 0.6700109 
-0.56384856 0.617034 0.548948 
0.2147085 0.41244572 0.8853186 
-0.35980582 0.48189098 0.79894984 
-0.47870204 0.7415065 0.47011974 
-0.8421475 0.53901744 -0.015743308 
-0.1283153 0.66120154 0.7391534 
-0.7869162 0.6167199 -0.020481821 
0.0051140166 0.59773946 -0.8016742 
0.6540519 0.43025395 -0.62217176 
0.98015314 0.07013536 -0.18542095 
0.58550394 0.7101596 -0.3909714 
0.7848459 0.5766189 0.2269971 
0.8524785 -0.177655 0.49164954 
0.29006648 -0.24898116 0.92405075 
0.31830487 0.13386804 0.93848896 
0.09844532 0.6094916 0.7866566 
0.5485324 0.64813244 0.52823913 
0.16076057 0.62996536 0.75980246 
-0.05108946 0.53252655 0.8448701 
-0.2730651 0.2651905 0.92472136 
-0.67047983 0.06901598 0.7387108 
-0.12897919 0.7282633 0.67305046 
-0.39785698 0.66711825 0.62981194 
-0.78226954 0.54342866 0.3045321 
0.024752602 0.60684824 0.7944322 
-0.32343084 0.5851585 0.74362767 
0.52385485 0.4828298 0.7017489 
0.47424376 -0.53173697 0.7016757 
0.8471275 -0.18916231 0.496581 
0.8313366 0.12783067 0.5408685 
0.4803853 0.6934614 0.53697413 
0.8516274 0.13036507 0.5076767 
0.7491841 0.1865094 0.63556075 
0.7736874 0.537549 0.3353339 
0.9369569 0.2893215 0.19597185 
0.20928966 0.34979212 0.91315025 
0.26547733 0.8610688 0.43368477 
0.4620273 0.63505554 0.61906004 
-0.09664941 0.51595557 0.8511456 
-0.07907729 0.5643385 0.8217475 
-0.19000044 0.66735184 0.72009826 
-0.09269447 0.66517574 0.74091095 
-0.31944802 0.64950025 0.6900018 
-0.12745078 0.91177684 0.39040914 
0.80919296 -0.017707597 0.58727616 
0.7141025 -0.3338522 0.6153051 
-0.2548998 0.3026434 0.91838616 
-0.7668483 0.20386401 0.6085911 
-0.72917616 0.26737168 0.62993217 
-0.46145064 -0.80357194 -0.37594616 
-0.39290285 0.8234389 -0.40936032 
-0.5460522 0.6964852 -0.46554855 
-0.20267169 0.97920537 0.008998659 
-0.12696491 0.9861113 -0.1070731 
-0.5439088 0.53692293 -0.64488536 
-0.6490997 0.4758288 -0.5935122 
-0.29341 0.8840827 0.36374238 
-0.25435114 0.96394324 -0.07822408 
-0.18945585 0.67844415 -0.7098028 
-0.28982773 0.95681876 -0.022314291 
0.29535365 0.943267 -0.15170282 
0.43398437 0.89495265 0.103524216 
0.49382523 0.86696154 0.067188874 
-0.005408691 0.7448057 0.66725945 
0.4401464 0.8158938 0.37495127 
0.30099696 0.7045596 0.64264816 
-0.16770145 0.842106 0.51257557 
-0.0055510188 0.8744675 0.4850525 
0.037569564 0.54290867 0.83895105 
0.30366835 -0.5104465 0.80450606 
-0.008541567 -0.32008356 0.94735086 
-0.5682193 -0.16400023 0.80636895 
0.6436913 0.2997623 0.7041336 
0.7644042 -0.17470875 0.6206152 
0.54058945 -0.065084614 0.83876514 
0.45284584 -0.49784327 0.7396504 
-0.6669916 -0.30546546 0.67956835 
0.19340955 -0.1789501 0.9646604 
0.32588345 -0.31473944 0.89148146 
-0.115756474 0.683697 0.7205269 
-0.5645534 0.6958604 0.44391203 
-0.87932146 0.3520564 0.3207024 
-0.6476739 0.57359207 0.5015085 
-0.06637386 0.63736165 0.76770097 
-0.2904087 0.3667333 0.88383794 
-0.68405575 0.13931213 0.71600276 
-0.49309096 0.6616059 0.5649239 
-0.7126228 -0.22511835 0.6644475 
0.09164215 0.56439644 0.8204014 
-0.1920644 0.53826493 0.8205988 
-0.29155543 -0.52252424 0.8012265 
-0.2891409 0.36158875 0.88636965 
-0.44048253 0.5670894 0.69597757 
-0.07913862 0.14532608 0.9862137 
-0.67771953 -0.5271702 0.51262844 
0.52788275 0.2774247 0.80272996 
0.57363766 -0.17994761 0.79909873 
0.37911898 -0.058036115 0.9235262 
0.43612483 -0.2896766 0.8519875 
0.17602776 -0.017959068 0.9842214 
0.37008545 -0.4573281 0.80863327 
0.12030563 -0.64069325 0.7583132 
-0.49341562 -0.14454195 0.85769975 
-0.6100847 0.14359194 0.7792163 
0.054443184 -0.50704587 0.86019796 
0.37726295 -0.2979323 0.8768747 
-0.32803357 -0.76969033 0.54769593 
-0.9979723 0.063581996 -0.0029610693 
-0.84941834 0.35291836 0.39234826 
-0.7494766 -0.41310313 0.51733035 
-0.86030674 -0.41037092 0.30243683 
-0.8284687 0.17997968 0.53032726 
-0.8337845 0.22456422 -0.5043554 
-0.6531503 0.50966614 -0.5600314 
0.13440038 0.71676946 -0.6842354 
-0.03387731 0.52094024 0.8529208 
0.20561662 0.8322763 0.51481843 
0.11310739 0.8520241 0.5111377 
0.69170463 -0.20330793 0.6929723 
0.78821886 0.2303018 0.57067704 
0.6309676 -0.09666669 0.7697633 
0.731609 0.016781013 0.68151796 
0.09550187 0.54456276 0.8332651 
0.2281029 0.43638596 0.8703657 
-0.74849606 -0.17696264 0.6390915 
-0.51422065 -0.28263268 0.80975056 
-0.010841283 -0.358787 0.93335646 
0.16077295 -0.096992046 0.98221415 
0.23691228 -0.7274352 0.64398044 
0.22943039 -0.94978166 -0.21278267 
0.8725038 -0.4034439 -0.27562687 
0.94237405 -0.1340303 0.3065406 
0.6463826 0.37961635 0.6618769 
0.58579504 -0.04584383 0.80916166 
0.71845967 -0.26557744 0.642872 
-0.037826512 -0.03808776 0.9985583 
-0.70900047 0.14701374 0.6897141 
-0.08254444 0.5471401 0.8329611 
0.41975543 0.83619195 0.35297117 
0.58752847 0.56708807 0.5772534 
-0.12438314 0.97747284 0.17051624 
0.06822677 0.80568653 0.5883998 
0.7772459 0.53832364 0.32572457 
0.30781674 0.42206916 0.85270536 
-0.24467492 0.3619364 0.89952004 
-0.16812721 0.6297132 0.7584158 
0.052297752 0.64493144 0.76244897 
0.31243306 0.7715832 0.55411655 
-0.086023115 0.026527632 0.9959399 
0.25681615 -0.16267197 0.95267177 
0.19636966 0.7932596 0.57634896 
0.7426649 0.60929143 0.2778721 
0.68811387 0.681833 0.24819975 
0.6230524 -0.041776024 0.7810637 
0.5006712 0.6050741 0.6190426 
0.11962546 0.5350972 0.8362779 
0.17327271 0.51919556 0.8369066 
0.33181772 0.64845186 0.68513304 
-0.32443303 0.6490266 0.688119 
-0.4405529 0.74675316 0.49827 
-0.076694846 0.88362354 0.46187368 
-0.34680155 0.9071049 0.23851538 
0.12257055 0.9008316 0.4165083 
0.30012754 0.8538713 0.425238 
0.9420793 -0.2216356 0.251723 
0.4182736 0.3789183 0.82551086 
0.34824598 0.8966899 0.27326187 
-0.0054571787 0.7410359 0.6714433 
-0.6523781 0.2405014 0.7187225 
0.54514146 0.13602357 0.8272354 
-0.15806395 -0.026860822 0.98706347 
-0.71537256 0.17660657 0.6760564 
-0.687651 0.58178407 -0.43435398 
-0.695986 0.09273874 -0.7120415 
0.56596446 0.3222385 -0.75884557 
0.46488354 0.8657344 0.18543808 
0.30050367 0.9190388 0.2550789 
0.31996006 0.9472932 -0.016161762 
0.75180525 0.65227693 0.09655909 
0.60330045 0.084880054 0.7929843 
-0.033416398 -0.1649544 0.985735 
0.054538876 0.0109512275 0.99845165 
0.47388834 0.502664 0.7230207 
0.3228668 -0.3260299 0.8885165 
0.4382753 -0.22272286 0.8708096 
0.0068778843 0.5648483 0.8251661 
-0.14423102 0.71338594 0.6857681 
0.19121127 -0.25145578 0.9487931 
-0.67036754 0.10290598 0.734859 
-0.12121942 0.31598082 0.9409899 
-0.20991832 0.83460146 0.5092885 
-0.75676286 0.32235646 0.56867963 
-0.5015184 0.86503965 0.013631837 
-0.09895301 0.91499895 -0.39113337 
0.0579775 0.8172263 0.5733934 
0.4772098 0.8504223 0.22147822 
-0.1478539 0.98037726 0.1303833 
0.384465 0.9099607 -0.15542954 
0.78631294 0.607053 0.1148862 
0.62808585 0.5714368 0.52817446 
-0.094000734 0.0788176 0.9924473 
0.06327034 0.22614935 0.97203577 
0.24267577 0.54978627 0.7992769 
0.39090508 0.009913206 0.9203777 
-0.113997556 0.4303847 0.8954181 
-0.21347308 -0.31012443 0.92641896 
-0.532806 0.7111863 0.45861956 
-0.37400833 0.21506646 0.90214425 
-0.7247717 0.38135457 0.5738247 
-0.9203719 0.38197774 -0.08371852 
-0.3462857 0.8165718 0.46184084 
-0.46646646 -0.40796065 0.7848422 
-0.26029715 0.72701377 0.635371 
-0.4307664 0.8985565 -0.083884224 
-0.30681276 0.5084343 -0.80458724 
-0.9074841 0.39295116 -0.1485326 
0.2616906 0.7548729 -0.6014025 
0.014773023 0.88821995 -0.45918098 
0.2218321 0.80131835 -0.55558926 
0.02386065 0.872403 -0.48820454 
0.29196614 0.94124097 -0.16976812 
0.17636693 0.9721938 0.15405883 
-0.07212492 0.94409376 0.32169107 
-0.054680765 0.9891354 0.13645956 
-0.3856709 0.20826615 0.8988233 
0.32451546 0.6434428 0.6933045 
0.89583427 -0.209196 0.39206898 
0.6797347 -0.49611747 0.5402112 
0.40389937 -0.19681226 0.8933813 
0.3754231 0.10733113 0.92061806 
-0.1972295 0.15153112 0.96857566 
-0.8957977 0.15437903 0.41678956 
-0.9010388 -0.35183105 0.25366104 
-0.97833717 0.042804472 0.20254412 
-0.64113325 -0.3936043 0.65880495 
-0.89287513 0.19969858 0.40360177 
-0.7994632 0.41487584 0.43443817 
0.012010173 0.8572808 0.5147092 
0.2661395 0.70175046 0.66084504 
-0.15184937 0.35592023 0.9220969 
0.44644135 0.31588602 0.83720136 
-0.3937936 0.66624016 0.6332856 
0.4837216 0.5811692 0.65441257 
-0.04977588 0.4394197 0.8969018 
-0.3052411 -0.07583487 0.94925076 
0.6666493 -0.10279635 0.7382491 
0.5624982 0.10336269 0.82031214 
0.37520942 0.6528507 0.65803033 
0.44400123 0.5293622 0.7229376 
0.5019565 0.7785888 0.37661558 
-0.17714189 0.2994185 0.9375336 
0.008416672 0.25481915 0.96695215 
0.46989185 0.2749283 0.8388184 
-0.26917005 0.44114652 0.85611755 
-0.09183362 0.6427708 0.7605342 
0.3008537 0.35374302 0.8856371 
-0.23348832 0.16308136 0.9585864 
-0.16195504 0.59062165 0.7905293 
-0.054339092 0.2969701 0.9533395 
-0.8420765 0.26809287 0.4680101 
-0.35068896 0.822804 0.44722593 
-0.4725714 0.80830705 0.35116392 
-0.92239696 0.38391232 0.042370047 
-0.86464655 0.49107632 -0.10597324 
0.55071867 0.82727754 0.11099891 
0.6532121 0.74819857 -0.11624528 
0.57035065 0.62950736 0.5276558 
0.8598976 0.427583 0.27883494 
0.5790774 -0.10810947 0.8080728 
0.73748034 0.16022918 0.6560864 
-0.06513139 -0.023870282 0.9975912 
0.1784669 0.8428563 0.5076838 
0.24192229 0.52082527 0.81866646 
0.6688711 0.5294409 0.52182746 
0.0897681 0.30612424 0.9477498 
0.13396691 0.27720037 0.95142674 
0.010927923 0.08076578 0.9966733 
0.05763178 0.59086186 0.80471176 
-0.68645203 0.7251482 -0.054256782 
-0.15139149 0.61469257 0.7741019 
-0.70023483 0.33828455 0.628677 
0.32367066 0.59383345 0.73661333 
0.3713904 0.12620214 0.91985995 
0.010321487 0.10039004 0.9948947 
0.42785504 0.85325164 0.29816377 
0.90485185 0.26290298 0.33485094 
0.7010128 0.2487901 0.6683447 
0.81583446 -0.0037245909 0.5782737 
0.53508705 0.26131985 0.80336404 
0.47842988 -0.22416253 0.8490324 
0.41940576 0.048888795 0.90648156 
0.4528466 0.75055933 0.48123896 
0.6114634 0.52415 0.5927726 
0.18032907 0.91491884 0.36111644 
0.17374791 0.8155974 0.55191714 
0.16055393 0.5503982 0.81931955 
0.62882996 0.24810135 0.736898 
-0.0891105 0.55457157 0.8273511 
-0.24433926 0.52139205 0.81758714 
-0.458412 0.8285889 0.32140145 
0.5588675 0.3352265 0.75847894 
0.32150358 0.3876967 0.86390203 
-0.606136 0.40750423 0.6830369 
-0.19869907 0.7299059 0.6540306 
-0.033620253 -0.12282148 0.9918592 
-0.8326484 -0.17570768 0.525189 
-0.8876031 0.06224905 0.45638362 
-0.3607884 0.93022376 0.06719854 
0.06204986 0.8886848 0.45430073 
-0.64104325 0.51083434 0.5728105 
-0.77827454 0.45285952 -0.43497953 
-0.61317396 0.7869109 -0.06920269 
-0.10349514 0.83367413 0.5424724 
0.11480452 0.9411813 0.3178016 
-0.42415586 0.8617233 0.2784326 
-0.23888506 0.96941644 0.056264173 
-0.09616771 0.9628591 0.25229764 
-0.051249646 0.804657 0.59152395 
0.7345361 0.6112943 0.29457787 
0.92148715 0.007226381 0.38834178 
0.58353454 0.409056 0.7015417 
0.33702755 0.91867715 0.20602143 
-0.30955124 0.7471988 0.58810884 
0.35019535 0.635543 0.68807584 
-0.18959367 -0.16044141 0.96866554 
-0.4468257 0.5260775 0.7235948 
-0.23482637 0.15546112 0.95952517 
-0.5750612 -0.056101974 0.8161845 
0.29791355 0.261898 0.91796356 
0.038865943 0.64615035 0.76221997 
0.18155754 -0.6545365 0.7339066 
-0.06684732 -0.54934657 0.83291656 
-0.25981957 -0.94986826 0.17390841 
-0.354197 -0.340043 0.8711574 
-0.27342278 0.46211463 0.84361726 
-0.11624663 0.7257607 0.6780548 
-0.68907684 0.20707206 0.69447416 
-0.0060018194 0.42859197 0.90347826 
-0.5199251 0.23598431 0.8209686 
-0.5073815 0.5734268 0.6432308 
-0.5545491 0.22477238 0.8012195 
-0.87276214 0.17169932 0.4569525 
-0.509647 0.4307777 0.74477553 
-0.2637774 0.11033895 0.958252 
-0.13681754 -0.43610042 0.8894366 
-0.08325992 0.124998525 0.98865724 
-0.3981091 -0.1688958 0.901656 
-0.5081693 0.335729 0.7931268 
-0.23223677 0.43122798 0.87184215 
-0.26988187 -0.17966129 0.945984 
-0.48402315 -0.36426923 0.79563147 
0.735755 0.08607146 0.67175615 
0.85454917 -0.34576574 0.38754606 
0.7988601 -0.06982671 0.59745044 
0.40822893 -0.48802328 0.7714807 
0.58730453 -0.7585507 0.28226644 
0.09648094 -0.3871463 0.91695654 
0.24219456 0.0858946 0.9664181 
0.17684917 -0.67786217 0.7136017 
0.5379351 -0.20539902 0.81758004 
0.6962309 -0.57333654 0.43191195 
0.5550874 -0.33211303 0.76261324 
-0.22529018 -0.48548967 0.8447155 
-0.86052454 0.106267035 -0.49820182 
-0.94689304 0.051533148 0.31739238 
-0.80618304 0.34742627 0.47891963 
-0.84256285 0.28782535 0.45524126 
-0.8709445 -0.11015667 0.47887504 
-0.7252439 0.6882598 0.017881501 
-0.3438847 0.83975863 0.4201772 
0.12485816 0.99205035 0.015704079 
0.15390198 0.7276576 0.66845244 
0.62249625 0.76729494 0.15413278 
0.7647877 0.64360654 0.029506711 
0.7598007 -0.10544309 0.64154875 
0.856626 -0.15556255 0.4919271 
0.576719 0.80198485 0.15561321 
0.3135681 0.393302 0.8642851 
0.07004838 -0.05542187 0.99600285 
-0.0696524 -0.14187638 0.98743093 
-0.6766019 -0.06977277 0.733036 
-0.4069574 -0.77214044 0.48804185 
0.0018700017 -0.2909083 0.9567491 
-0.020104721 -0.28761718 0.9575345 
-0.30050758 -0.83359474 0.46348155 
-0.38681963 -0.7567617 -0.52695566 
0.07484572 -0.1566524 -0.98481375 
0.99572045 0.0777587 -0.049945477 
0.6737257 0.55527633 0.4876083 
0.26001284 -0.063194335 0.96353513 
0.58112013 0.3009881 0.7561123 
0.30630806 0.5934275 0.74432474 
-0.031995084 0.7873003 0.6157391 
0.5162791 0.16137926 0.8410783 
0.49762446 0.05473224 0.86566406 
0.5228943 0.5483499 0.6526055 
0.24329641 0.7575865 0.6056976 
-0.16181637 0.9523669 0.25848177 
0.30741078 0.80946493 0.5002652 
0.7222933 0.014516351 0.6914345 
0.036773767 -0.39653823 0.9172814 
0.8266224 0.32057807 0.46252042 
0.119137935 0.0898294 0.9888058 
0.019908946 0.46332198 0.8859665 
0.09500428 0.23514555 0.967306 
0.87755525 -0.44953245 0.16678546 
0.91316307 -0.18893921 0.36115828 
0.4489292 -0.18249476 0.8747333 
0.6061781 0.23910257 0.7585368 
0.6972048 0.28715214 0.6568479 
0.54688835 0.33581305 0.7669046 
0.67057794 0.54877746 0.4991679 
0.6702389 0.3220687 0.66861916 
-0.009485575 0.5876197 0.8090816 
-0.36589795 0.058119815 0.92883843 
-0.18368259 0.081342295 0.9796143 
0.11793589 0.48088327 0.8688167 
-0.379238 0.6391401 0.6690878 
0.07519451 0.87425566 0.47960714 
0.56463504 0.73162806 0.38197866 
0.820147 -0.036773644 0.57096994 
0.8090076 0.5580155 0.18473077 
0.47409394 0.5605509 0.67898285 
0.6835215 0.061523438 0.72733295 
-0.05111928 -0.07814876 0.99563026 
0.23693192 -0.7240007 0.647832 
-0.011550449 0.3606134 0.93264395 
-0.22234707 -0.022677777 0.9747038 
-0.45360687 0.82628703 0.333902 
0.43328768 0.6920925 -0.57729536 
0.45836508 0.6143848 -0.6422093 
0.4028302 0.9113287 0.08489903 
0.14907466 0.97648 0.15576805 
0.46385846 0.5830366 0.667011 
0.47801116 -0.13330801 0.86817884 
0.41457275 0.22382133 0.882062 
0.15233092 0.6294316 0.76197857 
0.23140785 -0.029124606 0.9724208 
-0.56616396 -0.11992581 0.8155221 
-0.059304547 0.43339944 0.8992486 
0.22909276 0.70907545 0.6668798 
0.3946527 0.47347182 0.78744763 
0.46631232 0.17204349 0.8677291 
-0.23782131 0.31037197 0.920386 
0.0026881318 -0.1521286 0.98835707 
-0.20981643 -0.41858846 0.8836067 
0.08359368 0.6935988 0.7154948 
0.20865518 -0.09469635 0.9733939 
-0.7210884 0.4908538 0.48897243 
-0.5488545 0.25286514 0.7967546 
-0.36887598 0.25433365 0.89400506 
-0.0008869764 0.8382255 0.5453231 
-0.21182914 0.594669 0.7755625 
-0.28909954 0.940676 0.17762402 
0.22527204 0.9366546 0.26819906 
0.15608439 0.21782659 0.9634259 