# OOMMF: rectangular mesh v1.0
# Segment count: 1
# Begin: Segment
# Begin: Header
# Desc: Time (s) :  1.5099999999999988e-07
# Title: m
# meshtype: rectangular
# meshunit: m
# xbase: 2e-09
# ybase: 2e-09
# zbase: 5e-10
# xstepsize: 4e-09
# ystepsize: 4e-09
# zstepsize: 1e-09
# xmin: 0
# ymin: 0
# zmin: 0
# xmax: 1.024e-06
# ymax: 1.024e-06
# zmax: 1e-09
# xnodes: 256
# ynodes: 256
# znodes: 1
# ValueRangeMinMag: 1e-08
# ValueRangeMaxMag: 1
# valueunit: 
# valuemultiplier: 1
# End: Header
# Begin: Data Text
-0.058786325 0.98761624 -0.14545915 
-0.58121884 0.7918639 -0.18744628 
-0.5969885 0.79701537 -0.091494 
0.2406759 0.24049085 0.94034 
-0.09223163 0.6025558 0.7927294 
-0.26132926 0.16347386 0.95130616 
-0.45251766 0.5393555 0.71015733 
-0.6897845 0.45686758 0.56166667 
-0.36039203 0.8908552 0.27657682 
-0.8504898 0.51419663 -0.11076544 
-0.88086474 0.09122335 0.464495 
-0.32840565 0.88857 0.3203017 
0.5500878 0.8331207 0.057562683 
0.12659532 0.7238965 0.67819434 
0.45080903 0.40007082 0.79794407 
0.19374748 0.86864066 0.45598817 
-0.025059972 -0.19298063 0.9808825 
-0.34566683 0.07321154 0.9354969 
0.17709117 -0.6249517 0.7603119 
0.42790395 -0.16650152 0.88835543 
-0.7274227 -0.073331 0.68226004 
-0.7291855 0.066525064 0.68107486 
-0.735783 -0.023672214 0.67680365 
-0.31445894 0.9218133 0.22666241 
-0.41434136 0.8437976 -0.3410672 
-0.9231194 0.36380154 -0.12449563 
-0.22056936 0.8958139 0.38583264 
-0.4790981 0.368605 0.79661506 
-0.5926299 0.6596141 0.462276 
-0.86917144 -0.20169419 0.4515092 
-0.90433383 -0.1944819 0.37994367 
-0.9620059 -0.2308997 -0.14570563 
0.5359815 0.5819803 0.61157405 
0.6823331 0.20818302 0.70077205 
0.94805855 0.2718917 -0.16510622 
0.35670054 0.5478169 0.75674397 
0.35154727 0.8161286 -0.45863786 
0.2112354 0.92599916 0.31289816 
0.7992813 0.40363148 -0.44523174 
0.5861192 0.7001922 -0.4076705 
0.83482194 0.18640089 -0.5180031 
0.90787363 0.087987706 0.40990704 
-0.09919007 0.9041692 0.41549903 
-0.2626688 0.16405883 0.9508364 
-0.1043011 0.5190598 0.8483503 
-0.30587143 0.86574537 0.39614105 
-0.6908911 0.7172055 0.091026604 
-0.4733914 0.7398076 0.47810608 
0.15257043 0.95170665 -0.26641467 
0.07742866 0.52311957 0.8487349 
-0.52695704 0.80277705 0.2790435 
-0.93036866 0.10196247 0.3521618 
-0.7097532 -0.26494336 0.65272915 
-0.23346233 -0.19515225 0.9525813 
-0.2905788 0.18806812 0.93818676 
-0.50777924 -0.103371635 0.8552628 
-0.9964862 0.0033783736 0.0836902 
-0.95400375 0.23992881 -0.17975304 
0.5758431 -0.06941649 -0.8146079 
0.02159016 0.9989564 -0.040251862 
-0.26246724 0.95866317 -0.10989017 
0.94949794 0.30343968 -0.07986229 
0.14802411 0.1100983 0.9828363 
-0.1284536 0.38793015 0.9126938 
-0.35982302 -0.0100914 0.9329661 
-0.4541277 -0.3171788 0.83256567 
-0.2791778 -0.2788451 0.91886085 
-0.5968485 0.14192979 0.78970116 
-0.6133562 0.5311009 0.5845734 
-0.4353909 0.22851427 0.87075603 
-0.68584573 0.72748095 0.019677524 
0.008621746 0.9985495 -0.053146955 
0.49262956 0.5900978 -0.6396098 
0.52414817 0.7595984 0.38507012 
-0.011102902 0.6696383 0.74260443 
0.2986795 0.58162254 0.7566412 
0.5207837 0.09366601 0.84853464 
0.2226806 0.5171304 0.8264318 
0.2641242 0.7251971 0.63586766 
0.3228006 0.4902012 0.80963117 
-0.12754141 0.9729695 0.19251901 
0.5287152 0.69146836 0.4922721 
0.6499108 0.75465953 -0.090027735 
0.9036087 0.42825598 -0.009401369 
0.32795468 0.7672866 0.5511053 
-0.41162527 0.7473744 0.5215326 
0.26274428 0.96482414 0.008939344 
-0.07022328 0.7341231 -0.6753755 
0.72814715 0.65390027 -0.20546584 
0.39274144 0.40179136 0.8272352 
-0.59923303 0.37661123 0.7064587 
-0.16622709 0.9660068 -0.19798867 
-0.15639813 0.2693387 0.9502612 
-0.20145972 0.70117986 0.6839304 
-0.4458345 0.8029139 0.39567807 
0.08844016 0.75990325 0.6439917 
-0.17363946 0.21612722 0.96080095 
-0.14671524 0.39592507 0.9064866 
-0.39971483 0.684247 0.609946 
-0.38244933 0.4918119 0.7822107 
-0.5758966 0.56827813 0.5877101 
-0.209302 0.37834743 -0.9016906 
0.05688445 0.9029526 -0.42595854 
-0.0028082998 0.844535 -0.53549325 
0.018999878 0.97987443 -0.19870885 
0.8139629 0.55642295 -0.16690713 
0.50155973 0.82417136 -0.26301965 
0.7655474 0.40956149 0.4961819 
0.9288484 0.3259325 -0.17609316 
0.8029695 0.5912053 -0.075606145 
0.50101084 0.30844507 0.8086097 
0.35048798 0.078086644 0.93330634 
0.34612072 0.12150042 0.93028927 
0.14112923 0.5464443 0.82551885 
-0.03459186 0.4697169 0.88213915 
-0.26359057 0.6687383 0.69520444 
0.058446437 0.3834979 0.9216906 
0.42052403 -0.4359812 0.7956633 
-0.030859856 0.1301186 0.9910181 
-0.16487934 -0.17384459 0.9708723 
0.3182009 0.8511432 0.41749656 
0.4968752 0.23161422 0.8363431 
0.1858249 0.2346028 0.95416486 
0.033493157 0.005889541 0.9994216 
-0.14233424 0.39792904 0.9063077 
-0.41921198 0.84190977 0.33977848 
0.261829 0.88389605 0.38752222 
0.47112837 0.41066197 0.78063756 
0.5172489 0.8393686 -0.16707489 
0.15660147 0.9755905 -0.15394528 
0.19343463 0.8355704 0.5142036 
0.16108868 0.7958546 0.58366597 
0.14296614 0.8647979 0.48133707 
-0.07835478 0.67352676 0.7349981 
0.30832434 0.60575724 0.73348093 
-0.5378105 0.24132223 0.8077893 
-0.36522177 0.766272 0.52862114 
-0.9212695 0.38028264 0.08153313 
-0.9700433 0.12979296 0.20535302 
-0.7014265 0.6929027 0.16699323 
-0.69028854 0.5540709 -0.46530336 
0.43024483 0.70856625 0.55930614 
-0.31468108 0.758927 -0.5700927 
-0.8169849 0.5646105 0.11726376 
-0.93297464 0.1876888 -0.30713397 
-0.8897163 -0.43693706 -0.13225266 
-0.90901 0.1460505 0.39034614 
-0.018243328 0.81631625 -0.5773171 
-0.30018586 0.52632195 -0.79553354 
0.47429037 0.6376059 -0.6070481 
0.40806773 0.40181312 -0.8197725 
0.29360852 0.8513561 -0.43472615 
0.7324705 0.010315625 0.6807207 
0.49383575 0.20279205 0.8455777 
0.3394689 0.09693586 0.93560904 
0.6958994 0.028429719 0.7175763 
-0.032497093 0.09842202 0.99461406 
0.4802797 0.6553846 0.5829258 
-0.691075 0.62891966 0.35619572 
-0.939391 0.2810543 0.19634934 
-0.7513683 0.27250537 0.60098803 
-0.6872036 0.12909268 0.714903 
-0.98471993 -0.012105467 0.17372434 
-0.7448893 0.112558715 -0.65762496 
0.24887116 0.56878847 -0.78392786 
-0.4048552 0.8787483 -0.2527721 
-0.52840513 0.8355904 -0.15025553 
-0.020493686 0.28105983 -0.95947146 
0.71191806 0.5687556 -0.4119343 
0.5818644 0.5143816 -0.62995666 
0.123221934 0.93792284 -0.32421806 
0.5621568 0.5822289 -0.58735794 
-0.058388073 0.97231966 -0.22624202 
-0.5290605 0.84025115 -0.118629426 
-0.6086539 0.7808064 0.1410034 
-0.5849045 0.801207 -0.12630951 
-0.36201465 0.679259 -0.63839847 
0.15742446 0.98342836 -0.08992394 
-0.29140654 0.9548687 0.057516214 
-0.9527326 0.21884613 -0.21072984 
-0.41189292 0.8768443 0.24796842 
-0.9398419 0.23978561 0.24331065 
-0.27554217 0.9581223 -0.07796274 
-0.6927089 0.6439551 -0.32477108 
-0.37490124 0.06669776 -0.9246624 
0.15476254 0.097414315 -0.9831373 
0.5853407 0.47248706 -0.65888727 
0.2564582 0.6972237 -0.669409 
0.9896427 0.14355133 0.0006536728 
0.70497125 0.7036249 -0.0890372 
0.8632167 0.47916228 0.1589355 
0.99191415 0.08714153 0.09226443 
0.42614526 0.89949584 -0.096475445 
0.11569053 0.9510236 0.2866531 
0.06272533 0.33850753 0.9388707 
0.501287 0.69333625 0.5176835 
-0.0063686334 0.5327927 0.8462218 
0.18986596 0.0031352495 0.9818051 
-0.10053292 -0.39925176 0.9113129 
0.29993123 0.43928215 0.84680134 
-0.0084794415 0.33960864 0.94052863 
0.73684025 0.4207045 0.5292204 
-0.07245962 0.23106979 0.9702353 
-0.5654727 -0.2747253 0.77766746 
0.34866235 0.9061023 0.23961037 
0.01924206 0.9730755 -0.22968228 
0.59256816 0.8044191 0.042107068 
0.29731953 0.8247698 0.48099467 
-0.5330018 0.06190589 0.84384644 
-0.15922405 0.1037229 0.9817786 
-0.91244763 -0.3174932 0.25814253 
-0.5805756 -0.6846735 0.44062945 
-0.893407 -0.14621958 -0.42478675 
-0.6952858 -0.5688355 -0.43932202 
-0.75654453 -0.21926203 -0.61608803 
-0.865168 0.2284578 -0.4464208 
-0.50192994 -0.8418798 0.19825476 
-0.9437695 0.05503742 -0.3259909 
-0.9237388 0.29994962 -0.23819534 
-0.64457214 0.7462019 -0.16646217 
-0.24474311 -0.24909486 -0.9370446 
-0.4515332 0.46271923 -0.762895 
0.115251616 0.79713327 -0.59270203 
0.5080494 0.67214596 -0.5386146 
0.6853471 0.5175364 0.5123041 
-0.21007885 -0.102790795 0.9722659 
-0.6817997 0.21844518 0.69816256 
-0.9726955 0.11307495 0.20267604 
-0.37495574 0.4618411 0.80381036 
-0.54590774 0.790039 0.2789683 
-0.5670891 0.59233296 0.57232136 
-0.6978851 0.69305 0.18066046 
-0.40797397 0.9097785 0.07655415 
-0.08178577 0.6906929 -0.7185085 
0.8268962 0.46293622 0.3192691 
0.6456297 0.08084306 0.7593595 
0.4963798 0.37314996 0.7838152 
0.048261877 0.17091237 0.9841036 
0.07082675 0.9100255 0.40845713 
0.16778608 0.8482711 0.50227904 
-0.62205344 0.42425853 0.65806866 
-0.8035164 -0.47317973 0.36119583 
0.45455167 0.06419028 0.8884044 
0.27592447 0.10018463 0.95594394 
0.37814346 -0.4235819 0.8231562 
0.009309745 -0.28267208 0.9591714 
-0.10966914 0.12524989 0.9860452 
0.7105688 -0.6935301 0.11877745 
0.123434834 0.19652827 0.97269756 
-0.010201192 0.19229896 0.98128337 
-0.0069696354 0.2793274 0.9601707 
-0.31107172 -0.31244692 0.8975586 
0.3433827 0.017473271 0.9390331 
-0.31329277 -0.08269714 0.9460491 
-0.4306513 -0.7987301 0.42020217 
-0.33251905 -0.73224497 -0.59434706 
0.09446417 0.8324246 0.5460274 
0.34622395 0.9220663 0.17298208 
0.57301617 0.8178569 -0.0525615 
-0.33961445 0.9001384 -0.27278757 
-0.29529756 -0.29157925 0.9098246 
-0.10534339 0.002467964 0.9944329 
0.01233343 -0.20656577 0.97835505 
0.15274155 0.33103412 0.93117476 
0.026868159 0.6389352 0.76879126 
-0.6054445 0.68203515 0.41020143 
-0.5316468 0.5969309 0.6008538 
-0.26948836 0.48105237 0.834245 
-0.14946882 0.7124609 0.68560827 
-0.26895374 0.3478471 0.89814603 
0.10938451 0.6705948 0.73371506 
-0.18783219 -0.05391911 0.9807201 
-0.040265996 -0.64446884 0.76356965 
0.123276 -0.27506512 0.9534895 
-0.10085717 -0.38500455 0.91738725 
0.33155364 0.45349196 0.82729524 
0.38441554 0.44189218 0.81052816 
0.63256216 0.22250903 0.7418591 
0.43957308 -0.5607035 0.7017031 
0.38574988 0.21117248 0.8981109 
0.23730825 -0.040650237 0.9705835 
-0.17970419 0.6244061 0.760147 
-0.7318881 0.034193896 0.6805664 
-0.039930616 0.16954236 0.9847137 
-0.42799905 0.60639256 0.670153 
-0.8742701 -0.2372076 0.42353797 
-0.59540075 -0.510369 0.620501 
-0.7071719 -0.012463707 0.70693177 
-0.63054436 0.41253662 0.65744007 
0.081815384 0.53387004 0.84159917 
-0.38264945 0.88549703 0.2635801 
0.2618746 0.5432849 0.7976612 
-0.42571524 0.87791985 -0.21914187 
0.041081972 0.9981786 0.044180293 
0.5626744 0.6610912 -0.49634266 
0.20938861 0.97734314 -0.030931944 
-0.11448285 0.9239951 0.36486542 
-0.3471322 0.9258933 -0.14906698 
-0.086701356 0.8430691 0.5307707 
0.20281187 0.45514396 0.8670129 
0.08306579 0.21710974 0.97260654 
-0.35189942 0.848614 0.39499524 
-0.5157175 0.79981667 0.30712977 
0.27257562 0.8161513 -0.5095091 
0.18806969 0.75409305 0.6292643 
-0.22521697 0.5569814 0.79940546 
0.11507549 0.30352804 0.94584805 
-0.32387638 -0.42796603 0.84377086 
-0.8961997 0.2722 0.35033306 
-0.8564484 0.19664204 0.47731325 
-0.49599698 0.1958616 0.8459464 
-0.85330456 0.31795332 0.4132519 
-0.9849243 -0.1342548 0.10908688 
-0.38526353 -0.122323215 -0.91466343 
0.52298194 -0.6326165 -0.5712148 
0.11874291 0.8438133 -0.52333486 
0.4646576 0.73972136 -0.4867296 
0.19860326 0.95908725 -0.20176332 
0.8331717 0.5512076 0.044666454 
0.7818067 0.26716352 0.5633845 
0.28228757 -0.17870294 0.9425387 
-0.7155032 -0.17860332 0.6753933 
-0.6803581 -0.5680592 0.46305692 
-0.95346284 -0.2105131 0.21585369 
-0.45817047 0.8626794 0.21415907 
-0.6499455 0.618575 0.44151545 
-0.25073186 0.8458814 -0.47076356 
0.8646448 0.4829286 0.13845375 
0.19683431 0.596832 0.7778483 
0.08110165 0.6490662 0.7563966 
0.455338 -0.32836172 0.82755417 
-0.5019084 0.2643622 0.8235294 
-0.10976189 0.3567424 0.9277323 
-0.3233679 0.19525056 0.9259106 
-0.09265026 0.34106362 0.93546337 
-0.2933339 0.016183708 0.9558731 
-0.22013812 0.73495555 0.6413888 
-0.07703529 0.6599577 0.74734294 
0.29760408 0.8365912 0.45994246 
0.57866937 0.4496087 0.68043655 
0.44522467 0.6122938 0.65335387 
0.3130614 0.6098105 0.72809607 
0.4732336 0.2779251 0.8359471 
0.44491416 0.8479619 0.28811803 
0.6054413 0.788918 0.10511542 
0.18581899 0.735766 0.65124476 
-0.23258784 0.44167796 0.86650074 
-0.58697313 0.32067403 0.7433914 
-0.5552676 -0.029513944 0.8311479 
-0.67383355 0.1400631 0.7254865 
-0.36114195 0.7135256 0.60038143 
-0.643633 0.5770781 0.5027101 
-0.3119393 0.34639865 0.8847045 
0.056067638 0.43814337 0.89715487 
-0.16552094 0.62485385 0.7629945 
-0.5426768 0.53951204 0.64376146 
-0.61260647 0.74902517 0.2523386 
0.29144728 0.9562932 -0.023702012 
0.6525759 0.7575517 0.016130706 
-0.024014924 0.956917 0.28936678 
0.487914 0.33753997 0.8049887 
-0.25548136 0.5991435 0.7587862 
0.56380755 0.11311363 0.8181237 
0.50643224 0.74931926 0.4266699 
0.48913407 0.79114556 0.3672012 
0.08731143 0.5721505 0.8154879 
0.28743312 0.3227619 0.9017799 
0.025687285 -0.097528756 0.9949012 
-0.04210309 0.118632525 0.9920453 
-0.46674338 0.41838583 0.77916884 
-0.05222785 0.43369585 0.89954454 
-0.26187617 0.08414222 0.9614266 
-0.26836857 -0.25626734 0.92860407 
0.014350314 -0.07448525 0.99711883 
0.18481371 -0.24817346 0.9509226 
0.2910629 0.24325876 0.9252609 
0.35222596 0.40557188 0.84347403 
0.12879856 0.51827204 0.84546155 
0.008782339 0.075215586 0.99712867 
0.57348454 -0.19020423 0.79683 
0.041450754 0.21775982 0.97512186 
0.14469346 0.8783762 0.4555428 
0.68889403 -0.18127155 0.7018302 
-0.036570173 0.8035764 0.5940773 
0.5140347 0.7017176 0.4933162 
0.10186553 0.93077916 0.35110354 
0.22611642 0.7374017 0.6364826 
0.28343135 0.49750105 0.81985337 
-0.039050207 0.738079 0.6735834 
-0.2891233 0.14135735 0.9467977 
-0.038721927 0.07702697 0.9962768 
-0.2549018 0.40671438 0.8772733 
-0.96328515 0.2624727 0.05647933 
-0.550964 0.43697634 0.71097857 
-0.90871507 0.4158335 0.03632523 
-0.7727312 0.6294713 0.08156271 
-0.82042235 -0.4139924 0.39435694 
-0.3831888 0.34514746 0.85676116 
-0.2847865 0.8692291 0.4041503 
-0.4134386 0.8160582 0.40387836 
0.29311264 0.69842035 0.652912 
-0.53820103 0.47802484 0.6941412 
0.24069321 0.57095313 0.7849073 
-0.2601864 0.39407837 0.881479 
-0.23070544 0.9367095 -0.26334426 
-0.8247048 0.20902634 -0.52551866 
-0.51981395 0.84878546 -0.09672995 
0.08069374 0.9600944 0.2677823 
0.5245626 0.5884105 0.61531067 
0.5342144 -0.29723313 0.79137063 
0.6337427 0.30719304 0.7099315 
0.67204225 -0.39502743 -0.62634856 
0.10464901 -0.36254534 0.92607206 
-0.08923914 0.7585376 0.64549 
-0.21611372 0.45557308 0.863567 
-0.28078383 -0.0014003812 0.95977 
-0.873995 0.12573409 0.4693866 
-0.90237314 0.19597675 0.38381746 
-0.7207795 0.6880129 -0.08435154 
-0.7795235 0.62626654 0.0115506 
-0.39350522 0.8698744 0.2974428 
-0.29001135 0.77033544 -0.5678704 
-0.35080755 0.9318717 -0.092461586 
-0.4462019 0.21926716 -0.8676554 
0.58222973 0.6907 -0.4288848 
0.51810306 0.8409204 0.15627575 
-0.18841557 0.76087767 0.6209386 
-0.37614483 0.9232112 -0.07871568 
0.30854288 0.9120932 0.26997653 
-0.14925767 0.9882833 -0.031913117 
-0.46107712 0.76983184 0.44132385 
-0.004405116 0.76467603 -0.6444 
-0.28366664 0.8810245 -0.37858847 
0.17895192 0.9785069 -0.102471866 
0.30159125 0.93684477 0.1771009 
-0.38024354 0.9238656 -0.043443073 
-0.89924353 0.4144936 0.13984352 
-0.84748477 0.49858844 -0.18215136 
-0.6541207 0.67226225 0.34668374 
-0.42729887 0.8433995 0.325719 
-0.66271114 0.7143558 -0.22474374 
-0.20110227 0.85144645 -0.48435187 
0.35789347 0.28383186 -0.8895796 
0.18838085 0.61479837 -0.7658561 
0.40659493 0.8588782 0.31146234 
0.23397428 0.4687942 0.851756 
0.29162306 0.29303163 0.9105429 
0.25612053 0.42511004 0.86814964 
0.6108442 0.22817557 0.7581593 
0.08150362 0.40691334 0.90982354 
-0.1794779 0.2846173 0.9416903 
-0.05779545 -0.4216591 0.9049107 
-0.38684842 0.5785961 0.71803546 
-0.28014427 0.65665674 0.7002294 
0.6693573 -0.12695605 0.73201305 
-0.07026895 0.10837451 0.9916236 
0.085003756 0.27109432 0.95879215 
0.59425455 -0.3262221 0.7351468 
-0.08079462 0.2056247 0.97529006 
0.0039024628 0.5370716 0.8435277 
0.030167626 0.9528974 0.30178875 
0.6792081 0.6929525 0.24185403 
0.9873794 0.14830218 -0.05557362 
0.6327176 0.06322077 0.77179766 
0.027871722 0.29389998 0.9554298 
0.13766046 0.020314557 0.9902712 
-0.64984447 -0.13279852 0.7483761 
-0.6775078 -0.33138224 0.65663457 
-0.9592038 0.26229444 0.105498336 
-0.8415555 -0.2957134 -0.4520375 
-0.89053154 0.04521333 -0.45266935 
-0.99116796 -0.08252664 -0.10380501 
-0.8034507 -0.595354 -0.0045400225 
-0.71369296 -0.5932328 -0.37244776 
-0.9829264 0.10997962 -0.14751297 
-0.65077597 0.62366915 0.43304443 
-0.9257691 -0.28760174 -0.24543187 
-0.8808119 0.068776846 -0.4684445 
0.019457588 0.70367485 -0.71025574 
0.7466183 0.61896837 -0.24380194 
0.2217521 0.78232276 0.58206284 
0.2038392 -0.26024738 0.9437801 
-0.49850398 0.12830994 0.85733914 
-0.83149576 0.4947876 -0.25258705 
-0.4233234 0.1009151 0.90034074 
0.19478811 0.96422136 0.17981865 
-0.46448937 0.70167196 -0.5402834 
-0.5441069 0.83888954 -0.014561095 
-0.47027773 0.84347814 0.25958344 
-0.24528404 0.91616523 -0.3169813 
0.8370261 0.49887535 0.22474569 
0.58893275 0.53636706 0.60454005 
-0.33940145 -0.14470859 0.929444 
0.3310119 0.21408279 0.919021 
0.010829977 -0.03244602 0.9994148 
-0.49022156 0.46335846 0.7382288 
-0.7592511 0.5596143 0.3322193 
-0.58755434 -0.3284671 0.73951966 
-0.23624094 -0.5213312 0.82000256 
-0.41066903 0.5058553 0.7585918 
-0.16490205 -0.194549 0.9669323 
-0.15062726 0.0057245744 0.98857415 
-0.20328371 -0.41555548 0.88656044 
0.14641416 -0.15957901 0.97626716 
0.6564998 -0.37658393 0.6535997 
0.7462584 0.22377002 0.6269175 
0.83931756 -0.4546991 0.29798484 
0.45058882 0.2644966 0.8526496 
0.53324133 0.3942265 0.74849135 
0.32236382 0.039198928 0.94580394 
0.36236084 -0.76405865 0.53376865 
-0.12161813 -0.922618 0.36603975 
0.140638 0.8633167 0.4846703 
-0.027192425 0.99463624 -0.09979639 
0.021802157 0.55457836 0.8318459 
-0.0014024313 0.90298307 0.42967382 
0.53265196 -0.35876885 0.7665291 
0.07694144 -0.0018469002 0.99703395 
0.0016671029 0.1355728 0.99076605 
0.690468 0.5604608 0.4573158 
0.25536487 0.15323272 0.9546248 
0.29124448 0.27661887 0.91578317 
0.03996086 0.5450413 0.83745646 
-0.77783656 0.4220173 0.4656948 
0.10138493 0.7993407 0.59226316 
-0.09814605 0.31113514 0.9452843 
-0.25364792 0.18028648 0.9503471 
-0.09270318 0.47335958 0.8759777 
-0.007808763 0.48607445 0.8738825 
0.084714755 0.4082936 0.9089113 
-0.3145587 0.5129496 0.79870874 
-0.22410235 0.25194746 0.9414354 
0.16962944 0.25653642 0.9515329 
0.32230672 0.17553888 0.93021744 
0.78452325 0.07022051 0.61611074 
0.4834173 -0.23090632 0.8443873 
0.41906717 -0.62084675 0.6625195 
-0.18212865 -0.2977573 0.9371072 
-0.2137793 0.4789442 0.851417 
0.032408595 0.33473325 0.9417555 
-0.83127475 0.45326397 0.3217671 
-0.860981 0.37382856 0.3449118 
-0.5385396 0.489402 0.68590146 
-0.884197 0.09402829 0.4575526 
-0.7217346 0.28962263 0.62866366 
-0.39237028 0.028159892 0.9193762 
-0.6137587 0.7475065 0.25403604 
-0.5630008 0.52125144 0.64134794 
-0.8158348 0.36697784 0.4469239 
-0.87305534 0.4674792 0.13869947 
0.34405014 0.91689545 0.20231725 
0.5460204 0.8269445 -0.13425556 
0.49790478 0.4607173 0.7347316 
0.02677061 0.87224835 0.48832995 
-0.38722932 0.1656003 0.90698963 
0.32816344 0.49661106 0.8035461 
0.31351563 -0.12773056 0.94095325 
0.2504274 0.46465197 0.8493438 
0.511768 0.27692813 0.81326777 
0.56035984 0.8228753 0.09419717 
0.69517493 0.5455794 0.46805465 
0.05489416 0.14528747 0.9878655 
-0.03268664 -0.12824586 0.99120367 
-0.5353388 -0.12088475 0.8359422 
-0.56594306 0.15166476 0.81037414 
-0.74997187 0.5735171 0.32957605 
-0.2535719 0.878905 0.40401423 
-0.97286147 0.16570397 -0.16150172 
-0.88945943 -0.14707589 -0.43270153 
-0.18620512 -0.14588253 -0.9716203 
0.11035161 -0.30516922 -0.94588286 
0.41305703 0.66546243 -0.62172645 
0.76249677 0.64693964 0.008237839 
0.642798 0.51837826 0.56399894 
-0.008962874 0.24530272 0.9694052 
0.21450667 0.039633274 0.9759181 
0.30776614 -0.09543753 0.94666344 
-0.13146071 0.7165415 0.6850449 
-0.1940394 0.47289422 0.8594881 
0.004249592 0.8591119 0.5117703 
-0.19440559 0.8192952 -0.53940874 
0.2282325 0.6685723 -0.70775783 
0.2545649 0.80150646 -0.54109544 
0.3611121 0.6987182 0.6175686 
0.16516307 0.59654784 0.78539914 
0.35206896 0.14323848 0.92494875 
0.49139047 0.4738572 0.7307495 
0.67093337 0.22651453 0.70607334 
0.27468306 0.64225733 0.7155801 
0.19211109 0.0108266305 0.9813135 
0.68913674 -0.11545007 0.7153753 
0.60795665 0.39460322 0.6889682 
0.015495828 0.5106056 0.8596755 
0.3944687 0.58763254 0.70645773 
-0.28608593 -0.0033620435 0.9581981 
0.5288364 0.7190888 0.45082533 
0.6124459 0.5879859 0.52837735 
0.83221775 0.047476895 0.5524126 
0.85850763 -0.38837016 0.33486307 
0.4963373 -0.19778198 0.8452997 
0.6475581 -0.05614081 0.75994533 
-0.28756493 -0.09138531 0.9533914 
-0.1555652 0.004152366 0.98781693 
-0.79508424 0.34037498 0.501982 
-0.45215973 0.83131015 0.32322606 
-0.54506606 0.16894928 0.8211938 
-0.71507233 0.20337263 0.6688133 
0.21665281 0.08720611 0.97234595 
-0.26310536 0.07268243 0.96202546 
-0.32815078 0.33392486 0.8836352 
-0.3726933 0.47514933 0.7970777 
-0.2763718 0.6587912 0.6997235 
-0.70046234 0.46404073 0.5422351 
0.4842099 0.85504043 0.18559851 
0.18008147 0.9206171 0.34646055 
0.2024354 0.8573441 0.47326636 
0.87702423 -0.04776618 0.47806573 
0.40023038 0.83470947 0.37825367 
0.5130107 0.53216076 0.67351687 
0.72070473 -0.013140947 0.6931177 
0.55657935 -0.010276435 0.830731 
0.8183661 0.17417765 0.5476669 
0.7507486 -0.06560905 0.65732193 
-0.18102749 -0.050768647 0.98216677 
-0.082831435 -0.5488902 0.8317804 
-0.85526055 0.09691758 0.50905454 
-0.10117861 -0.05427802 0.99338657 
0.010267707 0.023144888 0.9996794 
0.14529099 0.26770803 0.9524825 
0.21822965 -0.17496343 0.9600852 
0.22484167 -0.36260855 0.9044122 
0.18497767 -0.24762958 0.9510325 
0.5827442 -0.18599156 0.7910856 
-0.16169825 0.4080424 0.89852947 
0.15741508 0.13052629 0.9788685 
0.35045972 -0.21440618 0.91170615 
-0.119341254 0.025018716 0.99253803 
0.3534026 0.39208746 0.84933746 
-0.06977069 -0.23061924 0.9705395 
-0.522644 -0.040905487 0.85156924 
0.34738934 0.3143215 0.883472 
0.42835438 0.33044294 0.84102315 
0.25037363 0.3735017 0.89320195 
0.5348799 0.27706143 0.7982108 
0.039513137 0.69729877 0.7156908 
-0.10994104 0.11071971 0.98775214 
-0.09340825 0.11433343 0.9890413 
-0.1364266 0.18032286 0.9741004 
-0.21846029 -0.4457458 0.86809325 
0.31196603 0.082321435 0.9465202 
-0.5952669 0.1226009 0.79411983 
-0.8115405 0.18115896 0.55550295 
-0.819983 0.570825 0.04226915 
-0.40838158 0.59877026 0.68898386 
-0.019848863 -0.23514396 0.9717579 
-0.16082826 0.927551 0.33731815 
-0.17881316 0.7890926 0.5876725 
-0.5458858 0.79686236 0.25888085 
-0.3308474 0.41902298 0.84555304 
-0.4957611 0.6323421 0.5952852 
0.04543265 0.256752 0.96540886 
-0.62263685 0.7791511 0.07243672 
-0.05020428 0.27186668 0.96102446 
0.3131069 0.6544953 0.6881861 
0.15514374 0.5735885 0.80431765 
0.23533078 -0.15055303 0.96018404 
0.43342614 0.09694582 0.8959595 
0.26075953 0.048482325 0.96418566 
0.21423301 -0.15059172 0.96510434 
0.22596002 0.20739062 0.9518043 
-0.2505317 -0.4944808 0.83229965 
-0.9348475 0.034174696 0.35340118 
-0.80186343 0.57161295 0.17399332 
-0.6153255 0.34944183 0.70658684 
-0.8354869 0.4918285 0.2450845 
-0.31221947 0.58176637 0.751044 
-0.8197115 0.30371577 0.4856231 
-0.29774442 0.9466686 -0.12315349 
-0.069401905 0.9930236 0.0953284 
-0.5386319 0.71235514 -0.44991753 
0.1081962 0.7047078 -0.7011994 
0.83600193 0.510076 0.20229489 
0.3984333 0.76664215 0.5034985 
-0.46407732 0.8841435 -0.054062463 
0.37448832 0.8983482 0.22962831 
0.27707836 0.9489702 0.15060945 
0.0037210595 0.99722433 0.074363634 
0.1563835 0.8276918 0.5389531 
-0.24158128 0.9290335 0.28024164 
0.08032762 0.9922788 0.09450059 
0.397547 0.89737076 -0.1915255 
0.5607886 0.71026963 0.42548013 
-0.35721236 0.46447042 0.81034976 
-0.62490034 0.4361834 0.64749026 
-0.5906234 0.7134053 0.3771165 
-0.57948 0.8135583 0.04822843 
-0.5381119 0.770543 -0.3416124 
-0.083076075 0.87534165 0.47631446 
-0.23897585 0.769915 -0.5917108 
0.48074356 0.29747143 -0.82486147 
0.88022506 0.41694155 0.22663546 
0.4611167 0.33546826 0.82148194 
-0.08878492 0.21375844 0.9728435 
-0.09954652 0.30019212 0.9486702 
-0.15564443 0.3770679 0.91301405 
-0.18934987 0.467792 0.86331767 
0.48295555 0.7517548 0.44901976 
0.63883907 0.5959306 0.48657104 
0.82176334 0.29218346 0.48921758 
0.19849078 0.29370314 0.9350615 
-0.0046915305 0.61363024 0.78957963 
0.35310024 0.6409209 0.6815722 
-0.21656281 0.27153066 0.9377482 
0.07568267 -0.27066597 0.9596938 
-0.0026735254 0.08136465 0.99668086 
-0.53327096 0.5948814 0.60144675 
-0.6099929 0.3027594 0.7322878 
0.14932114 0.68925136 0.7089681 
0.43325686 0.095186375 0.89623 
0.06521829 -0.58873254 0.8056926 
-0.44497722 -0.6559451 0.6096977 
0.08543699 -0.4695959 0.87873787 
-0.5961712 -0.3423307 0.726216 
-0.5384975 -0.124346904 0.8334016 
-0.95562184 0.28737804 0.06481434 
-0.99399453 0.1080548 -0.01729291 
-0.7189453 0.5011245 0.4816554 
-0.92011166 0.28285685 0.27089968 
-0.7472462 -0.6512212 0.13241634 
-0.63571155 0.21340284 -0.7418424 
-0.48724592 -0.39033747 -0.78117096 
-0.8456356 0.07499853 -0.5284656 
-0.4218737 0.3479846 -0.8372152 
-0.06507477 0.9207138 -0.38477477 
0.79434776 0.37219337 0.48008734 
0.7858361 0.61587507 -0.056209594 
0.831751 0.5313988 0.16064174 
0.32698002 0.5441805 0.7726264 
-0.38646093 0.46867207 0.79435164 
-0.5076055 0.5210267 0.6861981 
-0.81769735 0.23886259 0.52375174 
-0.13472804 0.23412357 -0.9628264 
-0.21411543 0.90698147 -0.3626836 
-0.25999907 0.82744116 -0.49773642 
-0.18900597 0.8335696 0.5190747 
0.20773444 0.97675866 -0.052811615 
0.95188403 0.30239806 0.049722154 
0.97956353 0.18690099 -0.074319705 
0.72273695 -0.1842013 0.666124 
0.9058725 0.1566376 0.39352217 
0.389443 -0.12086403 0.913086 
-0.059128366 0.6227155 0.78021115 
0.025292926 0.31393376 0.949108 
-0.15057273 0.16104229 0.9753939 
0.11504999 0.03887506 0.99259883 
0.011595744 -0.46187165 0.886871 
-0.010822779 -0.14158283 0.9898673 
0.19039106 -0.008011205 0.9816757 
0.4575306 -0.3332502 0.8243847 
0.5216818 -0.5523932 0.6501614 
0.7098673 -0.32029697 0.6272944 
0.49351773 0.12499366 0.8607072 
0.4609339 -0.13527174 0.8770642 
0.27371553 -0.51946366 0.8094674 
0.33506036 -0.6527558 0.67944425 
-0.37363052 -0.79387575 0.4797516 
-0.5749598 -0.4056736 0.7105282 
-0.8500029 -0.4845524 -0.20664966 
0.28279027 0.46640527 0.8381502 
-0.03209565 0.45543453 0.8896906 
-0.26710704 -0.08710132 0.9597225 
0.050655633 0.49499246 0.8674195 
0.054254916 0.50512 0.8613421 
0.0544631 0.35821712 0.9320485 
-0.5073786 0.08610656 0.8574105 
0.41068825 0.12735462 0.9028378 
0.25382483 -0.031825967 0.96672654 
0.23754345 -0.1171112 0.9642916 
-0.08563819 0.8566157 0.50879824 
0.28478295 0.7413798 0.60766333 
-0.6091418 -0.06374995 0.7904949 
0.15980789 0.12034822 0.9797846 
-0.30760893 0.3049623 0.90131843 
0.049582478 -0.19947529 0.9786477 
-0.51025724 0.012338025 0.8599334 
-0.44957182 0.459441 0.7660282 
-0.057505403 -0.9854674 0.1598355 
0.2546677 -0.40240496 0.8793263 
0.7593489 -0.036130603 0.6496798 
0.7102676 -0.08902535 0.6982797 
0.36445528 -0.20693706 0.90793693 
0.85383475 0.38614735 0.34907958 
0.45508584 0.14579132 0.87843144 
-0.0065647415 -0.3342437 0.9424638 
0.2859497 -0.31014565 0.9066656 
-0.8005816 0.17688376 0.572522 
-0.8093996 0.48983893 0.32392937 
-0.08143539 0.49864414 0.862973 
-0.63178504 0.60301393 0.4870543 
-0.73892707 0.5451641 0.39595836 
-0.20202738 0.49677926 0.84403515 
-0.4216408 0.756743 0.499559 
-0.8382266 0.54372257 -0.04173614 
-0.5402834 0.40203047 0.73923296 
-0.2740787 0.34053686 0.8993973 
-0.93052536 0.34159333 0.13204792 
-0.3142207 0.6472463 0.69450533 
-0.22280885 0.8191936 0.5284676 
0.3477002 0.5641881 0.7488634 
0.5763233 0.46548644 0.67169476 
0.39832863 0.09620169 0.91218394 
-0.49868977 0.19584122 0.84436643 
-0.37675056 0.721768 0.58061177 
0.11701673 0.81502205 0.5674911 
0.31606346 0.9456731 -0.07619997 
0.06492629 0.93803006 -0.34041783 
0.7430837 0.13041417 0.65636796 
0.7992889 0.24008426 0.55090535 
0.6227816 -0.18621606 0.7599124 
-0.1924149 -0.28099093 0.9402237 
0.20524757 0.077306904 0.9756521 
0.352442 0.23670301 0.90540403 
-0.26424372 0.7026471 0.660653 
-0.92990196 0.31077003 0.1967341 
-0.9259439 -0.027362017 -0.37666878 
0.08594894 0.2545122 -0.9632427 
0.77448434 0.4300404 -0.46393877 
0.52169734 0.7273125 0.44592425 
0.8853176 0.18076229 -0.42841315 
0.9669068 0.1535042 0.20378345 
0.62190753 0.15623197 0.7673478 
0.2934396 0.04818249 0.9547627 
0.02345744 -0.071061224 0.99719614 
-0.07182179 0.4080837 0.910115 
-0.34402862 0.68688786 0.6401792 
-0.31022725 0.9385941 0.15099712 
-0.20083247 0.88719606 -0.4153907 
0.381208 0.7801721 -0.49599606 
0.38444817 0.8700256 -0.3086346 
0.4524972 0.82054657 0.34921286 
0.3349275 0.5642174 0.7546406 
0.55977905 0.72277814 0.40526456 
-0.1000055 -0.14482903 0.98438996 
0.7548367 0.37480822 0.53827554 
0.5000862 0.17017712 0.84908986 
0.6402176 0.026427094 0.767739 
0.023100276 -0.06418401 0.99767077 
0.7043139 0.11963333 0.69973564 
0.035793487 0.052597415 0.99797416 
0.3340326 0.8222478 0.46079373 
-0.64961237 -0.11479785 0.75154865 
-0.029365184 0.49341896 0.8692959 
0.26626536 0.6128442 0.7439925 
0.4023949 -0.0792078 0.91203314 
0.4316849 -0.24327663 0.86859924 
0.79342204 0.2809572 0.53994864 
0.43966663 0.5589341 0.7030548 
0.0067688883 -0.05290193 0.99857676 
0.16530123 0.12484496 0.97830945 
0.027304014 0.42789662 0.90341514 
-0.0069304802 0.35059062 0.9365032 
0.008015868 0.21374299 0.97685707 
-0.80726546 0.52754974 0.26460096 
-0.454128 0.08231446 0.8871258 
-0.4949064 0.5387398 0.6817823 
-0.053090267 0.35844332 0.93204063 
-0.3288308 0.8405328 0.43055212 
0.17869654 0.61714244 0.7662917 
0.33602035 0.5806058 0.7416113 
0.046659075 0.9846952 0.16792375 
-0.07187888 0.9724605 0.2217071 
0.61466736 0.45646483 0.64329153 