# OOMMF: rectangular mesh v1.0
# Segment count: 1
# Begin: Segment
# Begin: Header
# Desc: Time (s) :  1.6299999999999983e-07
# Title: m
# meshtype: rectangular
# meshunit: m
# xbase: 2e-09
# ybase: 2e-09
# zbase: 5e-10
# xstepsize: 4e-09
# ystepsize: 4e-09
# zstepsize: 1e-09
# xmin: 0
# ymin: 0
# zmin: 0
# xmax: 1.024e-06
# ymax: 1.024e-06
# zmax: 1e-09
# xnodes: 256
# ynodes: 256
# znodes: 1
# ValueRangeMinMag: 1e-08
# ValueRangeMaxMag: 1
# valueunit: 
# valuemultiplier: 1
# End: Header
# Begin: Data Text
0.90208334 0.018473169 0.43116638 
0.7228824 0.3406259 0.6011781 
0.42713156 0.8990236 0.096516006 
0.08103625 0.9726864 0.2175187 
-0.30250025 0.58948267 0.74900186 
-0.2686601 -0.8077509 0.5247479 
-0.64022595 0.49839595 0.5845616 
-0.21295393 0.9737218 -0.08072548 
0.4564685 0.86177313 0.22132248 
0.30530792 0.9341556 -0.1847715 
0.3383948 0.9282419 0.154454 
0.29609087 0.8812815 0.3683386 
0.1834666 0.7912197 0.58336216 
0.89081275 0.13971242 0.4323578 
0.37356064 -0.114795715 0.9204752 
0.4857522 0.4015854 0.77638537 
0.31035 -0.09366697 0.9459966 
0.22184911 0.34468004 0.9121286 
0.6231739 0.11957045 0.77288896 
0.96313363 -0.14786224 0.22474547 
0.76575965 0.30047864 0.5686167 
0.7299837 0.17575903 0.6604791 
0.43781877 -0.3841744 0.81284976 
-0.25472066 -0.20846407 0.94427764 
0.15258661 0.5413818 0.8268151 
0.035692133 0.35692486 0.93345106 
-0.42194563 0.5978138 0.6816015 
0.032879125 0.38101578 0.9239838 
-0.15263823 0.46180734 0.87374806 
0.52900237 0.77539736 0.34484115 
0.25447568 0.77260894 0.5816508 
0.09432659 0.29023436 0.9522955 
0.16466732 0.44119796 0.8821729 
-0.7211037 0.6586631 0.2148777 
-0.75231063 0.52729714 0.39495143 
-0.11525644 0.8828057 -0.45537898 
0.16288278 0.98315436 0.08292617 
0.18805057 0.2951155 0.9367732 
0.18236345 0.82647556 0.532618 
-0.28829107 0.66610026 0.68789446 
-0.27994868 -0.0015358536 0.96001375 
0.17181367 0.19312155 0.9660146 
0.17819364 0.98049766 0.082894504 
0.595947 0.37136966 0.7119914 
0.37381828 0.80097204 0.4676577 
0.15562028 0.289576 0.9444195 
-0.40387025 -0.10086364 0.90923893 
0.062841475 0.20273994 0.97721416 
-0.92552596 0.28964615 -0.24393998 
-0.6658878 0.51708335 0.5377902 
-0.62827384 0.55913305 -0.54096425 
-0.47873345 0.7361394 -0.47844857 
-0.78424937 0.46965334 -0.40543658 
0.4403628 0.8930379 0.092542306 
0.7876528 0.54634213 -0.28480452 
0.7968795 0.54122186 0.26844373 
0.43099108 0.86605346 0.25337383 
-0.97584313 0.16827016 0.1393395 
-0.38066757 0.6151468 -0.69042504 
-0.63455355 0.58550155 -0.5045095 
-0.8032815 0.4901947 -0.33830187 
-0.87106913 0.48990166 -0.035140723 
-0.51334673 0.81366485 -0.27280915 
-0.7373934 0.670188 -0.0842559 
-0.9085832 0.2670835 0.32115898 
-0.56666607 0.7612419 0.31527847 
-0.13719517 0.80354345 -0.57921964 
0.24899241 0.27253756 -0.9293686 
0.44685775 0.19411258 -0.8732918 
0.28981885 -0.2995512 -0.9089963 
0.9004196 -0.38117602 -0.20964132 
0.98689085 0.034065362 -0.15775365 
0.7045464 0.26461476 0.65847814 
0.03436943 0.44220716 0.8962543 
-0.22228177 0.53097373 0.8177149 
0.31661457 0.56896675 0.7589679 
0.4798861 0.4148008 0.773078 
0.1713268 0.9616003 -0.21441108 
-0.12542969 0.97702265 0.17232023 
0.48294297 0.08129964 -0.87186956 
0.36053565 0.7335843 -0.57608 
0.7323168 0.46496138 -0.49751702 
0.49531707 0.85713845 -0.14133185 
0.704452 0.5780401 0.41184598 
0.589722 -0.2840938 0.75598866 
0.07462433 -0.7351391 0.6737966 
-0.5381755 -0.012014591 0.8427472 
-0.29810122 0.2200121 0.92883277 
0.1061797 0.49522397 0.86225235 
-0.7246795 0.4622795 0.511016 
-0.34227043 0.549429 0.7622197 
-0.5260023 0.03895794 0.8495904 
-0.31223908 0.75433093 0.57748747 
-0.15908298 0.3380528 0.92758447 
-0.5302149 -0.60510355 0.59390396 
-0.82659006 -0.23086852 0.51327246 
-0.82135797 0.2796888 0.4971372 
-0.5808365 0.40128595 0.7082363 
-0.8569622 -0.043174513 0.5135676 
-0.23750675 -0.06569115 -0.9691621 
-0.5455842 -0.15732531 -0.82315654 
-0.25645104 -0.040601965 -0.96570414 
0.545334 0.49442303 -0.67687273 
0.6813722 0.30485153 -0.66543025 
0.95686734 -0.11880647 -0.26512235 
0.5908808 0.43821153 0.6773704 
0.9438419 -0.035210215 0.32851613 
0.99883586 -0.025591526 -0.040889535 
0.92731464 0.267491 -0.261794 
0.040756367 0.96305186 -0.2662145 
0.5006054 0.82863796 -0.2505062 
-0.123769455 0.9455299 0.30108878 
-0.4152652 0.11289295 0.90266836 
-0.5298568 0.23506983 0.8148583 
-0.6670963 0.7417955 -0.06871709 
0.017414724 0.5000839 -0.86580193 
-0.12507385 0.9198882 -0.37170178 
-0.6139809 0.7638785 -0.19878924 
-0.85999876 0.50964206 0.025828684 
-0.78937477 0.48537046 0.3759029 
0.23628737 0.41044265 0.88074124 
0.3112125 0.6049183 0.73295337 
-0.011440219 0.587603 0.80906856 
0.20566861 0.7307172 0.65096307 
-0.8269448 0.5253597 0.20039876 
-0.59038025 0.193057 0.7836965 
-0.12532356 0.87634975 0.46508604 
-0.5746651 0.60295284 -0.55336064 
-0.12308154 0.9121878 0.390851 
-0.13442422 0.9817368 -0.13462184 
-0.34442118 0.39197764 0.85306954 
-0.99603313 0.05872163 -0.06685649 
-0.13734634 0.99052316 -0.00020666874 
-0.23475115 0.93068945 0.28055128 
0.612357 0.5756919 0.5418467 
0.4788564 0.7819176 0.39912578 
0.5381217 0.79436463 0.28179765 
0.19568115 0.91416585 0.35497847 
0.285626 0.39314625 0.8739873 
0.4781031 0.1266969 0.86911756 
-0.37335727 0.5590627 0.74030626 
0.20854284 0.25184947 0.9450301 
0.025288766 -0.028084954 0.99928564 
-0.5689783 -0.23888819 0.78689015 
-0.67796993 0.15874174 0.71774495 
-0.5252498 0.4890039 0.6964108 
-0.22661142 0.9717516 -0.06592634 
-0.037625734 0.92266953 0.38375175 
0.17629683 0.7868562 0.5914193 
-0.04408374 0.80462474 0.59214514 
0.63192713 0.42223424 0.6499126 
-0.4908189 0.7978234 0.35010666 
0.6100368 0.5356437 0.5839016 
0.004513144 0.59294516 0.80523026 
0.4355873 0.6746445 0.5959183 
0.24281998 0.27082068 0.93150127 
-0.19628096 0.615569 0.7632487 
-0.5172498 0.1771857 0.8372921 
0.09682509 0.58111113 0.8080438 
-0.16090173 0.98494136 0.063256055 
0.54016215 0.8401031 0.049513046 
0.37068835 0.826485 -0.42368963 
0.30726758 0.88125694 -0.35912776 
0.52218866 0.48081514 -0.7043691 
0.31216633 0.9266836 0.20930772 
-0.18652603 0.9711568 0.14853503 
-0.82176715 0.4782595 0.30978495 
-0.6974279 0.41921607 0.5812506 
0.15610723 0.825693 0.5420901 
0.3674905 0.83390635 0.41176578 
0.5340818 0.81796145 -0.21376546 
0.39524105 0.8570829 -0.33044446 
0.9659834 -0.11775464 0.2302389 
0.019502928 0.9553018 0.29498863 
0.23260853 0.7592581 -0.60779965 
-0.082417496 0.890175 -0.44810238 
-0.47675103 0.87676996 -0.06311066 
0.12929839 0.95515054 0.26640105 
0.63464296 0.73059076 0.25192356 
0.6175923 -0.012441243 0.7864001 
0.40077308 0.7908218 0.46258184 
-0.40002328 0.831579 0.3853019 
-0.9813547 0.17452632 -0.08052037 
-0.97801346 0.115881816 0.17338124 
-0.91893214 -0.092407875 0.38343808 
-0.945502 0.3050944 0.11376999 
-0.9446086 -0.3000114 0.13307028 
-0.5958668 0.7382705 -0.31606868 
-0.8116947 0.5799389 0.06944568 
-0.6758079 0.6693467 -0.30864033 
-0.29891092 -0.16965231 -0.9390795 
-0.4052284 0.7301314 -0.55018014 
0.3666792 0.3635148 -0.85638976 
0.5947177 0.17618494 -0.78439134 
0.3216693 0.7287189 -0.60456413 
0.3877136 0.8990586 -0.20340082 
0.6580978 0.57636636 -0.48446798 
0.6598213 0.5617049 0.4991228 
0.1639813 0.62301666 0.764827 
0.4368112 0.78965014 0.43086964 
-0.3342405 0.32808286 0.8835411 
-0.29660535 0.16792755 0.94012004 
-0.95201105 0.30157477 -0.052228503 
-0.0981093 0.81229174 -0.5749406 
0.5260358 0.061513036 0.848235 
0.61323625 0.7554367 0.23077418 
-0.5056821 0.35179323 0.7877355 
-0.19244903 0.15323702 0.96926874 
-0.7586522 0.17896481 0.62643313 
-0.6355563 0.43467385 0.63806504 
-0.41778496 0.88435954 0.2082406 
0.19772482 0.27862746 0.93982536 
0.44950673 0.37159604 0.8123178 
0.2497392 0.26409045 0.9316044 
-0.07832178 -0.072816804 0.9942653 
0.33622366 -0.7034996 0.62613255 
-0.04386068 -0.18245569 0.9822353 
-0.70337695 0.6116019 0.36222106 
-0.23705265 -0.47347215 0.8483103 
-0.30633298 -0.057576977 0.95018166 
-0.52969843 -0.518166 0.67150855 
-0.4925068 -0.32475588 0.8074471 
-0.91981244 -0.11243786 0.37590268 
-0.93677807 0.31635687 -0.1495498 
-0.39247686 0.15254305 -0.9070241 
0.35347494 0.10088865 -0.92998767 
0.97618073 -0.13940519 -0.16624539 
0.62954783 0.7696665 0.10622162 
0.35717762 0.9336868 -0.025555652 
0.17092925 0.9824536 0.07462081 
0.16288036 0.8463849 0.5070529 
0.37336516 0.76201427 -0.52908665 
0.3439764 0.93894786 -0.0075628245 
0.8446455 0.37079102 0.3861193 
0.82288635 0.5443161 0.16302791 
0.7696046 0.48642108 0.4136464 
0.71301115 0.5706288 0.40742838 
0.3288633 0.90354204 0.27470106 
0.88574797 0.1495412 0.43941802 
-0.58682024 0.37855512 0.715778 
-0.51566565 -0.20520906 0.83185226 
-0.01286318 0.60231215 0.79815704 
-0.2277092 0.12506711 0.96566397 
-0.8027734 0.35359553 0.48013026 
-0.68984056 0.26924813 0.6720309 
-0.7141407 0.6507052 -0.2580422 
0.36062074 0.8109663 -0.46074554 
0.58538985 0.7562535 0.29223162 
-0.24809904 0.9264289 0.28315452 
0.019505456 0.58135444 0.8134167 
-0.35448584 0.8833664 0.30660018 
-0.45849574 0.5737585 0.6786626 
-0.25299957 0.92336017 -0.28878573 
-0.6527764 0.7475531 -0.12266789 
-0.53376096 0.829351 -0.16515517 
-0.02391932 0.87285453 -0.48739398 
0.7018613 0.2174681 0.67830557 
0.5830197 0.5812272 0.56768227 
0.3270018 0.7277593 0.6028567 
0.5473755 0.61258304 0.57019496 
0.096118875 0.277806 0.9558164 
0.7344767 0.644479 0.2125818 
-0.21605927 0.81606114 0.53606224 
0.42773065 0.86715823 -0.25511417 
0.23015302 0.9533757 0.19520321 
-0.17028844 0.87924683 -0.4448898 
0.4810186 0.79962945 0.35946357 
0.10340526 0.95906585 0.2636286 
0.34549534 0.78443074 0.5150744 
0.97182494 -0.17214577 0.16100387 
0.58856183 0.6596959 0.4673289 
-0.14027956 -0.009223704 0.99006903 
-0.24967408 -0.5535582 0.7945038 
0.11979881 -0.67784065 0.725383 
0.22452232 -0.14976381 0.96289176 
0.48154944 0.09982115 0.87071574 
0.2937392 0.20004217 0.9347195 
0.61001176 -0.27878916 0.7417293 
0.10156103 -0.4976544 0.86140895 
-0.12752956 0.004914922 0.9918226 
0.2409757 0.19830386 0.950056 
-0.116024494 0.3110508 0.9432846 
0.15441051 0.5003805 0.8519253 
0.28862748 0.14386012 0.946572 
0.44674468 0.5011288 0.7411404 
-0.051823515 0.65735155 0.7518001 
0.5270676 0.23049879 0.81796706 
0.16566987 -0.02292196 0.9859148 
0.27064154 0.6714067 0.68990314 
-0.30599043 0.88682395 0.34628484 
-0.7400654 0.6283601 0.23972246 
-0.06131399 0.93250895 -0.3559041 
0.21581523 0.8397004 0.49832416 
-0.1899553 0.29450485 0.93658096 
-0.059603147 0.8492885 0.52455366 
0.33538735 -0.432395 0.8369886 
-0.17446679 0.24134326 0.9546281 
0.15990555 0.7250719 0.6698515 
0.5529912 0.120652445 0.8244051 
0.53281367 0.023034558 0.8459191 
0.27460763 -0.10290762 0.9560338 
0.16057216 0.16655059 0.9728708 
0.460521 -0.24017896 0.85453755 
0.2144526 0.5566309 0.80260336 
-0.24517262 0.88019925 -0.406374 
-0.28249812 0.69046694 0.66592056 
-0.22998965 0.97181946 0.051690057 
-0.044712506 0.8113318 0.5828735 
0.089141466 0.9931187 0.07595565 
0.6909879 0.3921266 -0.60726655 
0.6344093 0.7163346 0.2904989 
0.04122112 0.91093135 0.4104935 
0.041328862 0.9606654 0.274616 
0.4346819 0.8319042 -0.34494516 
0.37360963 0.9271786 -0.027492084 
0.10190163 0.96741456 -0.23178692 
-0.34400195 0.91103286 -0.22733648 
-0.3890746 0.36230302 0.84696966 
-0.40116352 0.90866935 -0.115705445 
-0.8706975 0.37946606 -0.31287608 
-0.6723748 0.66140324 -0.33235204 
-0.3014875 0.9448659 -0.12780322 
-0.8219899 0.0027349032 -0.5694955 
0.2994742 0.58908445 -0.75052965 
0.24147569 0.6854859 -0.686876 
0.83002764 0.50328445 -0.24033107 
0.74673164 0.5357291 -0.3941907 
0.95776474 -0.20185159 -0.20479932 
0.8442482 -0.22911401 -0.48451206 
0.6925696 0.11499323 0.7121264 
0.5430778 0.24402747 0.80344075 
0.35819706 -0.16537635 0.9188828 
0.46212444 -0.045067754 0.88566923 
-0.18698685 0.57953566 0.7932052 
0.59068 0.710162 0.38310215 
0.29019156 0.8201115 -0.49315915 
0.4588779 0.88594973 -0.06726251 
0.7276056 0.6845114 -0.045102954 
0.9330184 0.1475117 -0.32820264 
0.8763328 0.41034713 0.25230166 
0.73871624 0.04939339 0.6722043 
0.31209236 -0.12906763 0.9412438 
-0.44174102 -0.5144953 0.7349555 
-0.33308938 -0.47267944 0.81585896 
-0.0151124885 -0.042533834 0.9989808 
-0.21337616 0.28945342 0.93310636 
0.5027933 0.36237234 0.78478354 
0.10425121 -0.29381734 0.95015955 
-0.42082068 -0.015965216 0.90700334 
0.4753633 -0.07606433 0.8764953 
-0.47278145 -0.41180882 0.77903223 
-0.7440857 -0.3185189 0.58726674 
-0.3731701 0.40655655 0.83394 
-0.70841706 0.38169852 0.59367627 
-0.9952782 0.083045416 -0.050247736 
-0.30725014 0.4393631 -0.84413123 
-0.43856317 -0.3030723 -0.84605527 
0.1082959 0.19366704 -0.9750719 
0.60759574 0.21699916 -0.764028 
0.8435403 0.53696585 -0.010362199 
0.99101937 0.06417333 -0.11731377 
0.9617627 0.112028055 0.24992423 
0.6772406 -0.72600305 0.11943547 
0.21995458 0.37298617 0.9013885 
0.07998717 0.9881647 -0.13089114 
0.073140524 0.8852475 -0.45933366 
-0.3705514 0.8372353 0.4021553 
0.45475817 0.74805695 0.48332787 
0.30614036 -0.15004048 0.9400883 
-0.19371115 0.24318102 0.9504415 
-0.55820376 0.7533027 0.34776938 
-0.36801746 0.920545 0.13099697 
0.20718583 0.9221852 0.32657108 
0.4408325 0.57328916 0.6906565 
-0.5403843 0.2209542 0.8118892 
-0.24540895 0.68392235 0.6870405 
0.6797846 0.57354283 0.45710123 
0.6214089 0.7513446 0.22210877 
0.4970319 0.59586304 0.6307984 
-0.13478044 0.83403856 0.5349898 
-0.81987756 0.36751392 0.43901518 
-0.70791876 0.6847845 0.17297783 
-0.39355332 0.8359953 0.3823974 
-0.051809527 0.58260924 0.81109947 
-0.1131606 0.64056456 0.7595208 
-0.24881671 0.81777585 0.51897305 
-0.89309317 0.44833723 0.037128255 
-0.084777065 0.7270846 0.6812936 
-0.025790446 0.7311205 0.6817608 
-0.08516982 0.33008364 0.9401016 
0.42418858 0.74175316 0.51948667 
0.6707976 0.7247859 0.15721337 
-0.060366888 0.8038679 0.59173673 
0.10674906 0.7742519 0.6238099 
-0.3808882 0.3240109 0.8659915 
0.039967835 -0.22974694 0.97242945 
-0.30401665 0.68782854 0.65914017 
-0.19945587 0.13302363 0.97083586 
0.17131284 -0.051559348 0.98386663 
0.5732588 0.3072215 0.7595982 
-0.0297782 0.32064 0.94673294 
-0.5399919 0.20449154 0.8164508 
-0.5328639 0.5790402 0.6170644 
-0.4343351 0.9007203 0.007489247 
-0.66636455 0.606103 0.43427828 
0.42374966 0.4460471 0.78833896 
0.28144065 0.7114001 0.64397293 
0.4500267 0.84121835 0.29971287 
0.5490392 0.8313301 0.08629124 
0.3434955 0.28601032 0.894544 
0.40712476 0.027667327 0.9129535 
0.35243422 0.07387584 0.9329161 
-0.13595156 0.68509847 0.71565163 
-0.5075866 0.3235598 0.7985393 
0.12946644 0.6512339 0.74775183 
0.27123576 0.4850728 0.8313456 
-0.23166975 0.676587 0.6989702 
0.024654368 0.9736026 0.22691433 
-0.40607977 0.6657775 -0.625971 
0.025724517 0.82171667 -0.56931543 
0.63779825 0.65126806 0.4111731 
0.55029684 0.6634957 0.5068992 
-0.5134716 0.5301478 0.6747521 
0.066087715 0.3062836 0.94964355 
0.44676974 0.67386204 0.5884783 
-0.32501835 0.9076299 0.265652 
0.16291234 0.9407996 0.29724684 
0.07124706 0.9717299 0.22508869 
0.7270856 0.68300796 0.06961859 
0.22483051 0.61007184 0.7597787 
0.5403436 0.801987 0.25464848 
0.7573837 0.5964998 0.26562744 
-0.29314208 0.8846564 0.36256158 
0.61347103 0.6541824 0.4423785 
0.6570269 0.3697186 0.6569809 
0.24825135 0.4533332 0.85607266 
-0.36706084 0.39856538 0.8404832 
-0.60968834 0.27813163 0.7422419 
-0.024621146 0.76480126 0.64379567 
-0.13330074 0.47583014 0.86937726 
-0.77072024 0.27787098 0.5733918 
-0.75727034 0.46012416 0.4634949 
-0.7739924 0.5299452 0.3465458 
-0.7389727 0.08525227 -0.6683199 
-0.03393639 0.87097377 -0.49015602 
-0.4066969 0.9082995 -0.09792672 
0.014892305 0.97923905 0.20216139 
0.23975512 0.9697593 -0.045655128 
0.64672124 0.45886183 -0.60925984 
0.81327885 0.4106534 -0.41223922 
0.7654308 0.6008689 -0.2303743 
0.6669755 0.66723096 -0.33158192 
0.9319902 0.20146118 0.30134317 
0.64442074 0.44413137 0.6224704 
0.5261202 0.8127463 0.25028184 
0.7885009 0.5860752 0.18649983 
0.465052 0.78659326 0.4061991 
-0.1412049 -0.13218848 0.9811154 
-0.57144374 0.42666233 0.7010075 
0.1355693 0.9344537 0.3292677 
0.48834786 0.7376666 0.46622366 
0.40032372 0.617843 0.67676514 
-0.38234714 0.58669233 0.7138648 
-0.12016377 0.6424848 0.7568184 
0.2935556 0.482814 0.8250551 
-0.14445941 0.31889355 0.93671685 
-0.08727859 0.69936395 0.7094171 
0.0832324 0.03244711 0.99600184 
0.0930406 0.48939034 0.8670874 
0.72512954 -0.18197027 0.664134 
0.25289944 -0.570037 0.7817286 
0.65914905 -0.45174828 0.6012039 
0.017341975 0.18543875 0.9825029 
-0.4323717 0.23412445 0.8707701 
-0.63451475 -0.3499424 0.6891527 
-0.39127275 0.14613126 0.9085986 
0.098537914 -0.31552702 0.9437865 
-0.35693932 0.33889613 0.8704848 
-0.123931535 -0.43959233 0.88960636 
-0.54968387 -0.6836865 0.48002142 
-0.97080237 -3.6884143e-05 -0.23988102 
-0.27503535 0.10042472 -0.9561749 
0.27924275 0.13155259 -0.95116645 
0.3355432 0.8314503 0.44283336 
0.1791926 0.7568342 0.6285636 
-0.32552236 0.803471 0.4984672 
-0.64635974 0.5547317 0.5239197 
-0.09173678 0.88173467 0.4627402 
0.5142607 0.5303906 0.67395985 
0.5441683 0.73579407 0.40309796 
0.7355198 0.63345116 0.24031277 
0.6865278 0.2909388 0.666359 
0.28534454 -0.44778126 0.8473904 
0.009747535 0.67386514 0.73879015 
0.3728727 0.40537664 0.83464706 
0.32641137 0.09039859 0.94089526 
-0.24189995 -0.17589016 0.95422596 
-0.15879379 0.35628587 0.920785 
-0.18050808 -0.1332438 0.9745065 
-0.8086982 0.54439056 0.22281426 
-0.39157432 0.84733456 0.35873902 
-0.64748657 0.72615916 -0.23120129 
-0.17662467 0.89142877 -0.41732314 
0.19013697 0.9764214 0.10222119 
-0.43877235 0.48067933 0.75922734 
0.45157257 0.04589537 0.89105326 
-0.36310035 0.5736639 0.73421246 
-0.83146137 0.45677117 0.31627846 
0.35557604 0.8647023 0.35476133 
-0.5089672 0.5058799 0.6964467 
-0.9077323 -0.35568523 0.2225088 
0.28853157 0.65933007 -0.6942862 
0.043441534 -0.6511104 0.7577389 
0.29541853 0.20787552 0.9324783 
-0.09143498 0.23101385 0.9686446 
0.50763094 -0.26675504 0.819239 
0.5394322 -0.18124539 0.8222913 
0.5587828 -0.6340776 0.53451604 
0.65701616 -0.21780385 0.72172797 
0.36135247 0.6385377 0.67948073 
0.004014419 0.5906992 0.8068819 
-0.6364136 0.63485664 0.43810382 
-0.3167645 0.77924275 0.5407782 
-0.21723187 0.9149024 0.34024113 
0.08592591 0.9944149 0.06128388 
0.92562085 0.3531719 -0.1359992 
0.73088723 0.6691449 -0.13434622 
0.7141771 0.16486268 0.6802731 
0.93821716 -0.30192825 0.16907983 
0.71324885 0.07246947 0.6971544 
0.7544207 0.3047388 0.58136386 
0.36333475 -0.021028398 0.93142134 
0.6546257 0.2847157 0.7002872 
0.8302951 -0.47908553 0.28475794 
0.29091358 -0.8621163 0.4148792 
0.077534996 -0.52071345 0.8502035 
0.055431396 0.32952267 0.94251907 
0.5453631 -0.18500774 0.8175276 
0.25244367 0.5182514 0.8171215 
0.19840857 0.2648342 0.94366145 
-0.14085792 -0.23800293 0.96099615 
-0.03383505 0.92260176 0.38426706 
0.6421063 0.08727123 0.7616319 
0.3128771 -0.3396091 0.8870026 
-0.0506734 0.3499582 0.93539375 
-0.37478074 0.48946077 0.7873803 
-0.49373025 0.42534998 0.75849056 
-0.041257076 0.9286858 0.36856577 
0.4376231 0.59341204 0.67553556 
-0.12189829 0.13219942 0.9836992 
-0.5656888 -0.1086858 0.817425 
0.1969924 0.024853874 0.98008996 
0.025233438 0.15959448 0.9868602 
0.3204276 -0.21573919 0.92237896 
0.28339154 0.18563227 0.94086665 
0.72834086 -0.17352936 0.66287804 
0.9674098 -0.23540261 0.09329434 
0.026061555 0.22315156 0.9744353 
-0.41140026 0.066511534 0.9090248 
-0.0683318 0.691729 0.7189171 
-0.6175786 0.6921626 0.37350723 
-0.46085107 0.8579793 0.22690937 
-0.3107473 0.8484999 -0.4283506 
-0.3331332 0.92994225 0.15565887 
0.033556014 0.9984554 0.04428045 
0.5734592 0.7718609 -0.27454573 
0.38326585 0.912478 0.14314763 
0.2391277 0.5682121 0.787371 
0.08677888 0.8333103 0.5459518 
0.15540141 0.9798353 0.12559208 
-0.015245227 0.90196204 0.43154633 
-0.32715178 0.9016437 0.282861 
-0.84519994 0.25078788 0.4719563 
-0.4269352 0.5391717 0.7259617 
-0.13823813 0.6268339 0.76679176 
-0.6165581 0.7838026 0.0742275 
-0.51385015 0.8249652 -0.23535182 
-0.57492405 0.79686743 -0.18564688 
-0.49020943 0.8712473 -0.02496067 
0.26182565 0.9531882 -0.15125994 
0.8563354 0.5149513 0.03891968 
0.4889675 0.8702987 -0.059084278 
0.9040726 0.41659695 -0.09539311 
0.9442817 -0.017918762 -0.32865024 
0.033317767 0.78745836 0.6154668 
-0.25971922 0.48753563 0.83357954 
-0.09890517 0.41283515 0.9054198 
0.3493453 0.71461356 0.6060408 
0.17397653 0.34277812 0.923166 
0.26689294 0.62297803 0.7353003 
0.13453372 0.9841002 0.11596329 
-0.065808795 0.9698836 0.23451042 
0.62974095 0.7685203 0.1131503 
0.5006323 0.6225115 0.601537 
0.5324298 -0.047075722 0.8451642 
0.5472045 0.46107602 0.69855297 
0.50876284 0.254664 0.8223787 
-0.18173969 -0.3440072 0.9212111 
-0.50800633 -0.02973687 0.8608399 
-0.60467476 0.20718737 0.76905257 
-0.25684407 -0.5064977 0.82309854 
0.16538362 -0.49315992 0.8540736 
-0.3856255 -0.045093138 0.9215528 
-0.27045193 0.883544 0.38236862 
-0.22818632 0.3153443 0.92113465 
-0.018718207 0.85805094 0.5132233 
-0.46480855 0.32256672 0.82456285 
-0.7550978 0.49054277 0.43496564 
-0.61895275 0.39552176 0.67857206 
-0.4911377 0.85156167 0.1833754 
-0.8953026 0.43885562 -0.07641379 
0.0015799777 0.9999879 -0.004660404 
-0.35150534 0.26806942 -0.89698535 
0.13706477 0.3610575 -0.9224158 
0.5473014 0.2310295 -0.8044169 
0.9377012 0.2179359 -0.2705929 
0.22655736 0.92886245 -0.29306394 
0.84375215 0.5352961 0.039248146 
0.30351174 0.17452267 0.93670833 
0.3839885 0.51800805 0.7643432 
-0.21908793 0.82274354 0.5244939 
-0.33184433 0.8724375 0.3587927 
-0.14441049 0.8734898 0.4649315 
0.43518397 0.65650165 0.6161336 
-0.17680909 0.22447102 0.95830655 
-0.0013813783 0.64833724 0.761352 
-0.2010259 0.65397745 0.7293162 
0.0620962 0.97611356 0.20819792 
-0.063809045 0.9723405 0.22468308 
-0.124347284 0.40127417 0.9074782 
-0.47884247 0.4470088 0.7555747 
0.0064809197 0.4029797 0.91518605 
-0.3340509 0.68699914 0.6453233 
-0.0651297 0.61897856 0.78270286 
-0.8334328 -0.06665472 0.5485865 
-0.8116861 0.09697293 0.575988 
-0.8765751 0.4811666 -0.009740577 
-0.932677 -0.07431668 0.35297433 
-0.34515592 0.4125824 0.8429966 
-0.37573504 0.122544296 0.9185892 
-0.1854319 0.6223699 0.7604411 
-0.22987108 0.25684634 0.9387168 
-0.55535614 0.4498034 0.69946873 
-0.19463734 0.68878394 0.6983503 
0.03347794 0.776117 0.6296997 
0.47589567 0.048356142 0.87817144 
0.61888963 0.33832362 0.70888144 
0.7339438 0.35620064 0.5783144 
0.12236406 0.7621979 0.63567394 
0.2276377 0.5723591 0.78777295 
-0.5529292 0.07661306 0.82969856 
-0.023242213 -0.4095653 0.9119847 
-0.0954979 0.32983822 0.93919486 
0.48303503 0.36576343 0.79554653 
0.5229752 -0.09286201 0.84727424 
-0.2343937 -0.108897634 0.96602327 
0.060205102 0.4670762 0.8821651 
-0.42754486 0.61533356 0.6622463 
-0.032018747 0.7577642 0.65174246 
-0.27027652 0.37093672 0.8884574 
-0.081043854 -0.075609416 0.99383867 
-0.38227695 0.07728342 0.92081034 
-0.006529891 0.17451772 0.9846324 
0.4074021 0.68019366 0.6093933 
0.15175208 0.498107 0.8537335 
0.53557336 0.70769805 0.46078715 
0.42324543 0.46957725 0.77482945 
0.32538998 -0.16990757 0.9301897 
0.22385007 0.48859525 0.8433065 
0.5600456 0.58413684 0.5874803 
-0.20230164 0.4664539 0.861101 
0.07777293 0.18296659 0.9800381 
0.097468354 0.5271739 0.84414905 
-0.48612663 0.7902939 0.37298325 
-0.06244212 0.99047303 -0.12273637 
0.7443576 0.6677249 -0.008674256 
0.5759158 0.73972565 0.348033 
0.43413863 0.6345457 0.63943374 
0.18602884 0.9698493 0.15743478 
0.579044 0.46941316 0.6666029 
0.37514877 0.6989741 0.60885036 
0.12365294 0.55099124 0.8252992 
0.42541513 0.28159124 0.86007464 
-0.15446736 0.65847147 0.7365835 
-0.52792543 0.35673594 0.77073616 
-0.21695535 0.7069792 0.6731351 
0.28224912 0.9068402 0.3130119 
0.6871332 0.63236296 -0.35772222 
-0.613041 0.63011974 0.47658148 
0.22776437 0.7277923 0.64687073 
0.48624736 0.8619548 -0.14351878 
0.37595215 0.39790165 0.83685976 
0.38479987 0.30889964 0.86977583 
0.3161987 0.6929161 0.6479859 
-0.31394663 0.20852311 0.926259 
-0.40909094 0.6811329 0.6072089 
0.14256978 0.9894738 -0.024810204 
0.16653222 0.90241104 0.3973931 
-0.61570215 0.78251225 -0.092658415 
-0.8078987 0.4894037 0.32830453 
0.048682097 0.99857014 0.022085343 
-0.19793198 0.92596644 0.32157296 
0.29439646 0.86461645 -0.40714777 
-0.0044495584 0.98810637 0.15370815 
0.029912222 0.77441007 -0.63197666 
0.6399943 0.7465656 -0.18178886 
0.116663985 0.8914651 -0.43781233 
0.89899343 0.3987093 -0.1812229 
0.48370674 0.16040656 0.8604055 
0.3607923 -0.08684096 0.92859447 
0.9548983 0.23191549 0.18543053 
0.21497716 0.44643727 0.8686073 
-0.31516752 0.1014455 0.9435986 
-0.9061579 0.14274661 0.39812228 
-0.45574048 0.33309895 0.8254367 
-0.5334244 0.5219203 0.66562575 
0.51025367 0.55033827 0.6608851 
0.034342136 0.17046586 0.984765 
-0.3948012 0.5322434 0.7488986 
0.26771715 0.71916455 0.64119405 
-0.2472456 0.84398025 0.47599074 
-0.11084774 0.40144727 0.9091495 
-0.2558457 0.7999991 0.5427194 
-0.9478217 -0.2376077 0.21254826 
0.26940563 -0.13960388 0.9528544 
-0.09912021 0.19728152 0.9753232 
0.02433622 -0.37071505 0.92842776 
0.2651408 -0.13166146 0.9551783 
0.24711561 0.037818816 0.9682478 
0.6998625 0.13548175 0.7013112 
0.014897862 0.11767115 0.99294084 
-0.28376937 -0.25121868 0.92539954 
-0.06830614 -0.1646427 0.9839853 
-0.5381241 0.15465409 0.8285557 
-0.6393588 -0.42872137 0.6382933 
-0.43032035 -0.5374634 0.72522926 
-0.8694317 0.37514186 -0.32149217 
-0.54632634 0.6222038 -0.56070495 
0.038072255 0.9254523 -0.37694636 
-0.066608 0.80087227 0.5951194 
-0.27652657 0.89588153 0.34774917 
-0.044735532 0.8714323 0.4884715 
0.040745202 0.5624477 0.8258283 
0.36055657 0.48369575 0.7975195 
0.8349613 0.4723249 0.2823982 
0.16120411 0.9767831 0.14109574 
0.6851956 0.57463026 0.4475567 
0.5456817 -0.044552986 0.83680737 
0.72656494 0.023161275 0.6867074 
0.44269985 0.22119384 0.8689592 
0.21065563 0.2074421 0.9552969 
0.6632181 -0.40352824 0.63032275 
-0.02318492 0.08106828 0.99643886 
-0.48439693 0.40570608 0.7750886 
-0.39625448 -0.5226653 0.7548532 
-0.8732752 0.45883664 0.16388837 
-0.23575673 0.84293896 0.483604 
-0.084001906 0.9956545 -0.04019838 
0.15517409 0.98702705 -0.041216187 
0.18207596 0.9829435 -0.025897203 
-0.012700325 0.90819335 0.41835818 
0.93551457 0.09904739 0.3391196 
0.45587432 0.4810827 0.7488245 
-0.0875087 0.7600576 0.6439369 
0.019309316 0.7153017 0.69854903 
-0.55282056 -0.37198332 0.745666 
-0.0439067 -0.34228924 0.93856823 
0.09505078 -0.4461632 0.8898898 
0.46270782 -0.8833297 0.07503436 
0.4953577 -0.4555794 0.7396406 
0.5796121 -0.4327215 0.6905085 
-0.17409107 0.20287712 0.96360433 
-0.053988438 0.39181674 0.9184579 
0.8811097 -0.0892526 0.46441314 
-0.033248212 0.74121726 0.67044145 
-0.016271714 0.6497031 0.76001394 
-0.20561546 0.4620031 0.86271393 
-0.3320031 0.6914388 0.641628 
-0.36660022 0.8958205 0.2512169 
0.21337754 0.9184937 0.33292565 
0.13312137 0.8420488 -0.5227166 
-0.058366794 0.94215375 0.33006018 
0.2658343 0.9636527 0.02656667 
0.7540926 0.63873523 0.15284535 
0.7995668 -0.3457539 0.49106738 
0.40962663 -0.3798698 0.82940036 
0.76542044 -0.41278657 0.49369922 
0.4833655 -0.35577205 0.799865 
0.5051701 -0.43022555 0.7481371 
0.7541474 -0.6234137 -0.20643957 
0.3817188 -0.9057964 -0.1839121 
0.8789586 -0.3565435 0.31671527 
0.21796153 -0.6067207 0.76444936 
-0.20646308 -0.4484326 0.8696444 
0.025940321 0.15168719 0.9880881 
-0.33867982 -0.0023743187 0.9408988 
-0.30472383 -0.2833727 0.90930927 
-0.39723548 0.6565101 0.6412477 
-0.5595701 0.42126316 0.71373576 
-0.0076579927 0.3167669 0.9484725 
0.46131527 0.5798827 0.671509 
0.30407304 0.581473 0.75460505 
0.0046041976 0.78543615 0.6189256 
-0.14646201 0.06800179 0.9868762 
-0.15435907 0.39380544 0.90614045 
-0.0998462 -0.3127327 0.9445788 
-0.6072326 -0.34440356 0.7159992 
0.03230082 -0.37431425 0.92673916 
-0.14655896 -0.60779303 0.78045374 
-0.14985034 -0.5372402 0.8300107 
-0.41705677 -0.25435734 0.872563 
0.16745561 0.13910957 0.9760159 
0.56260943 -0.25209364 0.78734964 
-0.6303763 -0.14893115 0.7618697 
-0.47068942 -0.45488003 0.75599974 
-0.53718716 0.49492964 0.68298954 
-0.796436 0.2178357 0.5641253 
-0.4757245 0.43227115 0.7660469 
-0.38536215 0.7402779 0.55089456 
-0.7460619 0.55257756 0.3715505 
-0.10817526 0.8549166 0.5073616 
0.58901733 0.80506164 0.070246115 
-0.1406174 0.753746 0.6419454 
-0.6066747 0.52663606 0.59548324 
0.094531946 0.8886914 0.44865498 
-0.4268575 0.8255716 0.3690856 
-0.5309868 0.73388636 0.4236318 
-0.27480868 0.4957251 0.8238549 
-0.19477017 0.32616383 0.92503077 
-0.41572797 0.27837065 0.86584073 
-0.28076205 0.6057598 0.7444648 
0.11033291 0.6525768 0.7496467 
0.048038714 0.7034138 0.7091554 
-0.059306275 0.9611573 0.26955426 
-0.09519689 0.98059803 0.17136252 
0.54464555 0.835353 -0.07447474 
0.8649428 0.4943141 0.08676191 
0.6759179 0.57918864 0.4557143 
0.5533788 0.49494502 0.66992635 
0.4191219 0.4152664 0.8073975 
0.3532832 0.56489336 0.7457121 
0.25193822 -0.110674895 0.9613939 
-0.38189706 -0.029714286 0.92372704 
-0.49661803 0.2613416 0.82769036 
-0.31814924 0.49880022 0.806213 
-0.07101479 0.7559191 0.65080214 
0.18731794 0.5135865 0.8373416 
-0.086766616 0.96164846 0.2601997 
-0.01958638 0.9933012 -0.11388258 
0.68018436 0.49868724 0.53727114 
0.92247736 -0.27576733 0.27016312 
0.57542425 0.37111863 0.72880584 
-0.072406076 0.21719086 0.9734401 
-0.11799369 0.050633147 0.99172264 
-0.043029867 -0.07364658 0.99635565 
-0.16992159 -0.23191318 0.95778024 
-0.10184016 0.43213063 0.8960422 
0.7934845 0.07085443 0.6044519 
0.10611839 0.39277184 0.9134929 
-0.46463403 0.16041292 0.8708519 
-0.6694952 0.5169446 0.53342724 
-0.71948594 0.3045221 0.62418455 
-0.46836972 0.4499661 0.76036865 
-0.9815328 0.10648318 0.15891716 
-0.89117974 -0.4373282 0.120594054 
-0.7515926 0.6492215 -0.116705835 
-0.47943825 0.8065324 -0.345897 
-0.7037586 0.70819485 0.056426745 
0.06671343 0.88779014 -0.45538774 
-0.12183413 0.44325635 -0.8880768 
0.41997075 0.43299446 -0.7975842 
0.56782204 0.7399072 -0.36071536 
0.23658836 0.97156036 -0.009824455 