# OOMMF: rectangular mesh v1.0
# Segment count: 1
# Begin: Segment
# Begin: Header
# Desc: Time (s) :  1.7499999999999978e-07
# Title: m
# meshtype: rectangular
# meshunit: m
# xbase: 2e-09
# ybase: 2e-09
# zbase: 5e-10
# xstepsize: 4e-09
# ystepsize: 4e-09
# zstepsize: 1e-09
# xmin: 0
# ymin: 0
# zmin: 0
# xmax: 1.024e-06
# ymax: 1.024e-06
# zmax: 1e-09
# xnodes: 256
# ynodes: 256
# znodes: 1
# ValueRangeMinMag: 1e-08
# ValueRangeMaxMag: 1
# valueunit: 
# valuemultiplier: 1
# End: Header
# Begin: Data Text
0.43011397 0.28268546 0.85737455 
0.12539928 0.74881625 0.6508067 
0.10025571 0.8966948 0.43114665 
-0.058755193 0.8972571 0.43758154 
0.005930491 0.8703971 0.4923148 
-0.8128516 0.5379186 0.2234183 
-0.21953128 0.94689083 -0.23495507 
-0.72850597 0.56615865 -0.38567278 
-0.24448943 0.81267107 -0.5289525 
-0.19857924 0.20435818 -0.95854264 
-0.032192543 0.90993714 -0.41349512 
0.22797544 0.9500681 0.21306756 
-0.2781802 0.71461517 0.64182633 
-0.5361824 0.8427637 0.04751749 
0.39018086 0.81122607 -0.43551245 
0.63066787 0.47553587 -0.61328924 
-0.6140776 0.78876626 -0.027506566 
-0.67254037 0.65810597 -0.3385057 
-0.848976 0.39203247 -0.35433093 
-0.6986956 0.40729183 -0.5881648 
-0.51048404 0.22659965 0.8294931 
-0.6038639 0.13405555 -0.78573376 
-0.2463143 0.0854166 -0.9654187 
-0.33385384 0.7278834 -0.5989386 
0.10644278 0.75035566 -0.65240824 
0.6477541 0.04767642 -0.76035637 
0.73844206 0.6716996 0.059356052 
0.22899047 0.6909999 0.6856256 
0.4240828 0.4433859 0.78966 
-0.2627087 0.80416673 0.5331978 
-0.08466344 0.9781424 -0.18992032 
0.20229188 0.74425817 0.6365201 
0.5794041 0.40531448 0.70711464 
0.06003906 0.44611153 0.89296126 
-0.5844215 0.34113958 0.7362576 
-0.6825117 0.69550234 0.22462054 
-0.41980037 0.8920988 0.16711473 
-0.5195937 0.74240595 0.4229136 
-0.4660878 0.82108086 -0.3295275 
-0.44082847 0.8611416 -0.25319082 
-0.05253081 0.82900566 -0.5567677 
0.5818346 0.7489262 0.3171406 
0.35259685 0.91315097 -0.20452575 
0.7018168 0.7052327 -0.10049956 
0.17568758 0.9714472 -0.15944983 
-0.5773436 0.8163831 0.013889643 
-0.6378351 0.759215 0.12945667 
0.062281188 0.99481297 0.08042579 
0.33651376 0.8779311 0.34058112 
-0.2081563 0.8351278 -0.50914896 
0.64939904 0.63163245 0.42346358 
-0.71847165 0.643867 0.26312345 
-0.57603973 -0.03758075 0.81655747 
-0.15064631 0.76962763 0.62046677 
0.3823665 0.8580943 0.342739 
-0.6885817 0.6752089 0.2644773 
-0.114241265 0.9927453 0.03749508 
0.090313785 0.9272535 0.36337903 
-0.47431085 0.34432065 0.81023 
0.13738099 0.6611373 0.7375798 
-0.47669965 0.6688515 0.5704343 
-0.6584011 0.5186715 0.5454245 
-0.7123478 0.6836473 0.15870452 
-0.22266898 0.7370407 -0.6381141 
-0.87799096 0.06816146 -0.4737996 
-0.5776269 0.6971544 -0.42464465 
-0.18839203 0.9804591 -0.056643732 
0.7310912 0.6320517 -0.2569365 
0.023148362 0.99677694 0.07681057 
0.40631527 0.8406505 -0.35807076 
0.6953992 -0.27533492 -0.6637851 
0.1776938 0.7646502 -0.6194635 
-0.43898353 -0.1409502 -0.8873706 
-0.47838235 0.4546869 -0.7512723 
0.6228793 0.6946722 -0.35979414 
0.5459629 0.556443 0.6263352 
-0.2972898 0.94137263 0.1594878 
-0.25323445 0.94135994 0.22296637 
-0.39121178 0.58133376 -0.7134455 
-0.16851696 0.27369356 -0.94693923 
-0.7198422 0.6254225 -0.3011212 
-0.31510904 0.8294902 -0.4611425 
0.018089216 0.906531 -0.42175165 
0.18145022 0.82216614 0.5395543 
0.31063655 0.08774034 0.9464706 
0.46079817 -0.07163342 0.88460946 
-0.43045887 0.4089918 0.804631 
0.0014808465 0.31883577 0.9478088 
-0.023121253 0.08210856 0.9963552 
-0.34931064 0.17605542 0.9203188 
-0.6718688 0.68042463 -0.29259983 
0.06634828 0.52362865 -0.8493591 
0.7053089 0.32313988 -0.63096744 
0.30065647 0.64380574 -0.70364755 
0.2118025 0.40348423 -0.89013493 
-0.45527792 0.68190825 -0.5724712 
-0.34164962 0.1945871 -0.9194627 
0.54396725 0.42182782 -0.72536963 
0.65164053 0.1273252 -0.7477653 
0.8696474 0.3840455 0.3101974 
0.3546778 0.8397229 -0.4111805 
-0.6587391 0.6627652 -0.35609713 
-0.61284786 0.74807423 -0.25456336 
-0.3770091 0.60739833 -0.6992364 
-0.8707872 0.48236313 0.09516082 
-0.39116025 0.91522425 -0.09673869 
0.11810571 0.8414944 0.5271984 
-0.68123364 0.36672062 0.63359034 
-0.86120665 0.40323767 0.30939084 
-0.80054337 0.45216793 -0.39328682 
-0.84388655 0.34993634 -0.4066939 
-0.39210388 -0.06255891 -0.9177913 
0.3865525 -0.50673467 -0.7705823 
0.21605031 0.27402624 -0.93714035 
0.1694563 -0.20416966 -0.9641574 
0.6684576 -0.13070123 -0.73217595 
0.90734816 0.12865508 -0.40020898 
0.82775235 0.547408 0.12316944 
0.8727011 0.44566256 -0.19944341 
0.6095131 0.66616213 -0.42979273 
0.50464696 0.5026641 0.70189774 
0.9245503 0.020619614 0.38050163 
0.086493984 0.48559788 0.8698928 
-0.31055593 0.44685692 0.8389719 
0.21668127 0.47785008 0.85129815 
-0.11458048 -0.21859173 0.969066 
-0.5905287 -0.15907662 0.79118294 
-0.0475626 -0.23248675 0.9714359 
0.17197213 -0.54554015 0.82025087 
-0.18546027 0.89013386 0.41625267 
-0.8616512 0.43108103 0.26781788 
-0.8823675 0.070718385 -0.46521682 
-0.6943346 -0.6298217 0.34817246 
-0.35654274 -0.93100536 -0.0781439 
-0.42642552 -0.5684445 0.70358527 
0.27230433 -0.52727026 0.80488294 
-0.038119305 -0.24498214 0.9687779 
0.12230124 -0.1640364 0.9788435 
0.10451684 0.55986047 0.8219687 
0.5129793 0.34788394 0.7847477 
0.5961118 0.085534774 0.79833245 
0.5388012 0.36685902 0.7583587 
-0.274596 -0.15943597 0.94824964 
-0.9325765 0.27164966 0.23771319 
-0.6390976 0.20821992 -0.7404045 
-0.11221503 0.69974434 -0.7055251 
-0.60782546 0.7250288 0.32385406 
-0.08630844 0.88726264 0.45311788 
-0.30833995 0.94386226 0.118534915 
0.9710909 0.23543495 -0.039406333 
0.40234327 0.6144981 0.67861044 
-0.3865614 0.8560318 0.34319067 
-0.1924824 0.9643187 -0.18176948 
-0.63336074 0.760186 -0.14481513 
-0.6428901 0.7475535 0.16690132 
-0.58397657 0.7848487 -0.2073257 
-0.07740209 0.23658119 -0.96852374 
-0.47723308 0.7853679 -0.39426628 
-0.8410599 0.53063214 -0.105108336 
-0.81422025 0.4540154 0.36182255 
-0.60443425 0.73779655 -0.3005255 
-0.49618775 0.80061877 -0.33586836 
-0.98396087 0.16460116 -0.06875803 
-0.7590705 -0.21700221 -0.6137768 
-0.70236456 0.66048837 -0.26540393 
-0.45354128 0.87661743 0.16075516 
-0.20475578 0.5590008 -0.80348814 
-0.24749017 0.67714536 -0.6929811 
0.4128872 0.9107729 -0.004103439 
0.012650393 0.9920505 -0.12520269 
-0.15928319 0.9454622 0.28413042 
-0.4674688 0.8488432 0.24685678 
0.45718187 0.81850255 0.34790552 
0.63148683 0.7312816 -0.25778222 
0.16705114 0.9555773 0.242829 
-0.36250806 0.8764823 0.31680706 
-0.31620744 0.8508318 0.4196406 
-0.10020957 0.9838083 -0.14859125 
-0.2278382 0.96316576 -0.14283367 
-0.33977112 0.094103426 0.9357885 
-0.5482866 0.8215743 0.1561975 
-0.9011921 0.43062285 0.049161244 
-0.20925395 0.428502 -0.8789761 
-0.55277467 -0.39677724 -0.73280835 
-0.4781568 0.46854684 -0.7428526 
-0.48919567 0.6400311 -0.59249294 
0.14167328 0.6059458 0.78278893 
0.47816026 0.13404079 0.8679839 
0.31467885 -0.21997826 0.9233563 
-0.37289318 0.052748404 0.9263737 
-0.0013135932 0.23122597 0.97289926 
-0.73055005 -0.08836507 0.6771176 
-0.70835495 0.6284821 0.32131535 
-0.5451937 0.13952354 0.8266179 
-0.54408 -0.4534147 0.70596886 
-0.81018037 0.38983676 0.43776155 
0.14436264 0.87351316 -0.4649024 
0.4479119 0.8456629 -0.29022282 
0.3365323 0.809512 0.48107848 
0.38972598 0.8740362 0.29012808 
0.34136632 0.86998516 0.3558019 
0.6793488 0.5701851 0.46192437 
0.01555198 0.14705792 0.9890057 
-0.01512268 0.41038114 0.9117887 
-0.20656666 0.797552 0.5667813 
-0.24067146 0.9231577 -0.29976207 
-0.86108303 0.0550609 0.5054744 
0.053329766 0.1921097 0.97992337 
0.695783 -0.11768784 0.7085448 
0.7608729 0.07086248 0.6450201 
0.926293 0.37470016 0.039763983 
0.36407536 0.30932578 0.8785026 
0.2356034 -0.4792454 0.8454673 
0.23453423 0.21162693 0.94879276 
0.042220827 0.32670397 0.94418323 
0.3471296 0.73960334 0.5766178 
0.241639 0.94902384 -0.20239681 
0.5475867 0.70085156 0.4571171 
0.13423444 0.4146547 0.90002376 
-0.58175087 0.5792953 0.57094914 
-0.58716136 0.44228646 0.677956 
0.22445825 0.81197965 0.53880197 
0.2348043 0.7667156 0.59750664 
0.86058277 0.37989753 -0.3392274 
0.58216155 0.6953934 0.42132655 
0.41901255 0.50989366 0.7512903 
0.23845498 0.48479858 0.84149253 
-0.37493044 0.88795894 0.26637617 
0.00721796 0.7918206 -0.61071116 
0.60313386 -0.09895267 -0.79147834 
0.3605169 0.81934947 -0.44575107 
-0.21069312 0.9756328 -0.061230894 
-0.5457881 0.81203187 0.2066875 
-0.1563432 0.75079966 0.6417606 
-0.2619811 0.62117815 0.7385822 
0.73566836 0.5418294 0.40646407 
0.36028907 0.48299453 0.79806525 
0.14487362 0.72412103 0.6742851 
0.071722105 0.9119894 0.40389547 
0.4440889 0.74755895 0.49390352 
0.8529731 0.4234258 0.30520096 
0.35320583 0.2681671 0.89628804 
0.94959563 0.18470314 0.25328434 
0.31932908 0.624589 0.7126833 
0.39694038 0.72308064 0.5653254 
-0.21647999 0.5765206 0.7878836 
-0.123125784 0.24639173 0.9613175 
0.9624921 -0.023598794 0.27028176 
0.47008055 0.7207365 -0.50947356 
0.8963473 0.3656741 0.2506869 
-0.5646737 0.79363585 -0.22646396 
-0.3133817 0.91896707 -0.23935656 
-0.8165733 0.5569638 0.15165529 
-0.9871583 0.089645505 -0.1322204 
-0.53420174 0.0843061 -0.8411427 
-0.9527943 0.240005 -0.1859587 
-0.0032899736 0.4506969 0.8926711 
-0.47061995 0.033539083 0.88169837 
-0.62915504 0.6004147 0.49362564 
-0.086363845 0.9953281 -0.04316662 
0.2895647 0.44273564 0.8486092 
0.55953366 0.35124525 0.7506989 
-0.28061724 0.8680164 0.40963584 
-0.41595095 0.82167864 -0.3896524 
-0.7985014 0.5986728 0.06313901 
-0.1628004 0.95188314 0.25964296 
0.44466174 0.87238866 0.20301205 
-0.064394124 0.9900152 0.1253928 
-0.27774844 0.94609416 -0.16661812 
-0.30018982 0.8733833 -0.3835201 
-0.05645423 0.7424945 -0.667469 
-0.2722858 0.91826427 -0.28749123 
-0.7248823 0.42483622 0.5422729 
-0.73740023 0.65315294 0.17214 
-0.9170349 0.38520795 0.10325588 
-0.7692016 0.50387335 -0.39298925 
-0.33277562 0.80168253 -0.49655378 
-0.32233417 0.75947535 -0.5650646 
-0.3512286 0.8717718 -0.3415441 
-0.32475638 0.9328103 -0.1561995 
0.19922702 0.95378053 -0.22496955 
0.69260854 0.60713196 -0.3894668 
0.8024772 0.5865146 -0.109686114 
0.5806582 -0.1849168 0.7928694 
0.46208975 0.4872384 0.74099386 
0.41874978 0.7574188 0.50096464 
0.23555368 0.90349495 0.3580662 
-0.6557771 0.31620872 0.6855425 
-0.19390124 0.7207864 0.66548437 
-0.6915344 -0.29195234 0.6607148 
-0.94781613 0.09444401 0.30450785 
-0.36700696 0.930161 0.010317597 
-0.28229943 0.9421751 0.1805912 
-0.4882832 0.862134 0.13529404 
-0.50780725 0.6840373 -0.52366483 
-0.26180103 0.8819239 0.3920082 
0.0029090976 0.97371215 0.2277634 
0.24093884 0.9423008 -0.2324173 
0.51505804 0.8503664 -0.10766669 
-0.12988047 0.10772059 0.9856609 
-0.4505392 0.5964549 0.6642711 
-0.43703717 0.74024034 0.5109235 
-0.7805431 0.54812163 -0.30052486 
-0.1632081 0.9539917 -0.25152117 
-0.032674246 0.99421865 0.102282554 
-0.11338649 0.96531373 0.23518726 
-0.30499917 0.89564705 0.32371584 
-0.13037601 0.88468206 0.4475935 
-0.4844425 0.48839378 0.725801 
0.21130136 -0.011721701 0.97735065 
0.5078016 0.6071404 0.6111613 
0.027567757 0.8542557 0.51912165 
0.33459303 0.7701691 0.54303515 
-0.5551896 0.6435841 0.5268436 
-0.09809171 0.76494014 0.63658834 
-0.56259054 0.28412807 0.7763783 
-0.74609953 0.06971864 0.66217434 
-0.41872364 0.26476747 0.86865926 
-0.8759624 0.4630045 0.13534012 
-0.24453256 0.70783556 0.662701 
-0.015237326 0.90842026 0.4177805 
-0.6044389 0.70495486 0.37106907 
-0.279796 0.95945555 0.034047186 
-0.7147132 0.6905725 0.11088162 
-0.2046209 0.89267796 0.40156743 
-0.132588 0.8018362 -0.58264846 
0.4299674 0.47100496 -0.77024835 
0.30997777 0.411642 -0.85700923 
0.6900725 0.23796383 -0.68350077 
0.6366859 0.69126976 -0.3417269 
0.638686 0.7618817 0.10777986 
0.15857428 0.84778255 0.50608194 
-0.31172156 0.35202202 0.8825589 
-0.6334741 0.77249795 -0.04424294 
0.07462444 0.89894307 -0.43166274 
0.19917576 0.97272485 0.11889215 
-0.5812589 0.54028445 0.608466 
0.08999754 0.90496737 0.41585398 
-0.37417382 0.860093 0.34674767 
-0.6323142 0.35045934 0.6909103 
0.10108693 0.22066917 0.97009623 
0.14648129 -0.729007 0.6686495 
-0.10315416 0.22015251 0.969996 
0.25589174 0.31633347 0.91348386 
-0.6317156 0.5011575 0.5914191 
-0.6641586 0.16693 0.72871655 
-0.8641634 0.4606157 -0.20262037 
0.17516503 0.067925304 -0.9821932 
0.71857315 0.44013667 -0.53845364 
0.48834634 0.872341 -0.02322056 
0.13879232 0.44810715 -0.8831402 
0.33344498 0.4718215 -0.8162101 
-0.1169931 0.8126177 -0.57093364 
0.26372468 0.9645086 -0.013136542 
0.9531655 0.2778122 -0.11956616 
0.5985089 -0.46056813 0.65548766 
0.22323129 0.79659474 0.5617872 
0.20843792 -0.097483695 0.97316533 
-0.7485158 0.12650622 0.65093803 
-0.9544635 -0.17937444 0.23837858 
-0.74081874 0.66971964 -0.05160704 
-0.5609397 0.7180537 -0.41200194 
0.22730082 0.94838005 0.22115551 
-0.47219115 0.6396741 0.6065086 
-0.8869318 0.41546047 0.2018528 
-0.45269498 0.8811497 -0.13653715 
-0.97373074 0.20901507 -0.090339154 
-0.56193584 -0.44427148 -0.69774705 
0.38036767 -0.5820641 -0.7186946 
0.32096758 0.5623845 -0.76203907 
0.399207 0.4193194 -0.8153559 
0.7270965 0.44116497 -0.5260269 
0.9212865 0.3458859 0.17774719 
0.93950325 0.31067878 0.14426492 
0.82676965 0.43261266 0.35958064 
0.71851873 0.3394331 0.60705525 
0.6550376 0.64041865 0.40098602 
0.84446806 -0.0950556 0.52710366 
0.80612314 0.53532976 0.25216603 
0.62401617 0.22723684 0.74764115 
0.90600353 0.01734269 0.4229147 
0.49836367 0.46405038 0.73231894 
0.07319923 0.42994964 0.89988077 
-0.2788654 -0.25670123 0.9253857 
-0.59662014 -0.41359717 0.6877368 
-0.9142066 0.108477086 0.3904601 
-0.99622065 0.07173236 -0.048978258 
-0.97138524 -0.18643925 -0.14714378 
-0.123093456 -0.67453444 -0.72790885 
0.1681139 -0.9060901 -0.3882504 
-0.054003708 -0.9634871 0.26225233 
0.39421287 -0.7555413 0.5232147 
0.31271943 -0.13551976 0.9401282 
0.74186325 0.3245187 0.5867935 
0.66651803 0.5378894 0.51616746 
0.86636144 0.3962225 0.30401585 
0.35176894 0.20444117 0.9134892 
0.56972075 0.0549257 0.82000095 
0.4963137 0.6056877 0.6219448 
-0.08332318 0.43495366 0.89658946 
-0.8941211 0.16062054 0.4180295 
-0.36785975 0.5938968 0.7155179 
-0.25881523 0.74766743 0.61156213 
0.16259775 0.94876164 0.27094907 
0.09468783 0.95220286 -0.2904206 
-0.2986013 0.40751442 0.8630003 
-0.23087688 -0.08219049 0.9695054 
-0.97387934 -0.18478653 0.13195822 
0.14597274 0.89533603 -0.42079127 
-0.0982363 0.6465249 -0.7565416 
-0.72192293 0.33225787 0.6069861 
0.05541737 0.5374147 0.8414953 
-0.176048 0.98026025 -0.08998289 
-0.6088162 0.31026873 0.73012066 
0.3508699 0.584009 0.732 
0.07564058 0.89559597 0.4383908 
-0.64410585 0.6891183 0.3320297 
-0.6069308 0.45339936 -0.65273577 
-0.5299053 0.8013702 0.2775001 
0.54197145 0.16334467 0.8243698 
-0.12656842 0.4463821 0.88584626 
-0.27908581 0.85394245 0.43919632 
0.23798122 0.9557373 -0.17300643 
0.11658931 0.77308774 -0.62349194 
0.037646044 0.9886461 0.14547093 
0.3209479 0.580607 0.7482567 
0.06692581 0.14754543 0.9867884 
0.24307354 0.936573 -0.25248015 
0.7906267 0.56612694 -0.233259 
0.6087131 0.7636848 -0.21506764 
0.6568067 0.7243902 0.20943709 
-0.47522038 0.7562907 0.4496556 
-0.68140215 0.49794644 0.5364145 
-0.6585359 0.74882525 0.07477452 
-0.6838922 0.66326094 0.30393493 
0.20606977 -0.22146235 0.9531473 
-0.6642599 0.09513113 0.7414236 
-0.83089626 0.52584994 -0.18191539 
-0.33244658 0.7070867 -0.62410563 
-0.44549277 0.71404374 -0.5400721 
0.0784055 0.9168797 -0.39138764 
0.24977325 0.86993724 -0.4252323 
0.5884999 0.3668817 0.72046214 
0.7612722 0.56426144 0.31948972 
0.20624048 0.36726332 0.90696335 
0.5472107 0.5158098 0.65916675 
0.57306916 0.6407746 0.5108814 
-0.56612104 0.64370173 0.51493216 
-0.55289006 0.16537008 0.8166795 
-0.2983563 0.2758867 0.9137123 
-0.6608663 0.41007814 0.62856317 
-0.6836793 0.50700676 0.5249066 
0.5694433 0.5528056 -0.6083916 
0.72795135 0.67067957 0.14239354 
-0.0012091788 0.7896169 0.61359894 
0.318479 0.6981544 0.64121115 
0.39446238 0.5391085 0.7441515 
0.9774923 0.08490527 0.19313243 
0.45110807 -0.5356435 0.713854 
0.3643232 0.006038837 0.9312531 
-0.4435868 0.6944997 0.56648123 
-0.35373864 0.91111946 -0.21149564 
-0.31974816 0.4789516 0.81753683 
-0.018136857 0.07559525 0.9969737 
0.5295662 -0.65299994 0.541434 
0.37843397 -0.056618787 0.92389506 
-0.14150253 0.17912298 0.97359747 
0.045298133 -0.041882467 0.9980952 
0.16506359 0.4531011 0.8760443 
0.019510051 0.47201395 0.8813752 
0.4388606 0.06819244 0.89596385 
-0.12423907 0.9342732 0.33421293 
0.91386825 0.27483502 0.29884884 
0.60659826 0.6209032 0.49650562 
0.48891255 0.5204368 0.7000786 
0.22842592 0.6088942 0.7596509 
-0.084164016 0.96012646 0.26659626 
0.34274614 0.70106936 0.6253215 
-0.11646114 0.70694286 0.69761646 
-0.4587679 0.64056104 0.61580324 
-0.19127761 0.16757703 0.9671251 
0.016994018 0.63710225 0.770592 
0.28378284 0.890322 0.3560814 
0.6428504 0.7533183 0.1387624 
0.17692012 0.87007844 0.46006826 
0.39804745 0.6742791 -0.6220177 
-0.44415823 0.7813743 -0.4383809 
-0.20798834 0.8299927 0.51754516 
-0.45850873 0.4995284 -0.735011 
-0.050719306 0.9729472 -0.22539137 
-0.14280042 0.61928314 0.77207285 
0.2215447 0.87984765 0.42045954 
0.14197873 0.7566133 0.63826215 
0.3469196 0.419828 0.8386842 
0.1362284 0.2989474 0.94449586 
0.93200237 0.35330752 -0.08090464 
0.96656823 0.105683334 0.23361732 
0.75116545 0.29340053 0.5913261 
0.4432231 0.72959006 0.5208184 
0.22110806 0.12579168 0.9671028 
0.10044237 0.00012089862 0.99494284 
0.05835344 0.5717508 0.8183495 
-0.33597434 0.03754573 0.9411226 
0.4382631 0.49162227 0.7524845 
0.62431264 0.7146978 0.31534243 
0.44913453 0.7628612 0.46510315 
-0.49503005 0.69488895 0.5216079 
-0.32587013 0.87035966 0.36916503 
-0.85458106 -0.051013872 0.5168065 
-0.84635466 0.5059364 0.16646992 
-0.80151623 0.49215624 0.33963808 
-0.9690906 0.24149357 0.05044265 
-0.08184564 0.4113129 0.9078122 
0.091131836 0.01220152 0.9957641 
0.11169208 0.041336782 0.99288285 
-0.28624701 0.91257805 0.29200006 
0.31681418 0.15264753 0.93612367 
0.2507777 0.35579607 0.9002887 
-0.4241613 0.42045176 0.8020645 
0.043275952 0.9990463 -0.0058109686 
0.3171981 0.8514235 0.41768846 
-0.43715104 0.7555319 0.48792493 
-0.5025718 0.4119389 0.7600842 
-0.84397286 -0.0064139385 0.53634745 
-0.8046958 0.492976 0.33081636 
0.017245186 0.981845 -0.18889934 
-0.114765905 0.9910838 -0.06768948 
-0.086625956 0.9813316 0.17170982 
-0.2965013 0.8440072 0.44692165 
-0.7430142 0.5047379 0.4395106 
-0.954151 0.13635892 0.26646236 
-0.92038107 0.36815467 0.13176052 
-0.55778277 0.6372028 -0.53183746 
-0.30198953 0.63599235 -0.71015215 
-0.38234833 0.6926244 0.6116218 
-0.06629587 0.9598911 0.27242282 
0.16991556 0.9776574 0.123752706 
0.3895001 0.8883257 0.24324316 
0.6098531 0.79236746 0.015266768 
0.90613544 -0.06430851 0.41807076 
0.55015844 0.24855542 0.79721147 
0.19264105 -0.10966744 0.9751218 
-0.31665683 -0.046308164 0.9474091 
-0.6796205 -0.005717907 0.7335416 
-0.35133857 0.3021014 0.88616925 
-0.80161154 0.3916713 0.45167744 
0.11574553 0.84402794 0.52366 
-0.104633495 0.95571464 0.27506626 
-0.54514277 0.75125986 -0.37205914 
-0.4802666 0.760466 0.4370763 
0.103162356 0.960235 0.25943464 
0.00076463114 0.84941065 0.527732 
-0.5914607 0.77488285 0.22300407 
0.079263516 0.9967055 0.017191792 
-0.1870738 0.73278475 0.6542401 
0.28754115 0.6353095 0.71673 
-0.020217925 0.7770032 0.6291719 
-0.786137 0.10745228 0.6086402 
-0.6694587 0.4844393 0.5631551 
-0.44199398 0.85661006 0.2661968 
0.16684604 0.9672344 0.19136399 
0.52106297 0.76174664 0.38501364 
0.33388177 0.9273948 0.16870666 
-0.24855638 0.96835107 -0.02271805 
-0.2653405 0.5070028 0.820087 
-0.1455152 0.7711461 0.6198056 
0.5346418 0.79324394 0.2914141 
-0.3563938 0.7276523 0.58609354 
0.14046438 0.85400283 0.5009481 
0.18385914 0.93602526 0.30008775 
0.308411 0.4368205 0.8450269 
-0.5208908 0.6094882 0.5976596 
-0.51856977 0.36229962 0.7744834 
-0.33774844 0.6474848 0.68314683 
-0.49286896 0.852847 0.17243052 
0.09796629 0.6820255 0.7247371 
0.49638614 0.7213381 0.4829825 
-0.40934548 0.604775 0.6831424 
-0.24542855 -0.23381726 0.9407945 
-0.02871533 0.50620085 0.8619375 
0.25547117 0.35424218 0.89958155 
-0.6681302 0.74205244 0.054408375 
0.009378854 0.6529071 -0.75738 
0.21139716 0.02497641 -0.9770811 
0.23799899 0.6566145 -0.71569127 
0.17124882 0.7152704 -0.6775412 
0.6087139 0.4615305 0.6453348 
0.2522379 0.9669067 -0.038307715 
0.37097177 0.9244081 -0.08859886 
-0.7372385 0.4692866 -0.4860551 
-0.10302661 0.74159974 -0.6628841 
-0.682788 0.67243904 0.2857033 
0.257023 0.9301344 0.26227722 
0.58662736 -0.09416918 0.8043635 
-0.28505158 -0.09683701 0.9536081 
-0.6636387 0.00234937 0.7480496 
-0.60674113 0.33122662 0.7226024 
-0.89090973 -0.049684387 0.45145464 
-0.7235836 0.3299108 0.60628843 
-0.67628014 0.43043002 0.5978087 
-0.60449773 -0.08244655 0.792329 
-0.9326628 -0.24456826 -0.26519138 
-0.7611454 0.07262466 -0.6445025 
0.18006767 0.7602833 -0.62413543 
-0.41070125 0.82013184 -0.39838204 
0.048294682 0.6947745 -0.71760446 
0.11668479 0.98195684 0.14881353 
0.22204375 0.8852314 0.4087322 
-0.38493472 0.9227489 0.018965332 
-0.4384587 0.8557987 0.2745227 
0.2916352 0.8628261 0.41289234 
0.58212185 0.12631236 0.8032306 
0.39966506 -0.15727301 0.9030688 
0.14422983 -0.7745431 0.6158578 
-0.4198067 -0.7484412 0.5134181 
-0.68138415 -0.39817366 0.61414444 
-0.83998245 0.08146712 -0.5364631 
-0.59717673 0.7382494 0.31363627 
-0.7105354 0.36422452 0.60206306 
-0.4585602 0.6606807 0.5943262 
-0.7005697 0.65348697 0.28663024 
-0.5556496 0.70957315 -0.4333122 
-0.9639952 0.2656288 -0.012435133 
-0.700048 0.2458229 -0.67045057 
0.090831965 0.24028581 -0.9664432 
0.14149776 0.24435331 -0.95930696 
0.22130999 -0.042021193 -0.97429776 
0.77667 0.4682746 0.42131072 
0.6261031 0.6397692 0.4457469 
0.500479 0.85242933 -0.1512779 
0.34629074 0.93590474 0.06453787 
0.4340437 0.86881036 0.2382742 
0.7224062 0.68434215 0.09902137 
0.44203746 0.8363243 0.32429114 
0.6891156 0.4573969 0.5620568 
0.49861044 0.065610215 0.86433965 
-0.05536473 0.05827649 0.99676406 
0.06579932 0.6504865 0.7566622 
-0.654184 0.31774092 0.6863557 
-0.94382215 0.108041316 0.31229317 
-0.87353235 -0.014450357 0.48655167 
-0.99714744 -0.04094645 0.06340739 
-0.659767 0.30626106 -0.68623006 
-0.6147336 -0.41519538 -0.67060834 
-0.10384137 -0.20479046 -0.97328204 
0.3215462 -0.27074936 -0.90736043 
0.28825858 -0.22854152 -0.9298794 
0.8650896 -0.26253128 -0.42743117 
0.9332693 0.15295923 -0.32497996 
0.74148947 -0.09459284 0.66426325 
0.34363627 0.7645393 0.5453383 
0.7970301 -0.046244595 0.6021664 
0.75769675 -0.34437653 0.554347 
0.7604075 -0.4955872 0.41973045 
0.3172246 0.17712434 0.93166274 
0.3707675 0.26207095 0.89098275 
-0.4352647 0.4096731 0.8016937 
-0.34845117 0.5443493 0.76306325 
-0.044343174 0.24537888 0.96841264 
-0.67408645 0.7117264 -0.19761829 
-0.5066347 0.8611478 -0.041780483 
-0.53621936 0.71893156 0.4422739 
-0.5079357 0.5700166 0.6458192 
-0.32126358 0.9262774 0.1969771 
0.15293503 0.93238014 -0.32753345 
0.29641408 0.9072974 0.29824513 
-0.23176011 0.8856351 0.40241513 
0.27239677 0.96197164 -0.0202628 
-0.582386 0.73790497 0.34106135 
-0.35447168 0.75271136 0.5547752 
-0.29907814 0.83321947 0.46507818 
0.4199572 0.89340174 0.1595911 
-0.24318722 0.9527734 0.18188743 
-0.17257029 0.9847598 0.021623094 
-0.45048448 0.58039653 0.6783831 
0.13037361 -0.080855854 0.9881625 
-0.08315301 0.61036515 0.7877437 
-0.42484722 0.8402626 0.33684388 
0.5878064 0.7969128 -0.13933297 
-0.26604623 0.8079071 -0.5258381 
0.14815766 0.97707623 0.15287729 
-0.5313785 0.8429356 0.084241174 
-0.46469006 0.88100594 -0.08883636 
-0.22384287 0.67722386 0.7009011 
0.29315004 0.7156605 -0.6339505 
0.41907474 0.8954913 0.14990641 
0.59800464 0.6898423 -0.40805423 
-0.088446505 0.22505416 0.9703236 
-0.31643292 0.26102644 0.9119953 
-0.80211484 0.35479584 0.48034546 
-0.57070637 0.5692145 0.5918523 
-0.67561686 -0.40855247 0.61369926 
-0.1679479 0.7172908 0.6762304 
-0.22603323 0.7914129 0.56795657 
0.34497213 0.93721354 0.05123593 
0.15468667 0.98431385 -0.08484306 
-0.13031846 0.9912523 0.020880274 
0.081854336 0.8591879 0.50507045 
0.4644253 0.80241114 0.37476045 
0.13046722 0.85986805 0.49356398 
0.53498924 0.5328276 0.65565336 
0.6996834 0.30254176 0.64723384 
0.75723827 0.07757751 0.64851516 
0.109681524 0.82788116 0.5500754 
-0.6233723 0.38143453 0.68257946 
-0.5333628 0.2381325 0.8116754 
-0.75163335 0.6392344 -0.16256331 
-0.2137944 0.65827787 0.7217772 
0.088070005 0.8350296 0.5431107 
0.58422035 0.80360687 -0.11359016 
0.61540246 0.7865861 0.050618324 
-0.083481945 0.823904 0.5605471 
0.5189521 0.51321197 0.68359506 
0.6231651 -0.19669011 0.7569533 
0.7628497 -0.30125374 0.57210714 
0.4671815 0.16948569 0.867765 
-0.39811435 0.7264052 0.5602147 
-0.3134575 0.7792015 0.542761 
-0.5542929 0.55256647 0.6224385 
-0.36769366 0.41220957 0.83359754 
-0.62896407 -0.27215424 0.728242 
-0.2241468 0.1739734 0.95890117 
-0.20736916 0.22501042 0.95203376 
-0.16086951 0.2075592 0.96490425 
-0.26482326 -0.632387 0.7279803 
-0.05821175 -0.57055855 0.8191913 
-0.056708746 -0.53502816 0.8429288 
0.03971015 0.37938476 0.92438656 
0.3019746 0.025360163 0.9529786 
0.31313697 0.37248427 0.87361366 
0.5301301 0.44783443 0.7200045 
-0.26986486 -0.109733894 0.95662504 
-0.72168815 0.5784361 0.3802341 
0.21720025 0.93098384 0.29341656 
-0.36013854 0.6147402 0.70170844 
-0.31021798 0.6985454 0.644825 
0.17308217 0.9310307 0.32128567 
0.5919294 0.29519445 0.74998665 
0.2711103 -0.02581236 0.96220213 
0.53156406 0.5154182 0.6721486 
0.50099117 0.6712074 0.5463411 
-0.33406505 0.8508522 0.4055258 
-0.5525747 0.75944924 0.343363 
-0.24725097 0.41201785 0.87698823 
-0.055797197 0.18692055 0.9807892 
0.0077689197 0.5005508 0.86567235 
0.31872645 0.80730075 0.4966681 
0.43897405 0.33860287 0.8322559 
-0.15480539 0.36098328 0.91963387 
-0.13401587 0.26556513 0.9547329 
0.6438158 -0.2943046 0.70631874 
0.6905156 -0.19393319 0.69683444 
0.56239396 0.5026644 0.65653753 
0.49651015 0.00062668754 0.8680308 
0.068604104 0.6845099 0.7257684 
-0.16549402 0.30252224 0.9386651 
-0.41835922 0.040120322 0.9073952 
0.15323868 0.68284214 0.7143141 
0.43942413 -0.21446471 0.87230235 
0.13096179 0.669773 0.7309263 
0.6630599 0.7358279 0.1375099 
0.4604278 0.7849331 0.41459167 
-0.26268432 0.8609856 0.43554667 
-0.33790886 0.4154518 0.8445221 
-0.24889852 -0.43987677 0.8628777 
-0.8496896 0.17973268 0.49570537 
-0.99837756 0.056925554 0.0013309513 
-0.9714382 -0.16735278 0.1682286 
-0.577171 -0.43595776 0.6905176 
0.066841565 0.52379394 0.84921855 
-0.14848894 0.68574256 0.7125366 
-0.5724762 0.40938288 0.710406 
-0.11597369 0.19447155 0.9740282 
-0.3032076 0.17469971 0.9367738 
0.025905095 0.09754113 0.9948943 
0.027994387 0.97234845 0.23185106 
0.13978873 0.78338575 0.605612 
-0.45861933 0.33958495 0.82118845 
-0.2675376 -0.3366401 0.90282726 
0.36544007 -0.6211127 0.6933056 
-0.7691638 0.39354277 0.503499 
-0.24841253 0.9494245 0.19205302 
-0.19457936 0.94294626 0.27016917 
-0.14549313 0.75229996 0.6425547 
-0.22856791 0.5926366 0.77235925 
-0.4428929 0.5471932 0.71022916 
-0.6837823 0.05447482 0.7276499 
-0.099014655 0.9506826 -0.29393673 
-0.2304781 0.9549912 -0.18673949 
0.3056956 0.8834028 -0.35517552 
0.20526855 0.9115398 0.35631466 
-0.18498316 0.9207514 0.34350878 
-0.23667023 0.95701134 -0.16767952 
-0.104723126 0.9889206 -0.105209775 
0.37382403 0.83057636 0.4127938 
0.7428852 0.6684563 -0.035885315 
0.5137821 -0.03352463 0.8572655 
0.24507667 -0.26718667 0.9319596 
-0.22069423 -0.5215628 0.82417625 
0.3336164 -0.02780413 0.9422989 
-0.8154289 0.2322995 0.5302005 
-0.33375505 0.6704364 0.6626633 
0.15531144 0.5463461 0.8230337 
0.11974353 0.58244044 0.8040053 
0.037635047 0.84005034 0.5412016 
-0.60678387 0.45962557 0.6485042 
-0.47237316 0.41799217 0.77598083 
-0.24590664 0.81713194 0.5213689 
-0.0826466 0.9368908 0.3397137 
-0.38903975 0.820515 -0.41881186 
-0.8787502 0.4667905 0.09952303 
-0.2538417 0.6878244 0.6800456 
-0.57204247 0.21057087 0.7927341 
-0.38160416 0.008987932 0.9242822 
-0.760475 0.3130827 0.56890875 
0.53241074 0.46115136 0.70984393 
0.07666048 0.85392904 0.5147119 
0.24002032 0.06593519 0.9685261 
-0.04740983 0.8763038 0.47942054 
-0.0893372 0.9578334 0.27308252 
-0.092056274 0.9409462 0.32580042 
-0.4770604 0.86690974 0.14450271 
0.3608874 0.87025005 -0.3352987 
0.040594313 0.99595445 0.08016764 
0.105980664 0.80798113 0.5795988 
0.97368956 0.2106729 -0.08686565 
0.5397204 0.79474175 0.27764624 
-0.22759934 0.8018169 0.5525291 
-0.45681798 0.33277148 0.824973 
-0.061076455 0.52295613 0.8501685 
-0.40080658 0.8157794 0.41696307 
-0.17505997 0.5702786 0.80258113 
-0.18000816 0.3068006 0.9345965 
-0.65863305 0.30688298 0.6870411 
-0.08286588 0.29571205 0.9516763 
-0.39620155 0.62872666 0.66912425 
-0.7573984 0.6495137 -0.06693044 
-0.5353885 0.5740436 0.6195427 
-0.019703247 0.96711034 -0.25359297 
0.17208833 0.97952944 -0.10444001 
0.3933038 0.9190142 0.026925307 
0.31186026 0.90210634 0.2982405 
0.39719433 0.75419265 0.5229057 
-0.39829183 0.7176425 0.5712731 
0.11755579 0.936575 0.33016354 
-0.49371183 0.5011181 0.71072453 
-0.5843317 0.74620116 0.3189678 
0.070694245 0.5748898 0.81517124 
0.5271678 0.4839965 0.6984565 
0.3694043 0.13771714 0.9190074 
-0.43617153 -0.355192 0.8267968 
-0.45672607 -0.23370922 0.85835975 
-0.60362625 0.27264282 0.7492004 
-0.44900587 0.2019923 0.87039804 
-0.89327854 -0.10063433 0.43809396 
-0.96948147 -0.20656031 0.13205533 
-0.9006069 0.4314026 -0.052906096 
-0.7480365 0.3025049 -0.5907049 
-0.74719054 0.6023073 -0.28094894 
0.044978302 0.9123929 -0.4068367 
0.1758365 0.98399186 -0.029010655 
0.38027608 0.69902176 -0.60560614 
-0.17204387 0.8511524 0.495924 
0.43312678 0.67806125 0.59383017 
0.15392728 0.7374856 0.65758765 
-0.065932035 0.9798921 0.18832026 
0.24813783 0.82641625 0.50543433 
0.2718121 -0.34599844 0.8979997 
0.3442413 -0.48776847 0.80223435 
0.79036665 0.018696966 0.61234874 
0.17231606 0.44906944 0.8767233 
-0.45741564 -0.5063442 0.73101753 