# OOMMF: rectangular mesh v1.0
# Segment count: 1
# Begin: Segment
# Begin: Header
# Desc: Time (s) :  1.8099999999999975e-07
# Title: m
# meshtype: rectangular
# meshunit: m
# xbase: 2e-09
# ybase: 2e-09
# zbase: 5e-10
# xstepsize: 4e-09
# ystepsize: 4e-09
# zstepsize: 1e-09
# xmin: 0
# ymin: 0
# zmin: 0
# xmax: 1.024e-06
# ymax: 1.024e-06
# zmax: 1e-09
# xnodes: 256
# ynodes: 256
# znodes: 1
# ValueRangeMinMag: 1e-08
# ValueRangeMaxMag: 1
# valueunit: 
# valuemultiplier: 1
# End: Header
# Begin: Data Text
0.7833577 0.22414081 0.5797513 
0.88876486 0.016641313 0.45806137 
0.37034163 0.8850287 -0.28208405 
0.20251238 0.8153372 0.542415 
0.3712974 0.8561453 0.35937944 
-0.1141801 0.6402605 0.7596246 
0.089698106 0.37122667 0.9241997 
0.36520243 0.52029276 0.77196026 
0.091899 0.6660289 0.7402433 
-0.28413638 0.50818586 0.8130275 
-0.55346125 0.55824536 0.6180961 
-0.32903606 0.252696 0.9098791 
-0.35440737 0.9262053 0.12860444 
0.65126514 0.75065446 -0.11122813 
0.869446 0.48389077 -0.09956678 
0.6134588 0.76600623 -0.19210105 
0.6325917 0.76401913 0.12689549 
0.59668475 0.59303397 0.54062754 
0.2633136 0.32826328 0.9071434 
0.115913734 -0.0007712796 0.9932591 
-0.5049241 0.6099352 0.6107625 
-0.43671444 0.6092399 0.6618968 
0.5727994 -0.06294013 0.81727564 
0.37490657 0.70131916 0.6062974 
-0.26349756 0.15374613 0.9523294 
0.5204598 0.68825537 0.50539714 
0.21787775 0.91446036 0.34101567 
0.3328507 0.20923801 0.9194727 
-0.3952435 0.8763113 0.2754291 
-0.8784594 0.37783048 0.29249492 
-0.6134803 0.7499257 0.2474944 
0.12150342 0.9925652 0.0071593705 
0.17306179 0.94637614 -0.27280363 
-0.6629882 0.43513376 -0.60918427 
0.23849078 0.7214365 -0.6501166 
0.2476881 0.95493037 -0.16358076 
0.6683746 -0.09644745 -0.73754555 
0.9548511 -0.0004930397 -0.2970847 
0.7733834 0.5749019 -0.26714438 
0.9643116 0.035214897 0.26241767 
0.5461508 0.01869248 0.83747834 
0.59915847 0.14502384 0.7873863 
0.5039154 0.27015385 0.8204183 
0.49010372 0.11601593 0.8639089 
-0.33396494 0.20845297 0.919247 
-0.017751368 0.65946925 0.75152206 
-0.91671276 0.3405559 0.20894837 
-0.6697551 0.55287164 -0.4957431 
-0.6952323 0.23384026 -0.67968434 
-0.6803914 0.72225124 -0.12418036 
-0.067923196 0.50407743 -0.86098343 
-0.13288663 0.8385041 -0.5284431 
0.5578232 0.78716964 -0.26305398 
0.59142905 0.80613536 -0.018910946 
0.8223309 0.14578125 0.55001795 
0.43343338 0.39803424 0.8085198 
0.23245429 0.9156609 0.32791775 
0.36477566 0.74625844 0.5568098 
0.059366554 0.67520285 0.73523927 
-0.40305993 0.85611653 -0.32343027 
0.42975688 0.59247863 0.6813797 
-0.519078 0.7648967 0.38143286 
-0.12509659 0.9913319 0.040150214 
-0.0672298 0.747032 -0.66138 
-0.58027005 0.38111567 -0.7197483 
0.19991514 0.16543622 -0.96574575 
0.15408078 0.3933209 -0.9063983 
0.20386781 -0.4464778 -0.8712609 
0.08546734 0.6440243 -0.7602158 
0.6044243 -0.6108798 -0.5113679 
0.9601294 0.02940568 0.2780056 
0.81025994 0.49585527 0.31242043 
0.69159424 0.18659681 0.6977672 
-0.1704329 0.6967773 0.69674534 
0.56595874 0.19779475 0.80035496 
-0.57253146 0.040795956 0.81886727 
-0.5333378 -0.1530658 0.8319385 
-0.21528135 -0.2593544 0.94148254 
-0.9409487 0.17936896 0.2871276 
-0.6492549 0.752036 -0.11362237 
0.4429173 0.7595056 -0.47641963 
0.29446572 0.64948636 -0.7010402 
0.3450429 0.7977707 -0.49447694 
0.5862609 0.45023414 -0.673489 
0.9221159 0.3337681 -0.19570723 
0.5641615 0.81627935 0.12413627 
0.4211032 0.88907176 0.17950903 
0.12889758 0.47104782 0.8726393 
0.14779006 0.9810477 0.12531452 
0.24643485 0.953195 -0.1751834 
0.60575014 0.7618871 -0.22933604 
0.025567465 0.7659346 0.6424099 
0.10010839 0.59016395 0.8010524 
0.18447989 0.7546435 0.62966686 
-0.13336134 0.8605281 0.4916362 
-0.011973944 0.8769094 0.48050675 
-0.16860373 0.8830513 -0.43794197 
-0.38577121 0.9074965 -0.16622512 
0.29964155 0.9536211 0.028664446 
0.43982247 0.8449909 0.30421472 
0.76681083 0.1729912 0.6181224 
0.25845796 0.060064543 0.9641534 
0.5440339 -0.23539977 0.80536574 
-0.17894758 0.5686664 0.80286753 
0.6506372 0.1826886 0.7370863 
0.4511579 0.695767 0.55889606 
0.47647464 0.8750368 0.085337825 
-0.53291404 0.7942065 0.29195684 
0.18244807 0.8862244 -0.42581588 
-0.34757942 0.8834614 -0.31414077 
0.12533857 0.9908673 -0.049722813 
-0.41310257 0.8030025 -0.42957342 
-0.29296097 0.84910953 0.4395302 
-0.3182218 0.6553142 -0.6850535 
-0.883398 0.37132895 -0.28587213 
-0.01253638 0.8922232 -0.45142075 
0.21338631 0.88737255 0.40870082 
-0.25317323 0.3596569 0.8980815 
-0.29953167 -0.1777493 0.9373825 
0.31145516 0.1261068 0.941856 
0.5505013 0.26285166 0.7923745 
-0.16134909 0.43432194 0.886189 
0.109542176 0.7181403 0.6872227 
0.74367225 0.6094198 0.27488044 
0.8082629 0.49002677 0.32647347 
0.51605344 -0.474858 0.7128807 
0.9842522 0.05479771 0.16806212 
0.17120549 0.30197665 0.93781596 
-0.078193575 0.9073552 0.4130284 
-0.30753797 0.608291 0.7317121 
-0.38452205 0.9076947 -0.16802752 
0.2142416 0.96753144 0.1341023 
-0.57941204 0.7932107 -0.18734598 
0.079064615 0.9414011 -0.32789138 
-0.09924799 0.7118119 -0.6953228 
0.20231678 0.97682816 0.069819555 
-0.29709327 0.95380384 -0.044651926 
-0.7490003 0.65429157 -0.10440869 
-0.027782021 0.09732463 -0.99486494 
-0.1698202 -0.122995846 -0.97776943 
0.14525004 0.466253 -0.87264574 
0.57344973 0.49411327 -0.6534582 
-0.30621818 0.46634942 0.82990885 
-0.247641 0.8374054 0.48726395 
-0.7705081 0.5669311 0.29138696 
-0.58212596 0.6226065 0.5229633 
-0.45563275 0.3332588 0.8254317 
-0.2853529 -0.059893366 0.9565493 
-0.20853816 0.7501382 0.62753844 
0.4007562 0.6474787 0.64820206 
0.0039328365 0.8088102 0.58805674 
0.09759585 0.9760629 0.19436145 
0.5897357 -0.075083 0.8040985 
0.38156348 -0.43304032 0.8166305 
-0.18649535 0.12336744 0.9746794 
-0.049930546 0.55931485 0.8274502 
-0.1755371 0.98431146 -0.01782376 
-0.3713357 0.8595151 -0.35120335 
-0.599685 0.62988085 0.49358708 
-0.25525188 0.70600605 0.66060734 
0.5747398 0.3425306 0.74320054 
0.008305087 0.68183714 0.73145694 
0.39791426 0.63832337 0.6589443 
-0.4396802 0.84219545 0.312071 
-0.6848951 0.57046574 0.45330745 
-0.4190371 0.7313793 0.5380449 
-0.02341622 0.7266808 0.68657607 
-0.4828758 0.8755455 0.015847478 
-0.29177585 0.9415632 -0.16830185 
0.8987323 0.3284925 -0.29047036 
0.86315286 -0.42420346 0.2738956 
-0.3120068 0.7258846 0.6129791 
0.0064765816 0.23115352 0.9728958 
0.16109367 0.73357046 0.66024494 
-0.11688655 0.6893999 0.71488833 
-0.11852149 0.14831091 0.98181295 
-0.9354507 -0.2329292 0.26585004 
-0.76273024 -0.5778934 0.29031336 
-0.9334498 -0.3559127 0.044695534 
-0.95811474 -0.2700405 -0.09536388 
-0.51852274 0.21660268 -0.8271744 
-0.9944791 0.056335293 0.088531055 
-0.30162504 -0.69564795 -0.65199417 
-0.6969679 -0.21104261 -0.6853443 
-0.43684137 0.033638395 -0.89890945 
0.19377632 0.73259455 -0.65249985 
-0.38044196 0.5329641 -0.7557865 
-0.05720332 0.42696196 -0.90245855 
-0.15493734 0.46927994 -0.8693508 
-0.54862803 0.81752235 -0.17511328 
-0.19054641 0.93880844 -0.28693354 
0.5264836 0.72758764 -0.43980828 
0.7239746 -0.20042817 -0.66006774 
0.6041548 0.4385511 -0.66533446 
0.7095196 0.14738397 0.68910086 
0.9013735 0.31456438 0.29761568 
0.41884133 0.83940035 0.34638005 
-0.4372355 0.22394268 0.8710194 
-0.5382641 0.842686 0.012334559 
-0.75870985 0.63082486 -0.16254053 
-0.15776452 -0.55868745 -0.8142351 
-0.19329563 -0.15125939 -0.96941084 
-0.38803118 0.5423376 -0.74518573 
0.17668864 0.7799163 -0.60042644 
0.13738255 0.94962305 0.2816772 
0.7253005 0.46227288 0.5101403 
0.570762 0.7210823 0.39277363 
0.7896686 0.50250787 0.3520077 
0.5411382 0.5706159 0.6177112 
0.8381261 -0.32542288 -0.4377722 
0.48602393 0.7488678 -0.45053047 
0.92557 0.37095606 -0.075575985 
0.24865241 0.93903154 -0.23746952 
0.572758 0.8068091 -0.14493875 
0.14518754 0.95143586 -0.27145985 
-0.018073255 0.4400715 -0.89778095 
0.23720784 0.74276924 -0.62612003 
-0.34951472 0.27596697 -0.89536685 
-0.6336484 0.59050953 -0.49978814 
-0.2392626 0.27083722 -0.9324166 
0.58545375 0.52190894 -0.62036693 
0.90788496 -0.0064011104 0.4191707 
0.8806395 -0.018595586 0.4734221 
0.50230736 0.84914905 0.1631973 
-0.42013565 0.8792003 0.22470637 
-0.091550834 0.22788088 0.96937543 
-0.5605692 0.49382612 0.6647541 
0.1713531 0.8737647 0.455163 
0.44811392 0.06203144 0.8918218 
0.18320131 0.20684648 0.96106803 
-0.33265248 0.27782634 0.90119636 
0.44409448 0.81276745 0.37707973 
0.33301973 0.6581026 0.67527694 
-0.096526064 0.4464556 0.88958424 
-0.5343631 0.43766764 0.7231205 
-0.4043953 0.66221523 0.6308213 
-0.2130033 0.5979512 0.77271205 
-0.5245124 0.8138258 -0.25014895 
0.08647835 0.7849726 -0.6134651 
-0.1777581 0.98376226 0.024778457 
0.5385152 0.7519998 0.38012856 
0.5114346 0.72866493 0.45550203 
-0.103962176 0.94358724 0.31438032 
0.54571354 -0.07519266 0.8345914 
0.25577345 0.9654906 -0.049071446 
-0.47113815 0.6420963 -0.60476553 
-0.838847 0.41409913 -0.35335234 
-0.27940184 0.47562954 -0.83409303 
-0.17650606 0.61365634 -0.7695918 
-0.27490643 0.6920338 -0.6674696 
-0.61587834 0.07528181 -0.7842364 
-0.038588632 0.88863474 0.4569894 
0.66952455 -0.4099328 0.61942875 
0.08760812 -0.67209154 0.7352672 
-0.25082308 -0.063663594 0.9659373 
-0.17087312 0.7670711 0.6183885 
0.5270873 0.29867175 0.7955967 
0.33908528 0.71322244 0.6134615 
0.5053337 0.8029629 0.31605148 
0.55342364 0.53251994 0.64042556 
-0.17774926 0.96639156 0.18572196 
0.27322403 0.41421655 0.86820126 
-0.3230361 0.87588716 0.35842612 
-0.25521162 0.8498892 0.4610373 
-0.04480053 0.6193437 0.7838407 
-0.19071622 0.75310564 0.6296501 
0.080079645 -0.045685764 0.995741 
-0.24748969 0.79274315 0.5570523 
-0.45544454 0.88721746 -0.07359061 
-0.09802222 0.5794117 0.8091191 
0.09519295 0.75398564 0.6499568 
0.07949101 0.9605616 0.2664635 
0.30262926 0.94934094 0.08465974 
0.56783193 0.726029 0.38787735 
0.65675884 0.5904866 0.46903458 
0.21062365 -0.30037162 0.93027663 
0.109188385 -0.32919574 0.93792754 
0.44530854 -0.077466115 0.89201987 
0.43046197 -0.3965227 0.8108467 
-0.29821792 0.40222195 0.8656118 
-0.14417508 0.3229222 0.9353795 
0.26912832 -0.18356311 0.94544935 
0.3952994 0.43695453 0.8079662 
0.23403734 0.10017259 0.9670533 
-0.51633483 0.29741898 0.80308187 
-0.7960303 0.33596507 0.50345147 
-0.7559489 0.54979885 0.35533434 
-0.6304222 0.4735352 0.6150872 
-0.5471621 0.63035667 0.5506943 
-0.82178 0.41316625 -0.39239186 
-0.121051684 0.6942154 -0.7095149 
0.7551899 0.5762282 -0.31248912 
0.6353411 0.090414844 -0.7669205 
0.7591457 0.6362628 -0.13735923 
0.42289796 0.90606326 0.014381104 
0.56789595 0.6329748 0.5261531 
0.67889243 -0.32774246 0.6570312 
0.5988257 0.43016145 0.6755509 
0.014189306 0.9192464 0.39342716 
0.21535835 0.34570277 0.9132964 
-0.08662299 0.37171328 0.9242974 
0.23856314 0.5970364 0.7659212 
-0.28383112 0.94585013 0.15750399 
0.2700948 0.95633733 -0.111659236 
-0.96776134 0.21684971 -0.12811835 
-0.35778692 0.9204146 -0.15756145 
-0.0029468802 0.9658361 -0.2591369 
0.6909599 0.71325576 0.117646925 
0.7974704 0.58106667 0.16248861 
0.65429264 0.66717285 0.35606402 
0.5813882 0.53889537 0.60957336 
0.43485376 0.44413906 0.78335345 
0.61213094 0.637165 0.46831235 
0.2179058 0.11106338 0.9696299 
0.10440726 0.90246373 -0.41792136 
-0.36851493 0.78271234 -0.50155574 
-0.2390196 0.8276536 -0.50779843 
-0.16331212 0.6938636 0.70134336 
-0.069473594 0.9863518 -0.14927691 
-0.2433344 0.95402557 0.174996 
-0.882745 0.42719093 -0.19562487 
-0.23488484 0.42505902 -0.874159 
0.52053064 0.76158565 -0.38605088 
0.15941665 0.12618548 -0.97911364 
0.39640835 0.53641796 -0.7450612 
0.91854453 0.38221446 -0.10093611 
0.8748955 0.48405325 0.015819885 
0.8602859 0.442715 0.25280738 
0.51835406 0.75151753 0.4080817 
0.47135115 0.52352446 0.70975363 
-0.13175844 0.44958 0.88346905 
-0.476612 -0.56858736 0.6704845 
-0.03373473 -0.66961503 0.74194187 
-0.8614145 -0.2115632 0.46174258 
-0.9366001 0.079598576 -0.3412394 
0.049025226 0.99829066 -0.03181852 
0.36679673 0.91759014 0.15326001 
0.3663456 0.86164135 0.35123375 
0.42627144 0.89791626 0.10972348 
0.40030217 0.907877 -0.12456998 
0.77539605 0.62705296 -0.07460318 
0.5162713 0.7345303 0.44037402 
0.28181568 0.71039146 0.6449217 
0.90266156 0.29972363 0.3088172 
0.5697263 0.5722655 0.5898511 
0.37073332 0.5269874 0.76474905 
0.6696685 0.67441267 0.3109851 
0.5908386 0.1282281 0.79653466 
-0.41467863 0.74661845 0.52019477 
-0.60119 0.04254221 0.79797304 
-0.90406203 0.20760947 0.37359107 
-0.4993248 0.82178557 -0.2744873 
-0.22115603 0.95316404 0.20632146 
-0.06652385 0.9888679 -0.13309737 
0.38115865 0.825579 0.41609797 
0.99221766 0.028687673 0.12116575 
0.7870117 0.49908853 0.36266154 
-0.07688087 0.11069835 0.9908761 
-0.03721197 0.12864278 0.99099267 
-0.3596257 0.2130075 0.90845865 
-0.42597464 0.139967 0.8938429 
0.21749899 0.97207516 0.088114776 
0.48309964 0.8710606 0.088703215 
-0.5828967 0.7429335 0.32906106 
0.36939904 0.90317994 -0.21865569 
0.06638281 0.9109108 0.40722823 
-0.26702237 0.9592188 0.092727356 
-0.5626468 0.544228 0.6222898 
-0.60863096 0.755404 0.2427617 
-0.42518085 0.8709803 0.24620059 
-0.9383456 0.25808528 -0.22999892 
0.4985902 -0.18472803 0.8469258 
-0.113146976 0.4840541 0.867692 
-0.055791534 0.2962133 0.95349103 
-0.6264931 -0.39029709 0.6746663 
0.28397653 -0.51883537 0.8063296 
0.68899375 -0.17445749 0.70345736 
0.42988274 -0.28958794 0.85518396 
0.3044196 0.39791894 0.8654417 
0.6056858 0.36027426 0.7094697 
0.9252964 0.37752247 -0.03610146 
0.32495797 -0.68357897 0.6535458 
0.78080744 0.14197834 0.60842586 
0.25593853 0.46398228 0.84806603 
-0.16723377 0.43990055 0.88233805 
-0.3070386 0.42360127 0.8522261 
-0.23072542 0.4364972 0.8696183 
-0.7770012 0.3777165 0.5035866 
-0.61140424 0.6670334 0.42573637 
-0.35900912 0.66354203 0.6563722 
-0.086826 0.23434192 0.96826917 
-0.43482473 0.50179905 0.74774677 
0.16649894 0.97391427 0.15417269 
0.5709643 0.4922183 0.6570549 
0.82799643 0.53950095 -0.152842 
0.6843407 0.701117 -0.20028189 
0.25032485 0.85183674 -0.4601212 
0.25563967 0.9615055 0.100774504 
0.35049683 0.9361721 0.027087213 
0.038992614 0.95705986 0.2872562 
-0.2989341 0.40113702 0.86586803 
-0.3665706 0.48080498 0.7965254 
0.015652087 0.1346473 0.99077 
-0.03509397 -0.6219192 0.7822947 
-0.53238523 -0.083037876 0.84241956 
-0.035202086 0.33685046 0.94089997 
-0.12677038 0.7427703 0.65743566 
-0.17722982 0.21930717 0.95942384 
0.43710387 -0.7291277 0.5266053 
-0.072356984 -0.5168639 0.8530042 
0.19061059 -0.06267093 0.97966325 
-0.10917519 0.30292746 0.9467396 
-0.45858243 0.2156847 0.86208034 
0.0016927688 0.83462167 0.55082124 
-0.3029104 0.62582475 0.71874106 
0.032329716 -0.15347247 0.987624 
-0.09596027 0.15226182 0.9836707 
0.18391399 0.40436867 0.89591384 
-0.08493086 0.34630698 0.93426883 
-0.2820156 0.77731615 0.5623582 
0.30930942 0.5850891 0.7496656 
-0.417486 0.6264313 0.6582472 
-0.12105469 0.64464986 0.7548326 
0.035384763 0.64445883 0.7638198 
-0.12831743 0.59969753 0.7898718 
-0.12238712 0.40042663 0.90811896 
0.0601141 0.7544405 0.6536098 
-0.2982543 0.6072722 0.73638636 
-0.6446333 -0.20064369 0.7376924 
0.35717815 0.03558791 0.9333581 
-0.34841967 0.22208159 0.9106501 
-0.2854202 0.079153046 0.9551284 
-0.927312 -0.01648886 0.37392586 
-0.6763762 -0.714603 0.17848742 
-0.9643435 -0.09593948 -0.246652 
-0.90971 0.4130962 -0.042182293 
-0.6547832 0.40354088 -0.63907266 
-0.74518406 0.50979173 -0.42989892 
-0.87013066 0.29120386 -0.39758387 
-0.5564462 0.29796115 -0.77562034 
-0.51565796 -0.002076264 -0.85679215 
-0.007766257 0.98840517 -0.15164085 
0.15680715 0.93263006 -0.324981 
-0.35588497 0.91006047 -0.21245204 
-0.19119327 0.7970502 -0.5728493 
-0.31437445 0.64954585 -0.69228536 
-0.16872412 0.9385999 -0.3009361 
0.52931356 0.6867492 -0.4981995 
0.86936927 0.4599045 0.18078966 
0.74059474 0.64399976 0.19179137 
0.5824181 0.19346705 0.7895314 
0.44575843 0.84045124 0.30812517 
0.20459843 0.96773213 0.14708526 
-0.2521265 0.81923264 0.51506335 
-0.63778394 0.76773024 -0.061821487 
-0.8183708 0.5674608 0.09087096 
-0.8962959 -0.13070525 -0.4237567 
-0.10432885 0.8806372 -0.46216178 
0.52110326 0.82136095 0.23198602 
0.1591937 0.9189378 0.3608472 
0.5976475 0.7485391 -0.28723997 
0.19577867 0.46865308 0.86141455 
0.285219 -0.019699164 0.95825994 
0.6722554 0.5970211 0.4377654 
0.70209074 0.038962703 0.7110208 
0.80052245 0.17083327 0.57443875 
0.5716766 0.5779009 0.5824229 
0.8208237 0.27403316 0.5011528 
0.10084682 0.9794015 -0.17493622 
-0.18321386 0.9114591 0.3683408 
-0.30194458 0.9441074 -0.13225274 
0.50042117 0.7699546 -0.39591512 
-0.08677731 0.99622756 -0.000693761 
0.09972153 0.8093885 -0.57874525 
0.0032800143 0.9738382 -0.22721915 
0.3650437 0.815864 -0.4484519 
-0.028141469 0.9868908 0.15891695 
0.56091213 0.6634669 -0.49516594 
0.69215673 0.2593635 0.67353517 
-0.19314395 0.37934452 0.904872 
0.1638024 0.4985221 0.8512606 
-0.36244026 0.26439697 0.89371777 
-0.5890215 0.31653184 0.7435464 
-0.2607437 0.21362123 0.9414769 
-0.18816428 -0.34016475 0.92134804 
0.10174514 0.36239564 0.92645425 
0.10689333 0.4299422 0.89650637 
0.45076057 0.14670502 0.880507 
0.510856 0.41122237 0.75493205 
-0.13919641 0.9806292 0.13780732 
-0.4297952 0.7080948 0.5602482 
0.080061056 0.01058321 0.99673384 
-0.1423843 0.5397878 0.82967216 
-0.6868764 0.70062554 0.1931961 
0.25620884 0.9191121 0.2993157 
0.15591621 0.82431036 -0.544245 
-0.13602223 0.81830823 0.55845284 
0.11707638 0.5610798 0.8194405 
-0.509556 0.71456116 0.47932765 
-0.74406165 0.29260042 0.6006307 
-0.89882946 0.43388787 0.062023584 
-0.85301036 0.3591749 -0.3786382 
-0.74089086 0.501734 -0.4464792 
-0.59664595 0.44951436 -0.6647936 
-0.24830654 0.3430121 -0.9059175 
-0.6293246 0.6968754 -0.3439698 
-0.14251229 0.8139665 -0.56315964 
0.7254401 0.6479692 0.23210482 
0.08117718 0.3432146 0.9357425 
0.17210737 -0.19862765 0.9648451 
0.13660559 -0.047466125 0.98948777 
-0.6743141 0.4799751 0.5611813 
0.29843462 -0.21303968 0.93034995 
0.7729875 0.3267403 0.54381174 
0.5116378 0.6395856 0.5737222 
0.5974825 0.3669074 0.7130173 
0.39479384 0.18708934 0.8995196 
0.09546887 0.41498742 0.9048046 
0.0062124655 0.71470886 0.6993945 
0.031582676 0.84350204 0.53619677 
-0.24891326 0.9531749 0.17175514 
0.14148523 0.44929388 0.88210946 
-0.15184894 0.47867614 0.86476076 
-0.6721393 0.73987603 -0.028502608 
-0.35954154 0.8193425 0.44655105 
-0.15062995 0.44634026 0.8820947 
-0.36953378 0.92914265 -0.011780455 
-0.024449037 0.9994767 0.02117941 
0.27750054 0.857456 -0.43331593 
0.66652733 0.54744536 0.5060089 
0.03372269 0.3251347 0.94506633 
-0.29284316 0.3285224 0.89795095 
0.1546421 -0.39209923 0.90683186 
-0.29764095 0.055868763 0.95304173 
-0.2848293 -0.36601636 0.88594824 
-0.24323606 0.12963739 0.96126497 
0.4881991 0.13542722 0.86216074 
0.41903907 0.17433111 0.89107525 
0.26079026 0.00014695477 0.9653955 
0.19725955 0.15520138 0.96798825 
-0.08258656 0.5698704 0.817574 
-0.93871015 0.33159438 0.094172284 
-0.5430751 0.83683556 0.069106296 
-0.936483 0.33338168 0.10888669 
-0.9335344 -0.18740383 -0.30560356 
-0.7112909 0.5271191 -0.46498477 
-0.3083415 0.8034151 -0.50936216 
0.33916005 0.93413997 0.11114404 
0.3221383 0.9314586 0.16914977 
0.62596536 0.5501551 0.55271757 
0.27347824 0.5570326 0.7841712 
0.024663188 0.90775967 0.41876504 
0.2291171 0.9596352 0.16311297 
0.7007805 0.69847476 0.14505084 
0.6256993 0.7458053 0.22863694 
0.70184517 0.6240794 0.3434215 
-0.3781687 0.15286295 0.9130287 
0.28362134 0.7092484 0.645388 
0.32178786 0.92148715 0.21751805 
0.26206294 0.95350295 0.14884621 
-0.08616653 0.996243 0.008682535 
-0.29622352 0.392752 0.87063056 
-0.55560535 0.6633052 0.50132716 
0.05336439 0.88802934 -0.45667973 
0.66508484 0.6915698 0.2817684 
0.20938572 0.64679104 0.7333615 
0.052585375 0.2945678 0.95418274 
-0.120198995 0.4181306 0.90039945 
0.07400571 0.5438754 0.8358963 
0.110467836 0.82486737 0.5544282 
0.05671215 0.97789925 -0.20123811 
-0.1637716 0.7955181 -0.58337796 
-0.26231077 0.95632637 -0.12896897 
0.11795891 0.8693784 0.47986147 
0.4713568 0.7482159 0.46690023 
0.28525686 0.79506755 0.5352534 
-0.45858824 0.88444877 0.086298175 
0.041883793 0.82893336 0.55777717 
0.09640539 0.9950935 -0.022245314 
0.5081718 0.66791433 -0.54373884 
0.67465234 0.475497 -0.56457675 
0.94832504 0.2989319 0.10639286 
0.63174814 0.5767711 0.5179087 
0.29827806 0.26263705 0.9176339 
0.5674459 0.41075274 0.7136438 
0.06522023 0.16692375 0.9838104 
0.008770168 -0.029237062 0.99953413 
-0.4063335 -0.20469165 0.89050233 
-0.48173138 -0.45266125 0.75035506 
-0.77897656 0.3657607 0.5093278 
-0.94047195 0.32555315 0.097610034 
-0.41166446 0.7826919 0.46682537 
-0.52448964 0.60005367 0.60402507 
-0.1797449 0.9832935 -0.028736848 
0.7205471 0.5248491 0.45315042 
0.9062302 0.4174068 -0.067219205 
0.747155 0.28350928 0.6011505 
0.8188768 0.24851179 0.5173807 
0.70306337 -0.21825054 0.6768077 
-0.2621636 -0.33536017 0.9048779 
0.7776307 0.4294079 0.45923787 
0.011454037 0.992652 -0.12046145 
-0.25378025 0.66221243 0.70503217 
-0.56955653 0.24545436 0.7844473 
-0.5627528 0.69229245 0.45170844 
-0.81217676 0.06252472 0.5800514 
-0.5169371 0.019074686 0.85581094 
-0.41512725 0.770183 0.48423934 
-0.7324359 0.6562926 -0.18115693 
-0.146275 0.7095255 0.689331 
0.5573724 0.64908373 0.51771265 
0.8643622 0.30877045 0.3969116 
0.3905656 0.17446117 0.9038926 
0.050902102 -0.14036597 0.9887904 
-0.16825604 -0.14231491 0.97541606 
-0.6314295 -0.4190506 0.65245193 
0.30815205 0.33187965 0.8915706 
-0.24143393 0.947493 0.2096821 
-0.0019897497 0.9096699 0.41532737 
-0.45831448 0.809905 -0.36606237 
0.45088845 0.8810208 -0.14318542 
-0.21207638 0.668265 0.71305376 
-0.7241194 0.6251342 0.29130447 
-0.23009086 0.6916197 0.6846316 
-0.4287677 0.53743744 0.72616756 
-0.5515617 0.8244505 0.12673274 
0.058182534 0.64662415 0.7605867 
0.32563198 0.32751748 0.8869589 
-0.55827826 -0.0028303184 0.829649 
-0.36202753 0.77870125 0.51240647 
-0.030357031 -0.25651434 0.9660636 
0.06330583 -0.16905057 0.9835723 
0.47425848 -0.3184144 0.82078695 
0.20648573 -0.06510881 0.976281 
-0.3879361 0.30352932 0.8702733 
0.10095128 0.088645265 0.9909344 
0.5365117 0.5589166 0.6322717 
0.38293853 0.52272964 0.76165074 
0.32064724 0.30352435 0.8972505 
-0.024278227 0.672585 0.7396216 
-0.49960232 0.0681227 0.8635722 
0.13707462 0.36248934 0.9218526 
0.46221638 0.6620885 0.58991086 
-0.32826236 0.35195184 0.87656933 
0.09480612 -0.032936063 0.9949508 
-0.6363551 0.30824423 0.7071334 
-0.61885685 0.2698887 0.73768306 
0.27640247 0.024160368 0.9607383 
0.10435196 0.3733436 0.92180544 
0.2276917 0.12600376 0.96554625 
-0.026212825 0.9982099 0.05375931 
0.5685885 0.7359368 -0.3675651 
0.33207315 0.8562193 0.3957473 
0.004199974 0.37592596 0.92664015 
0.19132292 0.9779241 0.08402422 
-0.19332412 0.71866614 0.6679408 
-0.39075992 -0.24517936 0.88723946 
-0.59155744 -0.13564967 0.7947699 
-0.06646046 -0.030858694 0.99731183 
0.368485 -0.5169408 0.7726519 
-0.0330614 0.19161344 0.9809136 
0.2632035 0.21857652 0.9396533 
0.17809395 -0.06869144 0.98161304 
0.6298171 -0.3599845 0.6882889 
0.95813245 -0.2857403 0.018297555 
0.3991229 -0.09079105 0.9123913 
0.20174381 -0.07602679 0.9764832 
0.09250109 -0.03017841 0.99525523 
0.1975733 0.28875625 0.9367949 
0.16742998 0.4194141 0.8922214 
0.22300829 0.325917 0.9187194 
0.0060005453 0.6135359 0.7896442 
0.046940573 -0.019056479 0.998716 
0.28704885 -0.47098845 0.83413 
0.24179386 0.1425123 0.9598052 
0.06348151 0.47637755 0.8769463 
0.20762552 0.5532861 0.8067008 
-0.014306724 0.21378207 0.9767766 
0.01066149 0.07585135 0.9970622 
0.2631327 0.8088616 0.52583677 
0.36953777 0.10608747 0.92314 
0.12077196 0.20582329 0.9711081 
0.38543087 0.71172297 0.5872764 
-0.04547503 0.26021287 0.96447986 
-0.3351089 0.18627746 0.92358154 
0.063595146 0.14729397 0.9870462 
-0.40964758 -0.046497375 0.91105807 
-0.5432284 -0.6525362 0.52829856 
-0.9285293 -0.30820838 0.20698078 
-0.52609366 -0.8249112 -0.20675364 
-0.8160256 -0.287396 -0.5015035 
-0.82406884 0.47212356 -0.3130656 
-0.45225844 0.8884077 -0.07870282 
-0.4836125 0.85907984 0.16763309 
-0.53356606 0.5252198 -0.6629114 
-0.8146176 0.044700887 -0.57827336 
-0.09867632 0.2729467 -0.95695513 
-0.01396574 0.93905425 -0.34348512 
0.1552837 0.97767216 0.14157729 
0.17232224 0.97393453 -0.14750127 
-0.23736753 0.96295756 -0.12794292 
-0.0975071 0.8018117 -0.5895679 
0.062348567 0.8388002 -0.54085755 
0.7066129 0.6660751 -0.23883514 
0.38257247 0.54328036 0.7473184 
0.9040133 0.13608971 0.40526506 
0.8229804 0.32964456 0.4626421 
0.23255259 0.7652458 0.6002651 
0.17521833 0.80281925 0.5698946 
-0.30238894 0.75733685 0.5787935 
-0.70975083 0.59907657 0.3706226 
-0.7907877 0.6078204 -0.07217549 
-0.5863452 0.71186525 -0.3865841 
0.47014195 0.8823105 -0.02224277 
0.4370763 0.89912105 0.023362817 
0.5122089 0.5817708 0.63181084 
0.746786 0.3772963 0.54768443 
0.509708 0.7455993 0.42927784 
-0.022836545 0.19291954 0.9809488 
0.45657647 0.6543618 0.60278416 
0.63519335 0.28198668 0.7190362 
0.20107594 0.4291372 0.8805736 
-0.42139015 0.41629973 0.80568284 
0.33416063 0.6807421 0.6518642 
0.076687396 0.5967805 0.7987315 
-0.18962392 0.47761518 0.8578616 
0.22486633 0.9528442 0.20377229 
-0.4005497 0.32033002 0.8584571 
-0.22033237 0.8956461 0.386357 
-0.009822249 0.9468935 0.32139745 
-0.07368335 0.9866959 0.14492103 
0.04931263 0.98886156 0.14043236 
0.4764773 0.87788826 0.047766786 
0.6254283 0.667318 -0.40438375 
0.35164818 0.91344047 0.2048663 
-0.21897304 -0.03279528 0.9751797 
-0.3559554 0.08277074 0.93083024 
-0.33992365 0.1511063 0.9282343 
-0.22927295 -0.5937805 0.7712709 
-0.59007937 -0.24107595 0.770512 
0.55480343 0.13563822 0.8208504 
0.009555899 -0.19940478 0.9798706 
0.10659658 0.29965994 0.9480723 
0.6018472 0.5518249 0.5772949 
0.774107 0.20964691 0.597333 
-0.20109843 0.026941348 0.9792005 
-0.20175423 0.42143342 0.88413185 
-0.28854844 0.5409516 0.7900071 
-0.42735055 0.79885364 0.4233254 
-0.6271871 0.73839575 -0.24780677 
0.20396267 0.88661313 0.4151101 
0.17555797 0.7276273 0.6631274 
-0.094253644 0.75766027 0.6458075 
-0.15767968 0.5793666 0.7996697 
-0.7212044 0.054879427 0.6905451 
-0.9770882 0.211696 0.021992274 
-0.88917935 0.3487037 0.2962531 
-0.8045192 0.5586886 0.20153408 
-0.7159808 0.5893027 -0.3742912 
-0.6260003 0.6930571 0.35748488 
-0.6475598 0.45283505 -0.61286765 
-0.4871716 0.8218976 -0.2952088 
-0.63037676 0.72804636 -0.26939505 
-0.65099174 0.7493983 -0.12088017 
0.44757646 0.8402687 -0.3059803 
0.4918681 0.7884408 0.36936015 
-0.2271867 0.43654692 0.87052464 
0.018342663 0.25143358 0.9677008 
-0.28012526 -0.2712491 0.920844 
0.9913014 0.06333759 -0.11536877 
0.15435468 0.24798736 0.9563874 
0.41372898 0.23271257 0.8801553 
0.3878284 0.50259835 0.7726475 
-0.24013418 -0.0943823 0.96614057 
0.35929772 0.09704823 0.9281632 
0.058778998 0.062874205 0.9962891 
-0.4687246 -0.28497076 0.8361155 
0.26637316 0.3518261 0.897365 
-0.37785968 0.47748244 0.79324186 
-0.51513624 0.6193141 0.5925241 
-0.5009802 0.41440132 0.7597963 
0.19727553 0.97521967 0.10014494 
0.08374631 0.9926781 0.087044485 
-0.3802768 0.5066448 0.77375746 
-0.20737064 0.5676912 0.7966958 
0.27145687 0.12139246 0.95476437 
0.3068824 0.548264 0.7779652 
-0.19230576 0.08624463 0.977538 
-0.18450738 -0.6752266 0.71416104 
-0.24658059 0.06200194 0.9671369 
-0.020344505 0.047150813 0.99868065 
0.02383475 0.23607947 0.9714414 
0.2972738 0.23976636 0.92419714 
0.0057268166 -0.3425383 0.93948644 
-0.10450794 -0.67893344 0.7267239 
0.24867445 0.5025625 0.82800484 
-0.575478 0.1741806 0.7990534 
-0.67455375 0.5863908 0.4484676 
-0.72513056 0.6827051 0.08999749 
-0.71425337 0.5950589 -0.3684388 
-0.9112839 0.40954512 0.042830314 
-0.91517824 0.29297704 -0.27679095 
-0.25634 0.9427885 -0.21316598 
0.71913195 0.68610597 0.11003614 
0.7398042 0.6719632 0.033989377 
0.07876454 0.869641 0.48736084 
-0.31769133 0.91161543 0.26082477 
0.18262275 0.8589251 0.47843143 
0.35108852 0.824988 0.44286743 
0.14425182 0.9781032 0.15001902 
0.8202059 0.55200285 0.15018395 
-0.026889479 0.4134362 0.910136 
-0.32406303 0.57559055 0.7507854 
-0.068822846 0.8206489 0.5672732 
-0.45637473 0.2183179 0.86258876 
-0.28410986 0.95526 0.082218744 
0.61294496 -0.05649522 0.78810334 
0.6428328 0.022639683 0.76567197 
-0.37686637 0.92524606 -0.043491483 
-0.43018195 0.61309046 -0.6626188 
-0.0459687 0.9936495 -0.10270126 
0.17981756 0.9589286 0.2193665 
0.62320757 0.100859076 0.7755256 
-0.544122 0.33656442 0.7685413 
-0.7773318 0.29251492 0.5569473 
-0.8809923 0.39663035 0.25794792 
-0.42874247 0.67565644 -0.59972346 
-0.105441205 0.9577983 -0.26740354 
0.8092504 0.54353017 0.22290958 
0.045621693 0.9984198 -0.03281175 
0.31381455 0.7545091 0.57639956 
-0.12801914 0.98203367 0.13864005 
-0.062493578 0.9564271 0.28520492 
0.8762857 0.42602724 -0.22499816 
0.34655535 0.914093 0.210555 
-0.18345034 0.78183 0.5958925 
0.66361266 0.19443734 0.72236586 
0.415358 0.46507776 0.7817803 
0.35608596 -0.032013036 0.9339047 
-0.3379079 -0.033312533 0.9405895 
-0.27614674 0.06945218 0.9586029 
0.27883035 -0.046843115 0.9591973 
0.1896596 -0.17599776 0.9659473 
0.74607056 0.33794534 0.5737349 
0.20586914 -0.11815328 0.9714205 
0.3916344 0.33935657 0.8552542 
0.14687666 0.099364765 0.9841514 
-0.09103551 0.78005576 0.61905223 
-0.18856579 0.79886824 0.5711852 
-0.39160496 0.42527965 0.8159552 
0.043150276 0.36950663 0.9282257 
0.78585315 0.2633306 0.55954605 
0.55884963 -0.19147107 0.8068618 
0.48552558 0.3169592 0.8147403 
0.6284785 0.103222154 0.7709475 
0.58740956 0.67826474 0.44148278 
0.14101498 0.88811445 -0.4374557 
-0.12050325 0.90612376 -0.4054859 
-0.5180866 0.4535816 0.72515523 
-0.6938048 0.49055883 0.5272448 
-0.532024 0.41164845 0.73992974 
-0.93627775 -0.3175722 0.15010674 
-0.33511326 0.1807491 0.9246777 
-0.41267395 0.45694348 0.7879739 
-0.22284397 0.38424802 0.89593196 
0.1283488 -0.2627543 0.9562881 
-0.2636294 -0.68011475 0.684064 
0.62630266 -0.3344637 0.70418686 
0.613471 0.3997685 0.681057 
0.35674602 0.052464478 0.9327271 
0.26903483 0.2985442 0.91569185 
-0.42938283 -0.16140635 0.8885823 
-0.38138977 0.07105501 0.9216795 
-0.46177602 0.84408754 0.2725422 