# OOMMF: rectangular mesh v1.0
# Segment count: 1
# Begin: Segment
# Begin: Header
# Desc: Time (s) :  1.8699999999999973e-07
# Title: m
# meshtype: rectangular
# meshunit: m
# xbase: 2e-09
# ybase: 2e-09
# zbase: 5e-10
# xstepsize: 4e-09
# ystepsize: 4e-09
# zstepsize: 1e-09
# xmin: 0
# ymin: 0
# zmin: 0
# xmax: 1.024e-06
# ymax: 1.024e-06
# zmax: 1e-09
# xnodes: 256
# ynodes: 256
# znodes: 1
# ValueRangeMinMag: 1e-08
# ValueRangeMaxMag: 1
# valueunit: 
# valuemultiplier: 1
# End: Header
# Begin: Data Text
0.28029776 0.93387634 -0.22205466 
0.5257629 0.84402823 0.105782315 
0.95188564 -0.022475524 0.30562836 
0.17771773 0.1374775 0.97443134 
0.46831527 0.8212472 0.32593524 
-0.00023490434 0.7250775 0.6886673 
-0.22075512 0.52638525 0.8210882 
0.14739197 0.91710716 -0.37039176 
0.18306896 0.9510267 0.24906617 
0.33162022 0.9419894 -0.05180849 
0.9775806 0.1771064 0.11388438 
0.84051067 0.47995377 -0.2513688 
0.441671 0.88798475 0.12810084 
0.10932889 0.9938274 -0.018827954 
-0.5194676 0.8495444 -0.091803856 
0.6126721 0.7891017 -0.044176556 
0.06675446 0.8673818 0.49314573 
0.001831216 0.60700047 0.79469943 
0.17110328 0.8439344 0.5084274 
0.4255572 0.08056356 0.9013383 
-0.47148257 0.8674962 0.1586018 
0.3256332 0.716544 0.61686933 
-0.11472596 0.6663693 0.7367428 
0.15230323 0.5036749 0.8503618 
-0.15210839 0.734011 -0.6618843 
0.112853944 0.8738796 -0.4728619 
-0.20957339 0.9448028 -0.25184673 
-0.0277369 0.9979824 -0.05711354 
0.12581336 0.98501825 0.117941335 
0.28865543 0.86360145 -0.413365 
0.15586568 0.36905256 -0.91624564 
0.413231 0.6132639 -0.67316246 
0.2757596 0.80350846 -0.5275707 
0.40134498 0.900539 0.16718793 
-0.15127653 0.858333 -0.49028546 
0.17595619 0.98439693 0.0014411006 
0.16589454 0.882658 -0.4397659 
0.6776479 0.32754886 0.658411 
0.14295538 0.5290644 0.8364536 
0.09437018 0.9834652 -0.15456596 
-0.006038166 0.99225605 0.1240625 
-0.2699397 0.9580323 0.096471734 
0.44499326 0.48051578 0.7557021 
0.745465 0.633899 0.20604417 
0.012456237 0.9172037 0.3982238 
-0.24333104 0.8417695 0.48188597 
0.4288483 0.86078066 0.2741277 
0.01810224 0.70295167 0.7110073 
-0.338088 0.72878975 0.5954511 
0.12820993 0.83319926 0.5379045 
0.34397295 0.5096545 0.7886285 
0.70181155 0.3108095 0.6409821 
0.2475062 0.5886693 0.76955134 
0.23253423 0.84744877 0.47724053 
0.053025234 0.80431056 0.59183854 
-0.5686559 0.3792583 0.72992724 
-0.16188046 0.4847865 0.8595212 
0.010858544 0.0777704 0.9969122 
0.38910216 0.45920184 0.79858214 
0.21507192 0.10502316 0.9709347 
0.095804855 0.25420016 0.9623948 
-0.17474963 0.6019641 0.7791675 
-0.51932234 0.70895916 0.4771596 
-0.28265277 0.07494515 0.95629007 
-0.16395628 -0.093602516 0.98201674 
-0.9214011 -0.382864 0.06659691 
-0.73849005 -0.6691842 0.082613386 
-0.5606615 -0.73773676 0.37603617 
-0.8993267 -0.39113516 0.19551167 
-0.702882 -0.57375425 0.42043182 
-0.009406801 -0.98925805 0.14587687 
0.17221682 -0.68383247 0.7090237 
0.6229086 -0.33227095 0.7082239 
0.84264064 -0.29794198 0.44853932 
0.871322 -0.22906524 0.43396702 
-0.25319266 0.16255179 0.9536617 
-0.32127666 0.77601594 0.54275274 
-0.09756979 0.4276315 0.8986721 
0.08723924 -0.4826455 0.87146 
0.312167 0.26600456 0.91202706 
0.1742497 0.42894852 0.8863635 
0.6818611 0.3657148 0.6334969 
0.17092739 0.8230326 0.54166526 
0.85310185 0.2900282 0.43370602 
0.5725477 0.8118754 0.11422574 
0.7545597 0.546336 -0.36353377 
0.48068064 0.842307 -0.24385451 
0.52593243 0.85003203 -0.028994743 
0.042262044 0.99868095 0.02916119 
-0.19837748 0.8670903 0.45694736 
-0.7404168 0.24013987 0.62778646 
-0.29994753 0.83919233 -0.4536383 
-0.75799304 0.65160537 -0.029277299 
-0.6669912 0.010332505 -0.74499404 
-0.49752334 0.481431 -0.7215918 
0.063954584 0.8038917 -0.5913272 
-0.27097544 0.95537305 0.11762075 
0.0006232115 0.27959412 -0.9601182 
0.19336331 0.08537223 -0.97740585 
-0.12286895 0.96093965 -0.24798872 
0.07318352 0.9954299 -0.061349053 
0.38923478 0.63061386 -0.67143327 
0.16206716 0.98631626 -0.03024258 
0.18432203 0.88411087 0.42938733 
0.17465745 0.7643293 0.6207218 
-0.3030773 0.49671435 0.8132767 
-0.5303018 0.8229926 0.20362511 
-0.5480442 0.8217475 0.15613687 
-0.4168914 0.8832413 0.21467765 
-0.10076768 0.57413536 0.8125358 
0.64167005 0.33756933 0.6886992 
-0.2079903 0.51749074 0.83002615 
-0.591527 0.7974468 0.11905652 
-0.2737929 0.8033892 -0.5287754 
0.649137 0.7169933 0.2540509 
0.57611597 -0.22532035 0.7856978 
-0.31508586 0.0038458249 0.94905543 
0.8440684 0.07212119 0.5313634 
0.3829577 0.5058137 0.77297854 
-0.28411415 0.66207147 0.6934988 
-0.9235597 -0.11042731 -0.36721 
-0.81227577 0.2654128 -0.5193884 
0.7417742 0.591734 -0.3156296 
-0.08795327 0.97992367 0.17892456 
-0.17150941 0.8529769 0.49296546 
-0.256088 0.9520743 -0.16725262 
-0.3499005 0.9364259 0.026002424 
-0.1766771 0.81533587 -0.55137354 
0.25824738 0.85751593 -0.44494343 
0.58122534 0.7853615 -0.21303636 
0.3807661 0.86899084 0.31602567 
0.7391441 0.67037886 0.06525496 
0.15142074 0.71204513 0.6856118 
0.17934951 0.14837629 0.97253186 
0.9071801 0.2511175 0.33758602 
0.86163056 -0.40999213 0.2991643 
0.6134286 -0.6728451 0.4135031 
-0.11512447 0.9931621 -0.019379403 
0.3161292 0.8808143 0.35246074 
0.12511824 0.7834847 0.6086848 
0.11237226 0.4429031 0.8894996 
-0.46834922 0.20057642 0.8604756 
-0.57297903 0.61774665 0.5385947 
0.45905748 0.42372456 0.78084815 
0.23505381 0.14859402 0.9605569 
0.089240074 -0.8129215 0.5754953 
-0.2505606 -0.84174585 0.47820845 
-0.37270656 -0.4675457 0.80155534 
-0.0085628815 0.27482432 0.96145636 
-0.17241338 0.30147868 0.937755 
-0.65118724 0.6780923 0.34080204 
-0.5789537 0.5147551 0.63232905 
-0.40137556 0.2637458 0.877118 
-0.77242756 0.6179029 0.14680514 
-0.8838312 0.32831267 -0.33324662 
-0.7197805 -0.38504675 -0.5776289 
-0.7526028 -0.018833665 -0.65820533 
-0.6430501 0.63511074 -0.42792648 
-0.63570297 0.46809042 -0.6138186 
-0.2154167 -0.24702467 -0.94476163 
-0.3893259 -0.07389474 -0.91813123 
-0.2020828 0.3986657 -0.8945548 
0.9552603 0.21704711 -0.20091924 
0.58361816 0.3357328 -0.7393737 
0.16135684 0.5370754 -0.8279578 
0.7313339 0.67406607 0.10385389 
0.7234353 0.420518 0.5475455 
0.23468815 0.74500746 -0.62440807 
0.66870797 0.7435245 0.0010493802 
0.9889691 0.12230967 -0.08354963 
0.6364456 0.7702053 0.04148224 
0.35061628 0.92115885 0.16892171 
-0.032004658 0.632588 0.7738269 
0.03830189 0.89315724 0.44811076 
0.013675528 0.98178715 -0.18949173 
-0.2520599 0.8414868 -0.4778763 
-0.19110237 0.972442 -0.13355386 
-0.8012943 0.42330772 0.42277434 
-0.92987925 0.08420445 0.35809815 
-0.022908345 -0.2714236 0.96218735 
0.30420777 0.054282967 0.95105785 
-0.06697005 -0.07257144 0.99511224 
-0.486752 0.7973494 0.3568004 
-0.7431379 0.63955843 -0.19675155 
-0.9384966 -0.089420296 -0.3335089 
-0.48610163 -0.23777412 -0.84093326 
0.089002565 0.040759206 -0.9951971 
-0.3026181 0.29310617 -0.906924 
0.39975977 0.91340196 -0.07673917 
0.30310246 0.71130574 0.63417125 
0.031061182 0.5164609 0.8557473 
-0.8786986 0.28044137 0.38631806 
-0.29278383 0.853068 0.43191734 
-0.07099953 0.994459 0.07752765 
0.46108398 0.47661626 0.74849087 
-0.08832354 0.92425853 0.3714099 
0.20196627 0.89712644 0.3929044 
0.68899405 0.72231734 -0.059538882 
0.37750033 0.7570308 0.53328985 
0.13374609 0.43597987 0.8899628 
0.4918705 0.25813863 0.83152145 
-0.20419236 0.85919386 0.4691391 
-0.8961272 0.4211138 -0.1400687 
-0.8006578 0.16209702 -0.57677704 
-0.49999937 0.8047266 0.3200247 
-0.9240192 0.3692841 0.09908521 
-0.4086204 0.55700505 -0.7230317 
-0.19631049 0.4540821 -0.8690638 
0.019781057 0.7796734 -0.62587386 
-0.086870395 0.82825357 0.55357885 
-0.7839562 0.3506516 0.5123048 
-0.27163306 0.9608825 -0.054040797 
-0.1637254 0.9782455 -0.12739664 
-0.327248 0.94034356 0.093074195 
0.62019026 0.48722908 0.61479414 
0.4260403 0.038951628 0.90386534 
-0.5188729 0.44282106 0.7312185 
-0.713045 0.694866 0.09342444 
-0.5197036 0.6871753 -0.50764 
-0.49074525 0.47715732 -0.7290337 
-0.28206554 0.9184874 -0.27716422 
-0.2277181 0.9366612 0.26610187 
-0.05342661 0.9796408 -0.19351909 
0.34852064 0.8253144 -0.44428548 
-0.10159511 0.7113775 -0.69542825 
0.29223296 0.76097304 -0.579241 
-0.25150293 0.945471 -0.2069563 
-0.715362 0.6190078 0.32417047 
-0.308892 -0.46426395 0.83008724 
0.3153712 0.5255824 0.79012936 
-0.30034482 0.2812367 0.9114269 
0.75552934 0.26600122 0.598681 
0.33632597 0.14114848 0.931108 
0.83536696 0.15632223 0.5269966 
0.6414489 0.052719314 0.76535225 
0.086958535 0.5377228 0.8386253 
0.2718422 -0.19691312 0.9419804 
-0.14816147 0.7130122 0.68531877 
-0.31089064 0.4442734 0.84021914 
-0.41067684 0.2158263 0.88586885 
0.27734837 -0.033902045 0.96017116 
-0.2464273 -0.13766915 0.95933354 
-0.8639943 -0.14368528 0.48256442 
-0.49360806 -0.6345368 0.5947388 
-0.24131669 -0.8900351 0.38678655 
-0.5726401 -0.60330546 0.5550729 
-0.028850572 -0.47470343 0.8796728 
-0.2038772 -0.5738283 0.79319316 
0.42887387 0.69175684 0.5809817 
0.4008741 0.84726787 0.34847835 
0.87911934 0.44454426 0.17184208 
0.8852071 0.4651905 -0.0024740263 
0.7407719 0.31371006 0.59400594 
0.29875964 0.71533495 0.63169503 
0.06877872 0.2612591 0.9628152 
0.1024162 0.30509725 0.94679815 
0.9230913 0.30550823 -0.23359674 
0.5655191 0.5387799 -0.62442327 
0.9707521 0.019307256 0.23930669 
0.73469836 0.34475148 0.58426434 
0.14863202 0.77175564 0.6183057 
0.22921368 0.8222705 0.52089566 
0.11509797 0.88939106 0.44242054 
0.0955671 0.8403997 0.5334749 
0.06541027 0.89702284 0.43711737 
-0.48118076 0.7695825 0.41977125 
0.35872307 0.79444253 0.49008048 
0.8866636 0.30120924 -0.3508572 
0.3472203 0.7676455 0.5386636 
0.39361015 0.669113 0.6303642 
0.32023296 0.6435023 0.6952378 
-0.100333355 0.95433784 0.28137597 
0.3252263 0.6486323 0.6881163 
-0.02442927 0.9868163 0.15999062 
0.11145602 0.9110357 -0.39697805 
-0.29649594 0.9541092 0.042022113 
-0.5401027 0.8415698 -0.0070361984 
0.055070348 0.9969774 0.054804105 
-0.65224504 0.6309783 0.420051 
-0.5682863 0.19498856 0.7993937 
0.012868247 0.97516453 -0.22110775 
-0.018911768 0.70424014 -0.70970994 
-0.038202956 0.9709002 -0.23641768 
-0.8407213 0.46648604 -0.27491534 
-0.31678602 0.93524206 0.1580158 
0.50526774 0.85739005 -0.09791166 
0.6048505 0.7959112 -0.026102865 
0.19128336 0.961573 -0.19694671 
0.26460534 0.9617591 -0.07073645 
-0.17021003 0.9471559 0.27189028 
-0.8416609 0.4908411 -0.22512652 
0.12197379 0.6806043 0.7224267 
0.19481362 0.9528933 -0.2324692 
0.35530576 0.6742402 0.64742416 
0.4639111 -0.057119984 0.8840384 
0.96491724 0.18887797 0.18237258 
0.4703415 0.8765642 -0.1020499 
0.20320038 0.77221346 0.6019934 
0.71997833 0.29477665 0.62828183 
0.6398295 0.61895263 0.45553914 
-0.42689368 0.8718339 0.24014078 
0.3574133 0.933854 0.013134625 
0.5006498 0.23812628 0.8322534 
0.52584195 0.7111521 0.4666401 
0.35819975 0.23082946 0.9046606 
0.17894834 -0.062862396 0.9818482 
0.08728345 -0.4913221 0.8665935 
-0.07488034 0.25858247 0.9630826 
0.30794448 0.7412079 0.5964739 
0.025505733 0.7129002 0.70080155 
-0.44103608 0.85611314 0.26936522 
-0.11391834 0.89820254 0.42456442 
0.19879727 0.91433215 0.35281238 
0.30274856 0.687488 0.66007847 
0.6498867 0.28034982 0.7064356 
0.2658178 0.06474758 0.9618466 
-0.9066961 -0.027439058 0.42089105 
-0.57372683 -0.010086151 0.8189847 
-0.2754289 0.009176241 0.96127766 
-0.25322744 0.023003392 0.9671333 
-0.96501434 0.15466487 0.2117218 
-0.5774261 -0.59895635 0.55482477 
-0.6529246 -0.7493385 0.11036921 
-0.5778653 -0.7937519 0.18981482 
-0.9466125 0.23056337 -0.22531168 
-0.95347595 -0.25233048 -0.16496386 
-0.6456167 -0.7567431 0.10256199 
-0.061237756 -0.88781196 0.45611385 
0.672528 -0.28658536 -0.6823305 
0.87669915 -0.33826512 -0.34201658 
0.9642496 -0.016962165 -0.26445207 
0.48327926 -0.15110388 0.86232764 
0.13721052 0.17895064 0.97424334 
0.6418509 0.13434699 0.75496924 
0.12844023 0.32106075 0.93830866 
0.11872875 0.48701206 0.86528766 
-0.052580833 0.067606844 0.99632555 
-0.1327861 0.09651835 0.9864341 
0.24759412 0.7965546 0.5515414 
0.110128626 0.98725677 -0.11487316 
-0.44957456 0.84309644 0.29507846 
0.33942744 0.8874756 0.31173095 
-0.3145908 0.89642924 0.3121656 
-0.38090655 0.9172561 -0.11641069 
-0.43032864 0.89511925 -0.11652866 
0.11855643 0.9357991 0.33200067 
0.010345958 0.99002695 0.14049819 
-0.18111068 0.98340917 0.010269681 
-0.34339184 0.86104316 -0.37508246 
-0.2288123 0.05576698 -0.9718719 
-0.6047273 0.55639815 -0.5698473 
-0.78103185 0.5219092 -0.34292874 
-0.23674068 0.7077412 -0.66562474 
-0.60547554 0.5797218 -0.54527247 
0.17814913 0.7593583 -0.62580997 
-0.050937086 0.9038879 -0.42472577 
0.09917409 0.85100555 0.51570725 
-0.061755374 0.944364 0.32305256 
0.6676626 0.42756438 0.60943854 
0.21382533 0.7426053 0.634678 
-0.09207643 0.49261582 0.86536217 
-0.32192904 0.9107959 0.25848126 
-0.4277268 0.83242214 0.35231122 
-0.4484112 0.8795005 0.15939377 
-0.9478401 0.21150129 0.23846655 
0.096439466 0.72026855 0.68695897 
0.88147676 0.35645708 0.30973727 
0.6269854 0.21964572 0.7474257 
-0.5025999 0.81989974 0.27414942 
-0.33042935 0.84721434 0.41598588 
0.4139058 0.90734124 -0.07357938 
0.747776 0.36049804 0.5575592 
0.5671817 0.1693427 0.80599505 
0.40201202 0.6019689 0.68994194 
-0.035584304 0.7283312 0.6843008 
-0.55540806 0.6170196 0.55750227 
-0.52912885 0.49524042 0.6890281 
-0.13053392 0.94122756 -0.31153116 
0.74601734 0.59299856 -0.3030032 
0.06139715 0.9857953 0.15632704 
0.51574385 0.8020023 -0.3013313 
0.88419694 0.46332276 0.059394583 
0.89834505 0.4390088 0.015732368 
0.5798077 0.8055049 -0.122413546 
0.23063031 0.9442524 -0.23494107 
0.7290163 0.6525444 0.2066908 
0.93303907 0.28544325 0.21899872 
0.7853568 0.3603248 0.50336957 
0.52456224 0.7111472 0.46808568 
0.8609217 0.32796258 0.38891432 
0.9718565 -0.05575449 0.2288811 
0.6586181 -0.35468614 0.66364145 
0.6653378 0.35026157 0.6592742 
0.4896891 0.34568006 0.80044365 
0.12363187 0.9349006 0.3326803 
0.080271706 0.69775003 0.71182954 
0.25920266 0.52912796 0.80798376 
0.45966882 0.76933396 0.443655 
0.36294496 0.51507974 0.77650756 
0.099968866 0.5298611 0.8421719 
-0.14232764 0.37258226 0.9170198 
0.9275569 -0.20180477 0.31450438 
0.48721135 -0.37250674 0.7898505 
0.38598022 -0.136826 0.9123036 
0.5981447 -0.357637 0.7171602 
-0.06177096 -0.35568723 0.9325616 
-0.44298637 0.635557 0.6323215 
-0.66275793 0.6848879 -0.30278808 
-0.40523782 0.3897403 0.82697326 
-0.8812899 0.1421427 0.4506923 
-0.9747347 0.15431419 0.16149113 
-0.7532633 0.56495994 -0.33677086 
-0.61872536 -0.20284872 -0.75896734 
-0.32698 0.7588082 -0.56328887 
-0.2386843 0.5566417 -0.79572594 
-0.049837817 -0.25504208 -0.9656448 
-0.3699969 0.2457608 -0.8959375 
0.5775789 0.61141825 -0.5408977 
0.06170307 0.32715216 -0.942955 
0.3280555 0.66287243 -0.6730377 
-0.013875363 0.7184828 -0.6954064 
0.6028496 0.4041199 -0.6879386 
0.99241716 0.028179478 0.11964159 
0.65558994 0.6762489 -0.33599 
0.60863936 0.6188269 -0.49659997 
0.6929877 0.14145039 -0.706937 
0.8561274 0.45345718 -0.24783573 
0.77201307 0.4523315 0.44653347 
-0.16504388 0.6922783 0.7025036 
-0.36263627 0.7107595 0.602757 
-0.6268748 0.5220487 0.57835394 
0.10131192 0.9285561 0.35709867 
-0.5831757 0.8103198 -0.057342593 
-0.9189998 0.048849106 0.39122006 
-0.96531683 0.25488704 -0.056532994 
-0.5506004 0.07728836 0.83118343 
-0.24808915 -0.1403899 0.9585105 
-0.18482968 -0.3458919 0.9198896 
-0.6801967 -0.22312948 0.6982448 
-0.99142927 0.09705564 0.087454475 
-0.98448944 -0.14721431 -0.09543881 
-0.92992455 0.2004552 -0.3083151 
-0.3063149 -0.20590332 -0.929395 
0.25480193 0.74690264 -0.6141762 
0.5455912 0.76083153 0.35137698 
0.76479036 0.19799021 0.6131032 
0.30753532 0.32383168 0.8947374 
-0.59067774 0.40404946 0.6984582 
-0.31498027 0.4844516 0.81614596 
-0.030897865 0.7644735 0.64391434 
0.004391255 0.39184552 0.9200206 
-0.76631176 0.6043178 0.21809685 
-0.6540977 0.7096522 0.2618206 
-0.32647797 0.9418166 0.07995953 
-0.048739526 0.7398124 0.67104554 
0.6273769 0.3387149 0.70119214 
0.18440077 0.43305525 0.88230354 
0.4583274 0.669052 0.58506876 
0.0036274889 0.8132952 0.5818401 
-0.460284 0.721938 0.5166664 
-0.5545849 0.82330245 0.12086682 
-0.21750413 0.6514009 0.7268899 
-0.04446565 0.95753294 0.28487444 
-0.09528659 0.9927105 0.07380041 
-0.036077954 0.9554782 -0.2928477 
-0.26536202 0.72997606 0.6298556 
-0.56354254 0.62720096 0.5376234 
-0.39984763 0.91575414 0.038939223 
-0.33662874 0.83631563 0.4327323 
-0.12907359 0.8430367 0.52213913 
-0.7589509 0.43443608 0.48503482 
-0.28466696 -0.08158404 0.9551486 
-0.44109115 0.7547671 0.48555657 
-0.5596146 0.73384833 0.3850951 
-0.79717064 0.5278134 -0.29314172 
-0.08842183 0.5505938 -0.83007723 
-0.14375804 0.98926115 -0.026383795 
-0.35314077 0.7822191 0.51324946 
-0.019224657 0.90912676 -0.41607574 
0.009474754 0.9966633 0.08107122 
-0.6933186 0.65097404 0.3090988 
-0.1024025 0.94589114 -0.3079023 
-0.4568002 0.86042976 -0.22581886 
-0.641007 0.39284015 0.6593836 
-0.2283264 0.5119563 0.82811105 
0.6158385 0.056466356 0.7858464 
0.40290153 0.5255694 0.74929786 
0.51096344 0.22799487 0.8288153 
0.33198982 0.47307456 0.816078 
-0.37805265 0.42996767 0.81988055 
0.11866864 0.1412808 0.9828314 
-0.07994255 0.25306502 0.9641407 
-0.27366477 -0.18170016 0.9445065 
0.105294175 -0.31752867 0.94238466 
-0.24698406 0.22090682 0.9435036 
0.2406325 0.120038435 0.96316504 
0.28866914 0.19943495 0.93642724 
-0.075914755 -0.049595434 0.9958801 
-0.27331153 -0.105187744 0.9561571 
-0.6569694 -0.4232627 0.62389094 
-0.3389379 -0.57377696 0.7455878 
-0.26807916 -0.051808096 0.96200293 
0.5188593 -0.56796163 0.638909 
-0.09055399 -0.88446873 0.4577282 
-0.0069987406 -0.5786083 0.81557566 
0.19292086 0.44208932 0.87597865 
0.23848766 0.65549266 0.71655643 
0.6417349 0.1867212 0.7438491 
-0.027735816 -0.5389511 0.84188026 
0.052383665 0.3283743 0.9430941 
-0.10295277 0.3568583 0.9284681 
0.20159075 0.26941788 0.9416874 
-0.07632882 0.9970801 0.0023045833 
0.7772018 0.6291745 -0.009854265 
0.4568085 0.06741208 0.8870071 
0.31469747 0.11008918 0.94278634 
0.39799947 0.5464016 0.7369137 
0.4961448 0.75134355 0.43511304 
0.22106522 0.93895066 0.26363212 
-0.2697441 0.5433835 0.7949671 
0.40478325 0.6491673 0.6439972 
-0.3405343 0.7796747 0.5254938 
0.5170569 0.7948019 0.31771412 
0.24077956 0.9660285 0.09388362 
0.12436999 0.8994841 0.41887996 
0.12213569 0.68324757 0.7198997 
0.5945885 0.7066591 0.38353285 
0.48458236 0.21344851 0.84830403 
0.31147203 0.23459925 0.92084116 
0.32844788 0.58674246 0.7401725 
0.4764041 0.4215743 0.77156603 
-0.8230372 0.5677782 -0.0154128 
-0.267962 0.9631666 -0.022509126 
-0.15452643 0.89663625 0.41492778 
-0.41485173 0.65224224 0.6344117 
-0.24954057 0.91085607 0.32874125 
-0.15656978 0.98179877 -0.10750473 
-0.48982605 0.863627 0.11924274 
-0.016843162 0.99890494 0.04364945 
-0.0683934 0.98313427 -0.16961555 
-0.3430619 0.4822148 0.80608773 
-0.52183634 0.40123183 0.7527946 
-0.17184909 0.8950919 0.41143474 
0.3174201 0.9409393 0.117803685 
0.17663077 0.86487323 0.46988922 
-0.3751732 0.83931607 0.39343813 
-0.31836432 0.48281586 0.8158021 
-0.27386004 0.5572382 0.7838918 
-0.37014225 0.3335281 0.8670373 
-0.28381565 0.8507894 0.44227362 
-0.5668249 0.2964182 0.76866496 
-0.23151717 0.08125523 0.9694315 
0.54311794 0.7068573 0.45318395 
0.8231947 0.41731295 0.38496825 
0.74400747 0.28575882 0.60398245 
0.13726303 0.4296525 0.8925007 
-0.065710425 0.9241111 0.37643182 
0.55293065 0.6551806 -0.51478755 
0.58900386 0.4991916 0.6355173 
0.47926766 -0.12177125 0.8691803 
0.33073127 -0.1277732 0.9350352 
-0.09473891 -0.05130626 0.99417925 
0.1482127 -0.16116926 0.97573435 
-0.32771847 0.5392276 0.7757798 
-0.35545027 0.09697032 0.92965144 
-0.5836418 0.41440594 0.6983051 
-0.72634566 0.5991018 0.33689624 
-0.378463 0.9219989 0.081753954 
-0.26831177 0.43599567 0.8590207 
0.38677993 0.058832485 0.92029345 
-0.20754905 -0.4881301 0.8477338 
0.15776005 -0.31965774 0.9343077 
-0.2358749 -0.36078402 0.9023292 
-0.10027842 0.07124049 0.9924057 
-0.3251064 -0.3202371 0.8898057 
-0.45603976 0.047187008 0.88870764 
-0.7912873 -0.20277314 0.5768428 
-0.94827884 -0.20123632 0.24550185 
-0.99122274 0.13155726 0.013051988 
-0.20611827 0.055545803 -0.97694933 
-0.8599507 0.5102859 -0.00965387 
-0.17399338 -0.15015937 -0.97323096 
0.084043875 -0.41040868 -0.9080206 
0.26542488 -0.55137205 -0.7909099 
0.122920424 -0.718519 -0.68455905 
0.78522485 -0.2780744 -0.5532601 
0.74225765 0.28016493 0.60873747 
0.89170843 0.30980113 0.32996884 
0.17518708 -0.4244497 0.8883423 
0.57942927 -0.12179564 0.8058707 
0.34667996 -0.20484793 0.91534173 
-0.78127533 -0.20514576 0.5895119 
0.3477968 -0.44166386 0.8270252 
0.14337201 0.38678962 0.91095465 
0.024983175 0.9008189 0.43347585 
0.48860088 0.7831755 0.38458455 
-0.14493437 0.92363447 0.35481456 
-0.09755567 0.76050365 0.64196354 
-0.5945508 0.8019846 -0.057708066 
-0.81568086 0.5743509 0.069180354 
0.5046824 0.8069887 -0.30670035 
0.31415832 0.778979 0.5426752 
0.121783614 0.33811733 0.93319106 
-0.030883545 0.4300905 0.90225744 
-0.777629 0.6254495 -0.064078376 
-0.8474661 0.40333188 -0.3451444 
-0.7792156 0.6266051 -0.013761104 
-0.73984855 0.65477484 0.15457742 
-0.3359004 0.8580601 -0.3884636 
-0.52472085 0.8327674 -0.17654034 
0.05763954 0.91585326 -0.39735463 
0.4849241 0.7871712 -0.3810644 
0.77833223 0.5997382 0.18577683 
0.104458585 0.89993715 0.42332196 
0.38623115 0.85933816 0.33520657 
0.4131965 0.5408632 0.7326225 
0.40576455 0.39469454 0.8243613 
-0.14317551 0.76874495 0.6233234 
-0.88570654 0.3923504 0.24816358 
-0.47404042 -0.16377692 0.8651375 
-0.39756057 0.16405818 0.9027904 
0.55635864 0.368132 0.7449456 
0.69109344 0.24699013 0.6792538 
0.73210824 0.29851487 0.61229604 
-0.38977805 0.9072706 0.15790237 
-0.45592296 0.41268325 0.78856003 
0.021575637 0.48789084 0.872638 
0.23349085 0.4927861 0.83823866 
0.07012406 0.4503612 0.89008844 
0.2739509 0.28003603 0.92007107 
0.06941151 0.7270921 0.6830221 
0.018911451 0.99978495 0.008512736 
-0.42852172 0.8980452 0.09941868 
0.07552701 0.9940517 0.07846567 
-0.06761295 0.99768674 0.0070523303 
0.007023962 0.98602474 0.16645072 
0.3432562 0.93922305 -0.005951337 
0.44525543 0.7880201 0.42517295 
0.7249154 0.5957928 -0.3457293 
0.24895872 0.9463164 0.20616707 
0.73777694 0.36636445 0.56697655 
0.967939 0.21847476 0.12394684 
0.8086849 -0.09961869 0.57974553 
0.6879003 -0.0038987412 0.7257948 
0.17659837 0.43502635 0.88292986 
0.45674348 0.28958392 0.841146 
0.5801742 -0.18013464 0.7943233 
0.52177733 0.64400685 0.5594674 
0.5771711 0.56161815 0.59283954 
0.022616692 0.8248729 0.5648657 
-0.33665195 0.23181355 0.912649 
-0.0018125823 0.20365946 0.9790401 
0.5942571 0.121292874 0.7950765 
-0.24759765 0.07175595 0.96620214 
-0.1385573 -0.21727446 0.9662265 
-0.12420398 0.34275234 0.931179 
0.35030106 -0.0205512 0.93641174 
0.08513459 -0.32779104 0.9409065 
0.18085234 -0.309443 0.9335618 
-0.32785624 0.21926858 0.9189296 
-0.367173 0.09084247 0.925706 
-0.7763446 -0.24554667 0.58051354 
0.10872939 -0.4234004 0.89939433 
-0.80895144 0.5196526 0.2748799 
-0.3958163 0.6161367 0.680959 
-0.19032034 0.9097082 0.36906534 
-0.034527704 0.97274625 -0.22928701 
-0.7933745 0.519988 -0.31649545 
-0.57496035 0.2437723 -0.7810222 
-0.14295016 0.8207932 -0.5530496 
0.07905788 0.7315684 -0.67716885 
-0.0005816824 0.54355 -0.8393766 
0.2386529 0.32787728 -0.91407955 
0.034035213 0.6944997 -0.7186876 
-0.19750649 0.62332195 -0.75661147 
-0.26631808 0.73737454 -0.6207685 
0.2106788 0.92358416 0.32032296 
0.35197368 0.82794297 -0.43660632 
0.39445934 0.89309835 0.2162804 
0.45745575 0.8823894 0.110104725 
0.89223725 0.4502721 0.03417156 
0.69840086 0.71481127 -0.035793208 
0.43999642 0.79074895 0.4255812 
-0.11861768 0.5629882 0.8179085 
-0.09178228 0.5467881 0.83222526 
-0.6285809 0.6093491 0.48330086 
-0.40202302 -0.4227592 0.81218976 
0.14870706 0.74501663 0.6502588 
-0.12598592 0.29323286 0.94770366 
0.123968646 0.06795171 0.9899568 
-0.34881556 -0.3344339 0.8754894 
-0.29768705 -0.03226041 0.9541183 
-0.013800917 -0.463498 0.88599056 
-0.2982563 -0.35163504 0.8873534 
-0.3252982 -0.39027497 0.86131674 
-0.5369672 -0.22885479 0.81196785 
-0.9021444 -0.14731155 -0.4055057 
-0.5366496 0.67687476 -0.5038332 
-0.5973226 -0.16814983 -0.78417563 
-0.084359564 0.9309055 0.35538498 
0.78039664 0.37820575 0.4979373 
0.7426054 0.51880467 0.42353168 
0.2947869 0.39306137 0.87097853 
-0.34945664 0.4900069 0.7986072 
0.14012286 0.13862926 0.9803813 
0.49829283 0.4680076 0.7298447 
0.30628523 -0.26527792 0.9142303 
-0.17436859 0.56286085 0.8079501 
0.34916106 0.7917772 0.50117415 
0.15315524 0.85114616 0.5020893 
-0.80241513 0.44035232 0.4027653 
0.3525414 0.6076164 0.7117 
0.10716442 0.59105545 0.79948074 
0.32311893 0.3951308 0.859922 
-0.0866715 0.7707467 0.6312191 
-0.028568 0.78721434 0.6160176 
-0.51245373 0.60827416 0.60613024 
-0.4450488 0.5588137 0.69975626 
-0.73164856 0.6592888 0.1732878 
-0.28076968 0.95620036 0.0827608 
-0.03182891 0.5863677 0.8094196 
-0.10157253 0.9893004 0.10472775 
0.3211464 0.3587274 0.8764586 
0.011500377 0.6496135 0.7601777 
-0.1668048 0.8892137 0.4259989 
-0.4593754 0.35729942 0.81321067 
-0.5568961 0.40358248 0.72593933 
-0.76606184 0.6212418 0.16494812 
0.32305214 0.79759586 0.50939 
-0.15762414 0.45950744 0.87407535 
-0.23861821 0.95960957 -0.14903302 
-0.08069037 0.9050849 -0.41750515 
-0.8255704 0.5601851 -0.06801603 
-0.44316977 0.85082555 0.28230557 
-0.47857445 0.87793547 0.013993224 
-0.2852068 0.9026074 0.32242373 
-0.5875334 0.8053863 0.07846997 
-0.3870218 0.5084938 -0.7691867 
-0.4590848 0.8869841 0.050002865 
-0.46446115 0.61364686 0.6385244 
-0.34365818 0.90457135 0.25228897 
0.36538425 -0.1651889 0.91608244 
0.058010783 0.3811652 0.92268515 
0.39381823 -0.22106291 0.8922098 
0.29481846 -0.52433157 0.79884833 
-0.45477724 -0.17853919 0.872526 
0.14660682 0.24946645 0.9572215 
-0.3378498 0.6182835 0.70963585 
-0.20960741 0.34042498 0.9166109 
0.31025827 -0.11018649 0.94424516 
0.43187758 0.23020738 0.87205875 
0.12093363 -0.08768867 0.98878 
0.1236693 0.10559537 0.98668915 
-0.43295336 0.1118122 0.8944549 
-0.46895653 -0.58102095 0.6652025 
-0.15880017 0.075377956 0.9844291 
-0.37843555 0.044285 0.92456776 
0.21725188 -0.33671904 0.9161998 
0.57690823 0.19881915 0.7922424 
0.067348525 -0.09470981 0.9932242 
0.28513926 -0.36764866 0.8851724 
0.8250282 0.3166137 0.4680643 
0.38498217 0.29360607 0.8749767 
-0.17739753 -0.29792273 0.93796176 
0.24248695 0.037116826 0.9694444 
0.0562379 0.43132803 0.90044075 
-0.3734485 -0.34893486 0.85952353 
-0.63306004 -0.4999845 0.5909743 
0.22013918 0.9277906 -0.3012364 
0.28955898 0.94522554 -0.15067992 
0.8212581 0.07854268 0.5651248 
0.90696394 -0.20682693 0.36693206 
0.8061438 0.19060689 0.56017977 
0.46619138 0.5035284 0.7274097 
0.17853776 0.81625015 0.5494179 
0.69211113 0.15552707 0.7048359 
0.14299254 0.2991581 0.94342864 
-0.22548516 0.7644905 0.60391295 
-0.36950547 0.91771936 0.14579779 
-0.69775605 0.20752856 0.6856154 
-0.38141882 -0.506745 0.77312964 
0.2187658 -0.15946361 0.96265936 
0.69978154 0.45316833 0.5522176 
0.41175506 -0.04535402 0.91016525 
0.31515983 -0.043436706 0.9480441 
-0.72131723 0.3895008 0.5727046 
-0.58332705 0.265631 0.7675739 
0.07271278 0.6625933 0.7454415 
-0.20300719 0.6689502 0.7150481 
0.31702825 0.7078695 0.6312003 
0.09867508 0.012865458 0.99503654 
-0.03547196 0.14107643 0.9893631 
-0.46661416 0.5687569 0.67733806 
-0.67806864 0.5868692 0.44250157 
-0.34735268 0.82700384 -0.44205293 
0.006331714 0.96819526 -0.25011584 
0.076000884 0.87097216 0.48541895 
-0.3906191 0.7849566 0.48089513 
-0.24254091 0.45609918 0.8562404 
-0.06307584 0.9894494 0.13042767 
0.3516563 0.4782034 0.8047729 
-0.30608132 0.48616314 0.8185106 
-0.6313179 0.34818345 0.692969 
-0.18797824 0.07109922 0.9795964 
-0.559865 0.067059755 0.82586575 
-0.902334 0.076061234 0.4242738 
0.17357998 -0.17575663 0.9690097 
0.053468432 0.035267707 0.9979466 
0.32404676 0.52230513 0.78879094 
0.6605386 0.2954719 0.6902066 
0.63293743 0.63764685 0.43908635 
0.34722483 0.77578104 0.5268765 
-0.096846715 0.7995669 0.59271705 
-0.23264867 0.97255677 0.0028137062 
-0.31008086 0.8756487 0.37025583 
-0.284043 0.3102052 0.90724444 
-0.17438711 -0.050305113 0.98339134 
0.16150428 -0.10453602 0.9813199 
-0.35598457 0.54373777 0.76001596 
-0.6972291 0.5499343 0.4598303 
-0.5697596 -0.0029264987 0.82180625 
-0.64649874 -0.21873108 0.73088723 
-0.7042084 0.15935941 0.691878 
-0.13762064 0.73193145 0.66733575 
-0.62397116 0.68573844 0.37473035 
-0.48387417 0.22629116 0.8453745 
-0.11490719 -0.47619125 0.8718017 
-0.3176238 -0.75114983 0.5786961 
-0.18614094 0.26255783 0.94679195 
-0.8136141 0.37733096 0.4423274 
-0.5670362 -0.2771168 0.775678 
-0.68845946 0.20203069 0.69656825 
-0.98747367 0.11504974 0.10797871 
-0.9980222 0.001074769 0.062853746 
-0.8590401 0.39258882 -0.32851836 
-0.92809635 0.37063882 -0.035554774 
-0.9393446 0.07423583 -0.33484456 
-0.7353943 -0.115413174 -0.6677388 
0.76640874 0.32917842 -0.5515969 
0.49069667 0.20160542 -0.8476863 
0.6338832 0.31142378 -0.70796007 
0.9697665 -0.18127505 0.16337769 
0.48452818 0.66242456 0.5713373 
0.5561348 0.67883307 0.47947878 
0.45749253 0.5264619 0.716616 
0.06512701 -0.37995496 0.9227094 
-0.11975075 -0.09081719 0.98864156 
-0.35607728 -0.08320016 0.93074524 
-0.29724222 0.31879398 0.9000098 
-0.28534436 0.7495993 0.59722656 
-0.076027304 0.9862484 0.1467449 
0.64209646 0.644121 0.4157167 
0.6186305 0.037559938 0.7847838 
0.114462055 0.8520131 0.5108544 
-0.45138532 0.890047 0.063779436 
-0.59849143 0.67191744 0.43627417 
0.45006576 0.68316835 0.5750842 
-0.32693166 0.868415 0.37278828 
0.42239925 0.79729974 0.43115193 
0.5453761 0.446819 0.709167 
-0.3457542 0.9248004 0.15873973 
-0.21856458 0.9674742 0.12737061 
-0.7200649 0.67806953 0.14740518 
-0.8433325 0.43862855 0.3104761 
-0.6154891 0.6780331 0.40180135 
-0.54258347 0.47724444 -0.6912604 
-0.11515724 0.37831423 -0.91848636 
0.62254393 0.115199074 -0.7740597 
0.8783515 0.47452167 0.057687532 
0.64552563 0.10545848 0.75642264 
0.2607071 0.3881378 0.88395756 