# OOMMF: rectangular mesh v1.0
# Segment count: 1
# Begin: Segment
# Begin: Header
# Desc: Time (s) :  1.929999999999997e-07
# Title: m
# meshtype: rectangular
# meshunit: m
# xbase: 2e-09
# ybase: 2e-09
# zbase: 5e-10
# xstepsize: 4e-09
# ystepsize: 4e-09
# zstepsize: 1e-09
# xmin: 0
# ymin: 0
# zmin: 0
# xmax: 1.024e-06
# ymax: 1.024e-06
# zmax: 1e-09
# xnodes: 256
# ynodes: 256
# znodes: 1
# ValueRangeMinMag: 1e-08
# ValueRangeMaxMag: 1
# valueunit: 
# valuemultiplier: 1
# End: Header
# Begin: Data Text
0.7899664 0.13505451 -0.5980914 
0.99679524 -0.061192036 -0.0515263 
0.7549219 -0.15357459 0.63757956 
-0.62783927 0.2731617 0.7288351 
-0.6528163 0.47605 0.589243 
-0.88008314 -0.23434862 0.41295823 
-0.85238343 0.45941553 -0.24976 
-0.50784975 0.5544442 -0.65930295 
-0.56077397 0.45783916 -0.68986666 
-0.81274337 0.44826972 -0.37215933 
0.56008315 0.7719928 0.3005564 
0.19444424 0.94135594 -0.27575433 
0.83706635 0.5189097 0.17335764 
0.6202865 0.7832493 0.042013247 
0.47249317 0.8753991 -0.102111384 
0.44006255 0.4742274 0.76253086 
0.65533495 0.5620676 0.50459504 
0.3786584 0.36928293 0.8486742 
0.4771065 0.83314186 -0.27972153 
0.6090859 0.7217396 0.32879525 
0.2821104 0.22497508 0.9326307 
0.25914052 0.42671022 0.8664667 
0.5314007 -0.15348028 0.83310103 
0.074160255 0.8422348 0.533986 
0.5771787 0.53745914 0.61481905 
0.1560791 0.43257734 0.88798434 
-0.1367199 -0.2221164 0.96538705 
-0.69920963 -0.3428537 0.62734145 
-0.41025963 -0.5065066 0.75837857 
0.56709766 -0.50141513 0.6534396 
0.17300355 0.526314 0.8325043 
0.38534936 0.2871959 0.87694037 
0.57937735 0.37003118 0.7262223 
0.5378817 0.102314875 0.83678854 
-0.036561206 0.99808145 0.04996848 
-0.06427168 0.81764317 0.5721266 
-0.36921835 0.88870054 0.27182594 
-0.20278631 0.89556843 -0.39602384 
0.05266838 0.980205 0.19085112 
-0.49067914 0.7655407 0.41615075 
-0.3396358 0.5679306 0.74973494 
-0.38125595 0.7768498 0.50114703 
-0.17426464 0.979554 0.10052756 
0.1474232 0.9368678 -0.31708878 
0.87326336 0.4802344 -0.082377486 
0.61221814 -0.7168095 -0.3337262 
0.6435387 -0.75708777 0.11258849 
0.98001474 0.124737605 -0.15495726 
0.5057662 -0.86262363 -0.009002199 
0.32823205 -0.1119202 0.9379433 
0.64493096 0.49415088 0.5829915 
0.5066623 0.7853248 0.3557504 
0.024946291 0.80999434 0.58590686 
-0.039520327 0.31400812 0.9485975 
-0.6034046 0.6914906 -0.39716956 
-0.6983326 0.5779083 -0.42231938 
-0.47435108 0.875705 -0.09017625 
0.44176078 0.8378405 0.3207349 
0.4792852 0.42289644 0.76905423 
0.67197496 0.41940054 0.6103711 
0.5485211 -0.30402473 0.7789054 
0.2043347 0.052357815 0.9774999 
-0.34102428 0.34228295 0.8755255 
-0.24000488 0.6579974 0.71374863 
0.555703 0.60658866 0.56854594 
0.33421993 0.55653757 0.76063335 
0.24080046 0.9672016 0.08084631 
0.3380327 0.92854065 -0.15344812 
-0.06838693 0.78032213 -0.6216275 
-0.01841528 0.9974183 -0.06941032 
0.59771967 0.5341967 -0.5978002 
0.52207917 0.64745015 0.5551952 
0.62557596 0.73132306 0.27170098 
0.43825138 0.7293606 0.5253274 
0.08921988 0.23598926 0.9676513 
0.6967379 0.5093243 0.50511885 
0.15113522 0.021129495 0.98828727 
0.15416427 0.2358641 0.95947987 
-0.428882 0.65378755 0.6233957 
0.08135839 0.5255571 0.8468592 
0.63511795 -0.04310441 0.7712116 
0.11902493 0.336286 0.93420815 
-0.47650427 0.6474935 0.5947234 
-0.64198816 0.7621752 -0.083308585 
-0.5000016 0.771452 -0.39352295 
-0.39153954 0.707015 -0.58892 
-0.026169907 0.6044359 -0.7962238 
0.7010739 0.71308875 5.462336e-05 
0.60729426 0.7730806 -0.18313956 
0.7615656 0.6478973 -0.015712094 
0.71691465 -0.27257562 0.6416666 
0.08834974 0.033236787 0.99553484 
-0.35172242 0.28785816 0.8907464 
0.4344137 -0.29362 0.8515117 
-0.4515111 0.34561056 0.82261246 
-0.72129303 0.17486188 0.67019385 
-0.9792052 -0.0066396394 0.20276375 
-0.5559767 0.38652444 0.7358593 
-0.29573014 0.9448827 0.14050062 
-0.6629396 0.734493 0.14502093 
-0.6030431 0.28022698 -0.74686813 
0.20505008 0.9773549 0.052269034 
0.1443014 0.66830075 0.7297611 
0.045735206 -0.17559347 0.98339987 
0.5154545 0.45429617 0.7265823 
0.60004246 0.7351712 0.31539264 
0.11613665 0.4653321 0.8774841 
-0.35384196 0.9060114 0.23224813 
-0.115528084 0.9419856 0.31514516 
-0.014822673 0.6023395 0.7981025 
-0.51207596 0.85740036 -0.051408745 
0.19581859 0.029627671 0.9801925 
-0.22813973 0.5285722 0.8176575 
-0.58081603 0.22724456 0.781673 
-0.84026533 -0.10264427 0.5323705 
-0.06854457 0.37095368 0.92611825 
-0.64827317 0.76137453 -0.007125986 
-0.45649377 0.8270347 -0.3280657 
-0.32167765 0.40321207 -0.8567051 
0.2142544 0.94785935 -0.235919 
0.8698437 0.37246814 -0.3234803 
0.59877723 0.76749545 0.2289468 
0.7421035 0.5519365 -0.38032675 
0.41292974 0.08429376 -0.90685374 
0.12464831 0.93358004 -0.3359927 
0.41466337 0.9081786 -0.057147652 
0.430093 0.8605417 0.27292484 
-0.31400928 0.9128789 0.26086482 
-0.44067627 0.72607136 0.5278494 
-0.2204004 0.43109974 0.87497234 
-0.3861355 0.14195298 0.9114542 
-0.2805982 0.09866698 0.9547406 
-0.43240896 -0.04610576 0.90049815 
-0.02249572 -0.31532392 0.94871753 
-0.7482088 -0.2654296 0.6080549 
-0.87508684 0.063669845 0.4797594 
-0.9174114 0.30475318 -0.25589448 
-0.66046584 -0.1267253 -0.7400849 
0.505412 0.21608879 -0.83538276 
-0.47101027 0.33265284 -0.8170015 
-0.14730561 0.72514147 -0.67265964 
0.1542572 0.8263874 -0.5415613 
-0.03846162 0.846801 -0.5305176 
-0.29737505 0.36971363 -0.8802726 
0.5244364 0.4702068 -0.70983946 
0.19677188 0.3409587 -0.91925406 
0.87091696 0.41486844 -0.26341602 
0.6510577 0.4049935 -0.64195347 
0.23298697 0.86652833 0.44141352 
0.55044454 0.8040839 -0.22463311 
0.18301491 0.8722488 -0.45352787 
-0.6085203 0.62597066 -0.48771295 
-0.031721786 0.95312977 0.3008945 
-0.31928185 0.9000163 0.29669797 
-0.5740008 0.65901697 0.48602453 
-0.19611384 0.84233236 -0.50201154 
-0.07437564 0.96835345 0.23824345 
-0.102009505 0.93069845 0.35127535 
-0.62164646 0.46489894 -0.6304163 
-0.6371034 0.026450232 -0.77032447 
-0.31906727 0.6601653 -0.67998374 
-0.27537602 0.6504043 -0.7079141 
-0.95856076 0.17306796 -0.22629361 
-0.58920646 0.16461952 -0.7910349 
0.20623466 0.6933096 -0.6904991 
0.7571563 0.5941726 -0.2714284 
0.64752084 0.7148659 0.2639763 
0.3727536 0.3404591 0.86321634 
0.42134473 0.2240636 0.87878555 
0.14868358 0.097410336 0.9840755 
-0.33824342 -0.07771237 0.93784446 
-0.45476168 -0.5422079 0.7065426 
-0.07824532 0.07788739 0.993887 
0.47879508 0.05379548 0.87627697 
-0.24470982 0.9405026 -0.23573732 
-0.2934983 0.9288565 -0.22601843 
0.22255903 0.33766943 0.91457474 
0.03012844 0.49833697 0.8664599 
-0.01975606 0.6092653 0.79272044 
-0.3965819 -0.16713116 0.90265715 
-0.2562397 0.2676017 0.92883295 
-0.16741401 0.05863098 0.9841418 
-0.6549236 -0.32102045 0.6841206 
-0.7753926 -0.2877292 0.56211954 
-0.5813702 0.7998391 0.14921837 
-0.057724603 0.99144864 -0.11703629 
0.24985084 0.9502152 0.186187 
0.10685036 0.7714159 0.62729615 
0.026268847 0.8896322 -0.4559218 
-0.54722285 0.8202712 0.16644058 
-0.33569345 0.92954713 -0.15248656 
0.24988616 0.8990652 0.35949796 
-0.17759542 0.960057 0.21621864 
-0.45423728 0.7752434 0.43893778 
0.1441281 0.98943865 0.015440766 
0.16098039 0.8974717 0.41064578 
0.14165013 0.654805 0.74240535 
0.35145602 0.16762488 0.9210758 
0.20297515 0.97373337 0.10317198 
-0.06514238 0.62942827 0.7743232 
0.14820696 -0.019839067 0.98875743 
0.32972005 0.43777403 0.836444 
-0.11458044 0.5865654 0.8017559 
-0.31182778 0.9445547 -0.10285917 
-0.16904968 0.9853501 -0.022525406 
-0.2476596 0.9393393 -0.23728988 
0.71212673 0.5752966 0.40237984 
-0.42062926 0.8344653 -0.35600373 
-0.7773255 0.617914 -0.118098505 
-0.6947153 0.56557405 0.4444059 
0.08529911 0.93777686 0.3365988 
0.87398505 0.4740401 0.10694012 
0.12757105 0.7765328 0.61702716 
0.09312986 0.9955897 0.011316959 
-0.9369675 0.32999524 -0.11486975 
0.18575594 0.4503677 -0.8733063 
-0.35567257 0.81277937 -0.46139657 
-0.30278084 0.6726014 -0.67522675 
-0.14608552 0.47254843 0.86911285 
-0.18561147 0.6076782 0.77218896 
-0.5091775 0.81486547 0.27700636 
0.26981944 0.87599456 0.3997886 
-0.02421883 0.473117 0.88066673 
-0.2567619 0.48258293 0.83736914 
-0.054784384 0.89807737 0.43641254 
-0.22226124 0.97458714 0.027927533 
-0.374662 0.9232276 0.08531794 
-0.75474447 0.64880973 -0.09698787 
-0.2801099 0.7827288 -0.5557645 
-0.24980079 0.9654184 -0.07461169 
-0.67929506 0.38803253 0.62288773 
-0.667594 0.5389119 0.5137045 
-0.9936287 -0.014651785 0.11174714 
-0.8032184 0.48877102 -0.340504 
-0.64780664 0.6138167 -0.45119357 
-0.8894254 0.36732483 -0.2720202 
-0.7976245 0.49930558 -0.33836243 
-0.68425834 0.67139417 -0.28464103 
-0.4989908 0.5576714 -0.6633332 
0.11158826 0.2393689 -0.964495 
0.109241225 0.21431191 -0.9706374 
0.44746253 0.794864 0.4098398 
0.24081016 0.58817005 0.77205336 
0.26495755 -0.21145506 0.94078916 
0.12351068 0.18741275 0.9744853 
0.7265567 0.55480397 0.40534925 
0.3751819 0.8022091 0.46443424 
0.46665087 0.8844027 -0.008293248 
0.0675538 0.9525541 0.29677802 
-0.087899595 0.88836956 0.4506366 
-0.21801673 0.50273573 0.836496 
-0.7718892 0.22928953 0.5929701 
-0.85687447 0.26737395 0.4407692 
-0.57214123 0.78807783 0.2271294 
0.32901436 0.90282303 0.27687576 
0.3324054 0.93934053 0.08453465 
0.119281724 0.15990461 -0.9798992 
0.8475591 0.49144462 -0.20031448 
0.9214594 0.26195318 0.28686804 
0.12440051 -0.004578734 0.9922216 
-0.17662102 0.60041875 0.77993745 
-0.45119697 0.36596644 0.8139348 
-0.31505215 0.7679311 0.5576953 
-0.8445995 0.5079578 -0.1692061 
-0.47748888 0.7836169 -0.39742786 
-0.3058087 0.88835984 -0.34248784 
0.5826764 0.79900646 0.14858316 
-0.40046197 0.86346054 0.30670193 
0.22936818 0.9732883 0.010000851 
0.35537124 0.7249484 0.5900518 
0.7709724 0.25301886 0.58445126 
0.40289068 -0.3473856 0.8467599 
0.14672913 -0.13912503 0.9793441 
0.034668148 0.95448285 0.29624444 
0.6004317 0.6842916 -0.41379562 
0.6778612 0.60901433 0.41183227 
0.5153205 -0.35653463 0.7793125 
0.52461976 0.07388275 0.8481247 
0.70520586 0.08020508 0.7044515 
0.21896107 -0.390648 0.89411974 
0.29679474 -0.18704933 0.93644303 
0.34367806 -0.20301756 0.9168802 
0.12919094 -0.629358 0.7663017 
0.15466881 -0.6861895 0.7107894 
-0.08359383 -0.9782509 0.18983482 
0.042855978 -0.7204017 0.6922318 
-0.4446529 0.189423 0.87544435 
0.8285331 0.04184249 0.5583745 
-0.041911434 0.46315902 0.88528365 
-0.07927982 0.24404274 0.9665185 
-0.1539133 0.62631965 0.7642215 
0.20092244 0.9796041 0.0024260925 
0.30067986 0.47161397 0.82895845 
0.30398428 0.77382666 0.5556851 
-0.2681802 0.7863112 0.5565917 
-0.14058943 0.9832706 0.115817145 
-0.48610845 0.55501366 0.67502487 
-0.6498789 0.32715917 0.6860206 
-0.038647115 0.9983853 0.04163219 
-0.10085264 0.98504907 -0.13966766 
0.6221703 0.7810628 -0.053338468 
0.89102936 -0.2704338 -0.36459872 
0.7688866 0.5844806 0.2592216 
0.53674614 0.8327948 -0.13548651 
0.73796755 -0.426921 0.5226302 
-0.06334062 -0.12530586 0.9900942 
0.70786184 0.07558318 0.70229536 
0.8797024 -0.38242018 0.28262788 
-0.12886092 -0.2695669 0.954321 
-0.18110524 -0.2555999 0.94966817 
-0.13810916 0.21398795 0.96702385 
0.04946713 0.7875669 0.61424047 
-0.2814247 0.7995408 0.53059834 
-0.46761847 0.4650826 0.75168556 
-0.115382284 0.3267818 0.9380302 
0.7707278 0.5200678 0.36811438 
-0.23933001 0.11605695 0.96397716 
0.40989065 0.21870856 0.88552594 
0.21172369 0.37836838 0.90111625 
0.035283707 0.4636199 0.8853314 
0.4414299 0.17969683 0.8791182 
0.40071785 0.6289989 0.66617244 
0.31866193 0.9283187 0.19151771 
0.65305156 0.74976325 -0.10667111 
0.45549354 0.85701925 -0.24092287 
0.89802235 0.43664208 -0.053848412 
0.28714162 0.82746345 0.4825494 
0.3780741 0.7611116 0.5270383 
0.6915846 0.362266 0.6248793 
0.72624105 -0.24133648 0.6436852 
0.64802283 -0.19727302 0.7356289 
-0.6337456 0.20210178 0.7466736 
-0.14284617 0.40585175 0.9027066 
-0.3887785 0.1550382 0.908193 
-0.33327985 0.8139646 0.4758007 
-0.37112874 0.87427485 0.31290075 
-0.36712912 0.9142968 0.17110698 
0.6027836 0.5802022 0.5477383 
0.18473944 0.76074314 0.6222068 
0.19399773 0.89877814 0.39314452 
-0.017560389 0.9922146 0.12329576 
-0.11951393 0.7985916 -0.58988804 
0.5577262 0.81032485 0.17976439 
0.6192029 0.25574178 0.74241763 
0.3556159 -0.089080766 0.93037736 
0.11737848 0.79413825 0.5962941 
0.097764455 -0.001966509 0.9952077 
0.06568691 -0.5800675 0.81191564 
0.38229886 -0.591794 0.70966727 
0.1841031 -0.015374057 0.9827868 
-0.2693692 0.33392864 0.90328956 
-0.87750757 0.4732598 0.077496886 
-0.77137166 0.13343142 0.6222394 
-0.43861306 0.28665897 0.8517307 
-0.39164433 0.3448058 0.85306716 
-0.8191213 0.5196181 0.24297601 
0.422386 0.8134287 -0.39990467 
0.49331138 0.868797 0.042845797 
0.30639786 0.559564 0.77007043 
0.14705825 0.57275736 0.8064261 
0.17628643 0.3505205 0.91981447 
-0.16177037 -0.010522752 0.9867723 
-0.12892729 -0.14478464 0.98102766 
-0.75573665 0.1544404 0.6364043 
-0.5253015 0.82925195 0.19078657 
-0.66582614 0.72591895 0.17238714 
-0.81372887 0.5439044 0.20497178 
-0.55289835 -0.21908616 0.8039309 
-0.8547522 -0.016143443 0.51878524 
-0.5935074 0.6846824 0.42303538 
-0.48998758 0.7104261 0.50518024 
-0.9945286 -0.084945485 0.060803823 
-0.84781414 0.41840068 -0.3258102 
-0.99240744 0.08394885 -0.089889094 
-0.8273232 0.44964874 -0.33667856 
-0.32936466 0.9399827 -0.089171566 
0.24576062 0.73241514 -0.6349566 
0.47152266 0.84584934 -0.24940991 
0.2808778 0.91922534 0.27592131 
0.64888453 0.42173377 -0.63331634 
0.1721607 0.9472615 0.27028927 
0.222983 0.71299785 0.6647651 
0.0135426065 0.70286834 0.71119106 
-0.08283935 0.56614685 0.8201314 
0.012329296 0.6834692 0.72987527 
0.056049023 -0.19366096 0.9794662 
-0.43513557 0.29419893 0.850943 
-0.7265151 -0.29445672 0.62086314 
-0.6302074 0.24598834 0.73642945 
0.2820382 0.4970306 0.8206187 
-0.6367565 -0.19315068 0.74648106 
-0.8458334 0.52614325 0.087972194 
-0.8691927 0.33140123 -0.3669842 
-0.6977842 0.40516967 -0.590707 
-0.32259148 0.29186103 -0.9004176 
0.008932769 0.8729605 -0.487709 
0.231241 0.79629326 -0.5589674 
-0.09215507 0.8229346 -0.5606122 
0.6699884 0.7075582 -0.2246708 
0.14103591 0.774503 -0.6166474 
0.05682165 0.77242756 -0.63255596 
0.15912662 0.442814 -0.88238 
0.6930515 0.57832164 -0.43037632 
0.67568654 0.60339886 0.4235063 
0.6493741 0.42751658 0.62892205 
0.006806031 0.37439445 0.9272446 
0.5271989 0.8314301 -0.17545718 
-0.111823566 0.9476742 0.29901338 
-0.2116206 0.977346 0.003405581 
-0.37833586 0.913867 0.1473405 
-0.24138485 0.9638503 0.1128099 
-0.20309228 0.9787922 -0.026823513 
-0.0046516927 0.6679187 0.7442198 
0.3294098 0.5851108 0.7410362 
-0.31386295 0.8771084 0.36355317 
-0.7280669 0.52751565 -0.43777388 
-0.80139506 0.5928588 0.079274155 
0.356678 0.7395054 0.5708876 
-0.5600509 0.7107944 0.42557523 
0.2562144 0.87664837 0.40723684 
0.45292357 0.43647856 0.77739745 
0.4157945 0.66245896 0.6231077 
0.10257138 0.25332338 0.96192855 
-0.17016596 0.28950432 0.94192934 
-0.36288854 0.48189518 0.79755193 
0.40800348 0.64236814 0.64876527 
-0.1708858 0.16174813 0.97192365 
-0.8059404 -0.012204431 0.59187096 
-0.2603247 0.55998635 0.7865408 
0.09352298 -0.035043407 0.9950003 
-0.28155193 0.1725941 0.9438961 
0.58468515 0.34186977 0.7357094 
0.9411496 -0.0443269 0.33507088 
0.2098623 -0.6361166 0.7425049 
0.40312707 0.08921943 0.91078454 
-0.38824424 -0.4191168 0.82073605 
-0.5303987 -0.14017458 0.8360792 
-0.71831036 -0.61077327 0.33314604 
-0.34225592 0.46198624 0.8181868 
-0.89116037 0.14795579 0.42888504 
-0.40089786 0.7680022 0.49945325 
-0.18823016 0.97542006 -0.11456534 
0.25784165 0.90345836 0.3424628 
0.7853982 0.08552807 0.61305356 
0.8013778 0.44275206 0.40219942 
0.5186918 0.44499362 0.73002714 
-0.24273859 0.86727 0.43465018 
0.18311022 0.6493538 0.73811275 
0.038405046 0.1863148 0.9817393 
0.10531821 0.65261143 0.75033754 
0.2917077 0.71953106 0.6302235 
0.17882459 0.865293 0.46828398 
0.26945978 0.8036577 0.5305899 
-0.103419855 0.7853982 0.61029005 
-0.5847602 0.4382473 0.68263817 
0.088519886 0.025940424 0.9957366 
-0.12370049 0.27413827 0.9537015 
-0.11389572 0.47031727 0.87511694 
0.39540467 0.72195965 0.5678288 
0.033491094 0.98810446 0.15009312 
0.7789622 0.5790793 -0.24059358 
0.78263706 0.4045494 -0.47309518 
0.7074029 0.4621421 0.5347953 
-0.7265514 0.57456684 0.37682372 
-0.66038007 0.62879765 0.4105018 
-0.99058056 0.114350386 0.075327866 
0.14436303 0.89142835 0.42955187 
-0.2390733 0.96072483 0.14089616 
-0.508974 0.60621834 0.6111013 
-0.84431285 0.2993796 0.44441846 
-0.9174685 0.38422993 0.103048936 
-0.649677 0.14866328 -0.74553275 
0.15781109 0.8040033 -0.5733013 
0.52413094 0.8502234 0.04906154 
-0.14494345 0.74236715 0.65412724 
-0.48074 0.509367 0.7137468 
-0.03717435 0.7692137 -0.6379095 
-0.3652252 0.54272383 0.7563474 
-0.58061737 -0.0039560134 0.8141669 
-0.24312524 -0.5698886 0.78493136 
-0.59719604 0.1272725 0.7919335 
-0.93580955 0.04758145 0.3492801 
-0.5631117 0.6664407 0.48863274 
-0.22598591 0.94359356 0.24199508 
-0.20774254 0.3807558 0.9010373 
0.106251836 0.8597336 0.49956858 
0.13735309 0.77878994 0.6120624 
-0.29650453 0.3858717 0.8736065 
-0.81182146 0.2238125 0.53930885 
-0.528564 0.8201374 0.21907756 
-0.8973532 0.40125012 -0.1837274 
-0.742362 0.47073418 0.47676837 
-0.6612548 0.7425505 -0.106587805 
-0.76020896 0.59978783 0.24967374 
-0.37979445 0.7804362 0.49666438 
0.34294027 0.8180928 -0.4616452 
0.31579295 0.93184453 -0.17871973 
0.10477468 0.6362772 0.7643125 
0.09777404 0.6743533 0.73190707 
0.86710405 0.19452335 0.45857516 
0.8955254 -0.061892986 0.44068554 
0.6121431 0.45417982 0.6473033 
0.568853 0.74695385 0.34418935 
-0.5664777 0.77430725 0.28204864 
-0.8184504 0.19697571 0.5397589 
-0.35984913 0.6993302 0.61761314 
-0.21921256 0.7783697 0.5882913 
-0.6603052 0.35808548 0.66013014 
-0.81447226 -0.20762824 0.5417799 
-0.84790313 0.29315218 0.44172624 
-0.0075115953 0.9814283 0.19168225 
-0.10473618 0.9263846 0.36172083 
-0.35496846 0.36833787 -0.8592582 
0.6250866 0.7784177 -0.05772934 
0.7074878 0.7040846 0.061040483 
0.17887813 -0.21626224 0.959809 
0.1409462 -0.05608518 0.98842734 
-0.29190367 0.55897135 0.77610785 
-0.45078766 0.5244541 0.7223146 
-0.8905526 0.44047308 -0.113576576 
-0.34862188 0.9100306 0.22429258 
-0.30636564 0.94428957 -0.120238885 
-0.3375245 0.92275685 -0.18600273 
-0.63664883 0.6156287 0.4644132 
-0.055045955 0.99788696 -0.034518972 
0.1734818 0.74828166 0.64029574 
0.65166295 0.6689749 0.3575026 
0.19693147 -0.065721914 0.97821194 
-0.71654916 -0.15582696 0.67990834 
-0.09455364 0.5695059 0.81653094 
-0.5287623 0.8266691 -0.1924288 
-0.5901934 0.7072635 0.38916585 
0.41223928 0.52723783 0.7430203 
0.19423102 0.40806085 0.8920542 
0.6526434 0.59962046 0.46315432 
0.22146617 -0.48750108 0.8445682 
0.68276656 -0.6109808 0.4006649 
0.61385304 -0.6406318 0.46127588 
0.5624766 -0.29083997 0.7739717 
0.23236482 -0.78125966 0.5793446 
0.17022376 -0.9142117 0.36775103 
0.18300842 -0.8431591 0.5055599 
-0.095645055 -0.1713998 0.98054785 
0.9197656 0.38207605 0.089717835 
-0.085725024 0.4717133 0.87757504 
-0.21712957 0.5675959 0.7941597 
-0.39168417 0.5062214 0.76832515 
-0.40636092 0.5869667 0.70024353 
-0.35738912 -0.15465204 0.92106235 
0.024321325 0.1143492 0.99314296 
-0.06425259 0.5256495 0.8482713 
0.44422796 0.27391416 0.8530139 
0.21527867 0.2139649 0.95282435 
-0.1483462 -0.2849147 0.94700426 
0.52100885 0.34379596 0.7812518 
0.5610723 0.78083575 0.2747609 
0.8428362 0.51960015 -0.1401535 
0.67539877 0.19944943 0.7099694 
0.23863815 0.047325138 0.9699548 
0.12064648 -0.1841932 0.9754575 
0.091525376 -0.9931372 0.07281347 
-0.098600514 -0.5651704 0.8190606 
0.82419884 -0.45623842 0.33547384 
0.47289526 -0.7989191 0.37161604 
-0.23471938 -0.43476176 0.8694189 
-0.4684336 0.44046044 0.7658751 
-0.50203735 0.6314395 0.59096766 
0.13228835 0.6405631 0.75642496 
0.23126665 0.19669193 0.95280015 
-0.2878562 0.38098192 0.8786306 
0.05484248 0.5349444 0.8431054 
0.19749506 0.7795154 0.5944337 
0.26978 0.6407873 0.71875614 
-0.009275355 0.38525453 0.92276376 
0.3189151 0.29341742 0.90122104 
0.14072593 0.28127807 0.94925183 
-0.2202014 0.5695034 0.7919453 
-0.23905802 0.71445185 0.6575788 
-0.0019611632 0.45738688 0.8892658 
0.030808276 0.804058 0.59375226 
0.42014003 0.874681 0.24169323 
-0.3194542 0.924145 0.2095357 
-0.25135562 0.82053393 0.51336604 
0.084341265 0.5378472 0.8388129 
0.36596254 0.31171295 0.8768731 
0.20445834 -0.45056164 0.86901736 
0.25350916 0.27773112 0.926606 
0.27634996 0.6377185 0.7189895 
-0.17428352 0.40674827 0.8967614 
-0.4901026 0.4040307 0.7723721 
0.37983152 0.90939194 -0.16951236 
-0.003381184 0.9798505 0.19970372 
-0.20155576 0.82604903 0.52632535 
-0.5338285 0.80138916 0.2698196 
-0.20419471 0.841184 0.5007136 
0.07407228 0.5315677 0.84377074 
-0.078865916 0.78665954 0.61232924 
0.46474686 0.5922298 -0.6582357 
0.9208011 0.37537682 0.10591323 
0.2905868 0.112475656 0.950215 
-0.22089723 -0.11068289 0.9689963 
0.1488482 0.5607858 0.81447136 
0.2836921 -0.0046785497 0.958904 
0.788471 0.029852567 0.6143472 
0.71656835 -0.40079913 0.5708677 
-0.08999184 -0.57320404 0.8144561 
-0.16592643 0.20666155 0.9642403 
-0.39844778 0.41479096 0.8180391 
-0.79998714 0.31999835 0.50756454 
-0.5896145 0.79126346 0.16203967 
0.44941613 0.76340914 0.46393052 
0.4533357 0.89034796 0.04204091 
0.19404224 0.93097967 0.30923235 
0.24772896 0.5956596 0.7640811 
0.894704 0.4326374 0.11103927 
0.5526302 0.7468396 0.36990625 
0.36148363 0.4254084 0.829673 
0.63305706 0.56281173 0.53149015 
0.31774896 0.5347883 0.782967 
-0.1742181 0.62090194 0.76428336 
-0.9715424 0.22904404 0.06036727 
-0.7796167 0.17975831 0.5999041 
-0.64124286 0.76551455 -0.052868523 
-0.24431622 0.34308508 0.90697426 
-0.9998842 0.01012056 0.011364851 
-0.77673304 -0.16055673 0.6090217 
-0.33469972 -0.20451765 0.9198634 
-0.84069496 0.09715931 0.5327213 
-0.7411918 0.6450536 0.18585126 
-0.8462159 -0.2761328 0.45570767 
-0.9061148 0.21036299 -0.36701965 
-0.05539468 0.87645304 0.47829014 
0.5652893 0.8242783 0.031834185 
0.22494566 0.8318832 -0.50731647 
0.2074605 0.8244951 0.5264676 
0.15054917 0.52712095 0.83634824 
0.5829093 0.6982851 0.41546926 
0.7581447 0.4793635 0.44207174 
0.29695117 0.95043206 0.0921901 
0.415641 0.57594913 0.70393556 
0.1515084 0.63930327 0.7538811 
-0.16032402 0.26067033 0.95202273 
-0.2423954 0.4581609 0.85518014 
-0.2857612 0.3491997 0.8924126 
-0.14205535 0.7580121 0.6365831 
0.40220016 0.031193668 0.91502017 
-0.049017172 0.26372373 0.9633521 
-0.48652002 0.22518829 0.84414965 
-0.74113184 0.26114744 0.6184867 
-0.80733895 0.52879864 0.26187012 
-0.09208646 0.6406359 -0.76230305 
0.1522085 0.98105115 -0.11988026 
0.16019961 0.9870846 -0.00038441995 
-0.20291735 0.96411574 -0.17118834 
-0.019257955 0.8614431 -0.5074888 
-0.12388411 0.9900138 -0.06727211 
0.13928697 0.98742104 -0.07482508 
0.6128989 0.29494548 -0.7330499 
0.31099764 -0.36254373 -0.8785457 
-0.12013809 0.74623793 -0.65474874 
0.45525885 0.8373236 -0.30270252 
0.65050936 0.42761773 0.62767893 
0.6639816 0.6862382 0.2969942 
0.72698474 0.55730957 0.4011226 
0.35891932 0.6133498 0.7035475 
-0.03339393 0.41964164 0.90707535 
-0.52733636 0.5078164 0.6812041 
-0.5329914 0.7366207 0.41630545 
0.0034050336 0.7450358 0.66701585 
-0.21053475 0.7374943 0.64169884 
-0.37919837 0.31228667 0.8710256 
-0.8963108 0.21326686 0.38877267 
-0.013716449 0.98849136 -0.15065481 
-0.40611115 0.9138213 -0.0020897044 
-0.097392306 0.54632604 0.83189094 
-0.27952048 0.19508213 0.9401124 
0.43347472 0.06934043 0.8984941 
-0.044843256 -0.03032929 0.9985336 
-0.29347005 0.27153802 0.9165929 
-0.34376138 0.34020197 0.8752661 
0.11270216 0.5700868 0.8138177 
0.15181635 0.62184906 0.76828104 
-0.18143441 0.63679314 0.7493838 
-0.4106991 0.8423428 0.34897703 
0.182656 0.4506756 0.8738011 
0.01161749 0.19754736 0.9802245 
0.18529916 0.5800906 0.7931956 
0.39189085 0.33410633 0.8572017 
0.9808802 -0.19397646 0.015722644 
0.5316892 -0.057898033 0.84495825 
0.6378395 -0.37466553 0.6728941 
0.38950518 -0.3686829 0.84401345 
-0.44104496 -0.77992684 0.44406492 
-0.22004151 -0.057146356 0.9738152 
-0.094806865 0.43860668 0.89366436 
-0.09525462 0.781811 0.6161965 
-0.31295148 0.2091332 0.9264582 
-0.023621619 0.79825103 0.60186154 
0.315086 0.17782252 0.9322553 
0.31772673 0.59643126 0.7371021 
0.51711106 -0.3841609 0.7648639 
0.80951446 0.15279369 0.56686914 
0.2100994 -0.144833 0.96689284 
0.47344893 0.40736803 0.7809593 
-0.10543303 -0.022354783 0.9941751 
-0.19334106 0.6815074 0.70580935 
0.2923837 0.9276592 0.2322934 
0.26230848 0.8776201 0.4012196 
-0.042428974 0.94040066 -0.3374114 
-0.2697421 0.6579868 0.7030595 
-0.50552815 0.7613696 0.40590364 
-0.8979388 0.3990893 0.18556331 
0.18677177 -0.12737763 0.9741105 
0.101489015 0.18049684 0.97832555 
-0.006257145 0.20681572 0.97836 
0.1818993 0.8101028 0.5573564 
0.6533655 0.73806673 0.1684371 
0.44728225 0.7581027 0.47457233 
0.49263042 0.64314437 0.5862428 
-0.15288103 0.98126245 -0.11726728 
-0.64344937 0.39032865 0.6584957 
0.53836787 0.60978276 0.58165723 
0.054527976 0.79932356 0.59842163 
-0.4530663 0.8120602 0.3678171 
-0.1973723 0.48585653 0.8514622 
-0.36217207 0.67677575 0.64094156 
-0.83702177 0.5205754 -0.16851068 
-0.6848448 0.5793216 -0.44201154 
0.12695095 0.9690526 -0.21170898 
0.4325 0.73947924 0.51586264 
-0.48590377 0.5314394 0.6938802 
-0.46745172 0.27499354 0.8401592 
-0.40555653 0.6362186 0.6563154 
-0.5458904 0.24786128 0.8003553 
-0.34110063 -0.31886268 0.8842947 
-0.7651313 -0.16677725 0.62189996 
-0.5750946 0.61117387 0.54381317 
0.2393508 0.63835317 0.7315849 
-0.11280209 0.8138891 0.5699652 
-0.48578802 0.7986542 0.35519204 
0.5987135 0.35842413 0.7162921 
0.6784094 0.35221803 0.6447505 
0.3913896 0.6016262 0.6963189 
-0.18079321 0.22809835 0.9567053 
-0.026622362 0.6096278 0.7922407 
0.26094264 0.41940272 0.86948854 
0.032397624 0.35280505 0.9351358 
-0.81764334 0.01421256 0.57554954 
-0.37930593 0.8466602 0.37322062 
0.21282926 0.85153526 0.47915697 
-0.32646987 0.8465803 0.42038 
-0.2861689 0.9266075 -0.24393821 
0.04593048 0.2927226 0.9550937 
-0.90301573 0.41769004 0.100487 
-0.7801173 0.5942193 0.19575644 
0.4238913 0.11687701 0.89814025 
0.4403937 0.8064412 0.394596 
0.14214776 0.98118114 0.1306814 
-0.061696634 0.902029 0.42724392 
0.58376646 0.79160446 0.18049654 
-0.29096758 0.109536126 0.95044196 
-0.39383626 0.68606097 0.61172986 
0.0979584 0.44778058 0.8887613 
-0.6160823 -0.18088149 0.7666319 
-0.72509986 -0.1817459 0.66422796 
-0.905634 0.041741014 0.42200106 
-0.8899364 0.33675742 0.3075838 
-0.7128141 -0.031196015 0.700659 
0.32163975 0.7745021 -0.5446966 
0.5334584 0.5781562 0.61737967 
0.78150314 0.5365084 0.31845185 
0.69607174 -0.20014854 0.6895106 
0.46834925 -0.16923568 0.86718416 
0.53992873 0.13573678 0.8306941 
-0.2591001 0.35178235 0.899509 
-0.27352157 0.5575672 0.783776 
-0.26680094 0.5470409 0.79345036 
-0.10740107 0.537954 0.8361044 
0.008597623 0.9838977 -0.17852603 
-0.42058542 0.78369975 0.4570808 
-0.32864323 0.8471201 0.4175896 
0.09549769 0.98674035 0.1312392 
0.67545694 0.36513084 0.640654 
0.52806467 0.08310308 0.84512824 
0.22107597 -0.009436985 0.9752109 
0.03128543 0.16943486 0.9850448 
-0.34308612 0.6554751 0.6727885 
0.11216597 0.7381362 0.6652623 
0.04063406 0.67336565 0.73819214 
0.18930516 0.6963019 0.69233465 
0.6903533 0.22165051 0.6886824 
0.47612035 -0.4024974 0.7818601 
0.46192476 -0.532508 0.7092678 
0.39272523 -0.79399556 0.46404532 
0.47531047 -0.01021293 0.8797589 
0.2334347 -0.592318 0.77114695 
-0.65994066 -0.5525604 0.509073 
-0.8792282 -0.4558254 -0.13849542 
0.1425055 0.6776413 0.72145313 
0.49576378 0.8590041 0.12779059 
0.16367482 0.3241607 0.9317352 
0.42784852 0.5974938 0.67819387 
-0.6967542 0.66726196 0.26323962 
-0.544408 0.07221414 0.8357063 
0.13223746 -0.49659386 0.8578507 
-0.47961992 0.52528316 0.7028815 
0.10264765 0.08087465 0.9914246 
0.7610639 0.30797705 0.57090443 
0.39654905 -0.023700245 0.9177076 
0.5040119 0.54952633 0.6663279 
-0.21309777 0.67820334 0.70329905 
-0.4571653 0.8647889 0.20770189 
-0.25554267 0.5812121 0.7725868 
-0.29881042 -0.60637516 0.7368999 
0.6114442 -0.5775803 0.5408669 
0.24887553 -0.6425723 0.7246806 
-0.19643931 -0.4989416 0.84407866 
0.10081955 -0.91838866 0.38261977 
-0.0025291264 -0.9963132 -0.085753284 
0.29384398 -0.92551404 0.2389132 
-0.122103676 -0.89138424 0.4364915 
-0.28423807 -0.28522146 0.9153456 
0.2660282 0.050199106 0.9626573 
0.54335546 -0.06122728 0.83726704 
0.17471938 0.19973151 0.9641475 
0.4570063 0.0033878249 0.88945705 
-0.08059165 -0.17443335 0.98136544 
-0.30021894 0.59754366 0.74351203 
-0.048047252 0.3528045 0.9344627 
-0.38752273 0.16996145 0.906057 
0.009658926 0.18372029 0.9829311 
-0.017903788 0.25307575 0.96728086 
-0.002450356 0.14721164 0.98910207 
0.10046121 0.17463984 0.9794941 
-0.14740124 0.10590983 0.98339003 
-0.349541 0.36794293 0.86164904 
-0.0007342494 0.0775929 0.99698484 
0.4154039 0.77929497 0.46918973 
0.71752834 0.17038378 0.6753685 
0.6297332 0.30876094 0.7128133 
0.46444708 -0.42956853 0.77444166 
0.9097438 0.10210672 0.4024184 
0.39006555 0.6500144 0.65217346 
-0.16930181 0.3984993 0.90140736 
0.6189128 0.5404965 0.56992143 
0.77520823 0.5554963 0.3007925 
0.54016906 0.8409019 -0.03318721 
0.2137851 0.91065514 -0.35355785 
0.38681865 0.9119685 0.13669232 
0.03952679 0.8716423 0.4885461 
-0.22577077 0.72780997 0.64754945 
-0.5069872 0.81245166 0.2878998 
-0.38244706 0.6323014 0.6737428 
0.6708221 0.7336624 -0.108338855 
0.8810885 0.36657798 0.29883713 
0.7614684 0.070716195 0.64433306 
0.44801402 -0.19304074 0.87293684 
0.37929943 -0.20955881 0.90123093 
0.7906385 -0.18728293 0.58293736 
0.32379845 -0.3972553 0.8586866 
0.66446275 -0.4276331 0.6128778 
0.17429021 -0.5278076 0.8312894 
0.0155091705 0.3921099 0.91978776 
-0.25082102 -0.056420974 0.9663879 
-0.3878957 -0.13422772 0.9118771 
-0.7090703 0.62864274 0.31941783 
0.01333575 0.43707162 0.89932793 
-0.1081907 0.7450654 0.65815836 
0.25555432 0.41806433 0.8717307 
0.6720129 -0.18458028 0.71716726 
0.103702456 0.34332502 0.93347406 
0.8208112 0.31599325 0.4758333 
0.80707955 0.45610327 0.3749566 