# OOMMF: rectangular mesh v1.0
# Segment count: 1
# Begin: Segment
# Begin: Header
# Desc: Time (s) :  2.2299999999999957e-07
# Title: m
# meshtype: rectangular
# meshunit: m
# xbase: 2e-09
# ybase: 2e-09
# zbase: 5e-10
# xstepsize: 4e-09
# ystepsize: 4e-09
# zstepsize: 1e-09
# xmin: 0
# ymin: 0
# zmin: 0
# xmax: 1.024e-06
# ymax: 1.024e-06
# zmax: 1e-09
# xnodes: 256
# ynodes: 256
# znodes: 1
# ValueRangeMinMag: 1e-08
# ValueRangeMaxMag: 1
# valueunit: 
# valuemultiplier: 1
# End: Header
# Begin: Data Text
-0.3731948 0.77321297 -0.512706 
0.14122023 0.7989024 0.5846467 
-0.2580166 0.327856 0.9088113 
0.093045875 0.7756435 0.6242754 
-0.72797847 0.24839835 0.63901925 
-0.9931929 -0.004166034 -0.116406344 
-0.4621698 0.8559854 0.23170684 
-0.5206793 0.67913735 -0.517364 
-0.1091118 0.81873107 -0.5637146 
0.9244236 0.38068578 -0.022791497 
0.072318085 0.9972506 -0.016168157 
0.55467397 0.8264873 -0.09620569 
0.4317111 0.8897083 -0.14847454 
-0.019677432 0.99393797 0.10816734 
0.009190881 0.880419 0.4741075 
-0.21972582 0.78397554 0.58060575 
-0.39655507 0.91520095 0.07177348 
-0.20960395 0.734452 0.6454816 
-0.25502324 0.7745197 0.5788632 
-0.48742494 0.82205313 0.29435638 
0.31563857 0.72797763 0.60862213 
0.43220788 0.65906805 0.6154883 
0.94054466 -0.1750856 0.29106846 
0.784919 0.5113008 0.34996235 
0.77646065 0.27689317 0.56607336 
0.71368134 -0.55121243 0.43223122 
0.4963659 0.45521918 0.7391864 
0.7780448 0.5010743 0.37890747 
0.7028683 0.6106832 0.3647496 
0.19141588 0.41687092 0.88858235 
-0.6141924 0.18204111 0.76787287 
-0.6611536 0.6009537 0.44914433 
0.21611877 0.95692015 0.19389819 
-0.05914791 0.70565176 -0.7060858 
-0.62442386 0.61699 -0.47897634 
0.16545914 0.9580089 0.23418443 
-0.28113186 0.8393765 0.46520096 
0.1887855 0.8585835 0.476649 
-0.73975796 0.17240544 0.6504111 
-0.5821271 0.53833795 0.6093607 
-0.14264265 0.61385465 0.7764249 
-0.7846313 -0.33026505 -0.52467006 
-0.9740048 -0.22306263 0.039469875 
-0.9063207 0.30933335 0.2879164 
-0.32849202 0.9275335 -0.17825444 
-0.62013996 0.656226 -0.4298768 
0.24912462 0.47554862 -0.8436767 
0.7974501 -0.5706749 0.19596808 
0.36685523 0.8559864 -0.36428636 
0.95412177 0.1566221 0.25518876 
0.7163272 -0.1541824 0.6805169 
-0.07615832 0.8069784 0.5856501 
-0.34704965 0.90152746 0.25846642 
-0.10117832 0.9717259 0.21333542 
0.34523964 0.7799314 0.52203107 
0.31577522 0.63542306 -0.7046444 
0.5403345 0.8298426 -0.13928354 
0.5943967 0.45299283 0.66444725 
0.9057422 0.2856937 0.31306586 
-0.0056420183 0.8058602 0.592079 
-0.83756965 0.53382844 0.11620779 
0.0688234 0.52257675 -0.84981 
0.1499385 0.8043028 -0.57499176 
-0.09445588 0.99095184 -0.0953545 
-0.26336616 0.96334976 0.05094683 
-0.6782944 0.67645955 0.28691313 
-0.20556155 0.921807 -0.32865852 
-0.33097044 0.36715838 -0.86928326 
0.030998087 -0.523012 -0.85176146 
0.9153475 -0.3008843 -0.26759604 
0.26687178 -0.01645242 0.96359164 
0.28214747 0.6598743 0.6963898 
-0.05842317 0.7499204 0.65894324 
-0.66510195 0.6754985 -0.31834137 
-0.4467412 0.8654088 -0.22691387 
0.15274729 0.7610765 -0.6304212 
-0.17488757 0.6789166 -0.7130825 
-0.7911114 0.010318069 -0.611585 
-0.50658923 0.8043329 0.31050926 
-0.26376864 0.89246595 0.36596534 
-0.13854572 0.5728448 0.80787003 
0.25065222 0.9427742 -0.21988694 
0.76714915 0.20403747 0.60815364 
0.4658557 0.45617834 0.7582083 
0.4555042 0.88616574 0.085007824 
0.7212978 0.6896808 0.063796796 
0.68463594 0.71167314 -0.15746462 
0.5578896 0.7208723 0.41122055 
0.06664795 0.94798094 -0.3112719 
-0.29585758 0.9364286 0.18859956 
-0.2792141 0.8123153 0.5120384 
0.96207136 0.17800003 0.20672354 
0.44062918 0.481833 0.75741863 
0.15260753 0.6184006 0.7709033 
-0.25551325 0.76800793 0.5872622 
-0.6146386 0.47900587 0.62671596 
-0.36320418 0.5059227 0.7823842 
-0.3600278 0.5817348 0.7293591 
-0.15165293 0.5435539 0.82556075 
-0.8650355 0.008467775 0.5016393 
-0.9472425 0.22668563 0.22659518 
-0.5557467 0.09365 -0.8260601 
-0.35894927 0.66457176 -0.6553624 
-0.50413865 0.7638507 -0.40295956 
-0.7347179 0.6220651 -0.27060053 
-0.92681867 0.29782692 0.22870588 
-0.99873257 -0.026719531 -0.04265329 
-0.3818018 0.21156949 -0.8997031 
-0.01707901 -0.19421756 -0.9808098 
0.17917395 -0.5141196 -0.8387955 
0.36915773 -0.4048104 -0.83657116 
0.7847892 -0.4453186 -0.43104213 
0.5303761 -0.33319396 -0.7795403 
0.86859185 0.22388315 -0.44206864 
0.22492118 0.6154803 0.7553771 
-0.6310545 0.49421784 0.5979289 
-0.6173343 0.06076195 0.784351 
-0.9536164 0.11215566 -0.27935076 
-0.91581583 -0.08443346 -0.39262238 
-0.8175191 -0.54841775 -0.17578588 
-0.33466035 0.32881212 -0.88311106 
-0.37934026 0.30872342 -0.8722332 
-0.12548286 -0.11645154 -0.9852376 
0.0997603 0.5835519 -0.8059251 
0.009321857 -0.68896663 -0.7247332 
0.9397777 -0.031443764 -0.34033716 
0.7650609 -0.4534761 0.4572104 
0.90541834 -0.4242759 -0.014407869 
0.92016596 -0.36329186 -0.14599214 
0.9543798 0.29726058 0.028203586 
0.13933633 0.7236534 0.6759521 
-0.1100619 0.79089653 0.6019711 
-0.6185851 0.30301788 0.7249363 
-0.57731134 0.77864856 -0.2458012 
-0.82042557 0.25893226 0.50976086 
-0.90632373 0.24879159 -0.34158465 
-0.13507625 0.7477698 -0.650073 
-0.33671272 0.59331334 -0.7311662 
0.3524955 -0.28295663 -0.89201045 
0.74972194 -0.33976957 -0.56786776 
0.68196315 0.6458648 -0.34319812 
0.58702546 0.3241175 -0.74185514 
0.4774593 0.8688817 0.13067973 
0.6352273 0.7328445 -0.24377315 
0.50278765 0.79738724 0.33373377 
0.49914718 0.46846774 0.72896516 
-0.05514777 0.4280858 0.902054 
-0.30490854 0.7898443 0.5321436 
-0.99745816 0.07010592 -0.012745386 
-0.76459974 0.23056851 -0.6018516 
-0.51084816 0.47290996 -0.71790695 
0.3524385 0.47474205 -0.80647826 
-0.3255065 0.81787354 -0.47447708 
0.009048929 0.8789674 0.47679618 
-0.2132632 0.9698243 -0.11815111 
0.18936478 0.9409712 -0.2805608 
0.08606387 0.9439102 0.31878954 
0.30582175 0.6615143 0.68474233 
0.5329591 0.5542258 0.6393656 
-0.8091515 0.028768342 0.5868955 
-0.82104737 -0.11424864 0.55931073 
-0.80009097 0.5601855 -0.21458472 
-0.46025565 0.8408684 -0.28478953 
-0.65356064 -0.20705195 0.72800285 
-0.74176127 -0.66320044 0.09977753 
-0.92065215 0.27520382 0.27687997 
-0.75793666 0.62700313 -0.17999735 
-0.52515393 0.81264335 0.25263464 
-0.1879262 0.97567 -0.1129246 
0.25711817 0.9456692 0.19899754 
-0.3549391 0.6660647 0.65603065 
0.12644757 0.20246194 0.9710923 
0.54942465 0.7903146 -0.2711744 
-0.10479221 0.83003706 -0.54777473 
-0.19992305 0.97591674 -0.08727775 
0.46660757 0.7494362 0.4697049 
0.38225007 0.91007376 0.1601583 
0.44524115 0.8214597 0.35632062 
0.62569255 0.124624334 0.7700505 
-0.23365314 -0.028668864 0.97189724 
0.25089493 -0.20099464 0.94691753 
-0.19470361 0.14341964 0.9703202 
-0.31896588 0.7062713 0.6320139 
-0.40054807 0.18113917 0.89819264 
-0.69183284 0.57898474 0.43144426 
-0.51902527 0.5616641 0.64431846 
-0.9163089 -0.19172218 0.35159755 
-0.8636314 0.47963333 0.1552178 
-0.5311429 -0.10878099 -0.84027016 
-0.33356512 0.022230178 -0.942465 
0.4547554 0.4197883 -0.78547776 
0.47162253 0.8336614 -0.28736904 
0.6242984 0.26561844 -0.7346417 
0.5283012 0.17213808 0.83142436 
-0.8091954 -0.28802043 0.5121008 
-0.5968639 0.6301707 0.496627 
-0.09111744 0.9132993 0.39696595 
-0.5051387 0.774989 0.37977237 
-0.23880883 0.7930523 -0.56039125 
-0.64097863 0.58520347 -0.49667233 
0.35211366 0.8910373 -0.28647625 
0.14837196 0.33123338 -0.93181026 
-0.136586 -0.41074017 -0.9014637 
-0.62909675 -0.33993262 -0.6990588 
-0.25715238 -0.094082385 -0.96178025 
-0.120165944 0.06367109 -0.99070996 
0.60348886 0.4391872 -0.6655193 
0.9753977 -0.01913127 -0.21962108 
-0.16917725 0.60449797 0.7784352 
-0.03073221 0.8032488 -0.59485036 
-0.3933784 0.8876881 0.23929758 
-0.9964702 0.06103646 0.057633385 
0.15364085 0.6444305 -0.7490687 
-0.57334924 -0.5267646 -0.6275268 
0.21637131 0.21270548 -0.95285887 
0.65384245 0.7060315 -0.27204713 
0.26556927 0.84334666 0.46716118 
-0.3770726 0.6011184 0.70460844 
-0.2965322 0.8722717 0.38885805 
-0.76236695 0.45230043 -0.46284005 
-0.9016859 0.40108696 0.16152935 
-0.7821138 0.4696389 0.40955764 
-0.0068218047 0.84397507 -0.53633916 
0.31361318 -0.19383769 -0.92955565 
0.80714536 0.4307988 -0.40364462 
0.13250901 0.95422065 0.26815 
-0.39384654 0.908274 0.14114977 
-0.77958953 0.14065841 -0.61029124 
-0.8312879 0.4139622 -0.37093925 
-0.20708595 0.86019254 -0.46603042 
0.5523676 0.79991996 0.23455955 
0.395635 0.9082903 0.1359471 
0.8536944 0.46785834 -0.22872409 
0.64760536 0.37491947 0.6633572 
0.61501276 -0.75971365 -0.21117416 
0.91845757 0.13640039 0.37125555 
0.43556926 0.55232066 0.7107893 
0.44148165 0.64201534 -0.62682563 
0.27403703 0.95585275 0.10606229 
-0.47819933 0.604894 0.6367329 
-0.43889585 0.6686924 0.6001841 
0.6423088 -0.025307842 0.766028 
0.53205866 -0.06530225 0.84418553 
-0.598034 0.27726766 0.75198275 
-0.8422011 0.5349294 0.06743777 
-0.9981116 0.004251427 -0.061279617 
-0.9491311 0.26802567 -0.16526517 
-0.23921718 0.13041253 -0.9621683 
0.12248472 0.9795213 -0.15979889 
-0.06373446 0.8958797 -0.43970186 
-0.113961 0.9934846 -0.0011765452 
0.8984985 -0.059766714 0.4348892 
-0.5576488 -0.17384212 -0.8116692 
-0.3660828 -0.35917488 -0.8584736 
0.2813175 -0.15453087 -0.9470906 
0.013733273 -0.19346555 -0.981011 
-0.664813 0.7455532 -0.046628125 
-0.20442234 0.5335248 0.82070875 
-0.19560012 0.2513994 0.947913 
-0.18448049 0.109263614 0.97674376 
-0.72397935 -0.103179164 0.6820617 
-0.82173896 0.5639272 -0.08204547 
-0.29549605 0.33320424 -0.895353 
0.50841683 0.81239253 -0.28553578 
0.526233 0.70040673 -0.48219222 
0.55227745 0.6728519 0.49219918 
0.65540075 0.50662374 0.56016284 
0.4292416 0.8940025 0.1284966 
0.8048625 0.508768 0.3055348 
0.46519342 0.8335572 0.2979554 
0.45255226 0.7925169 0.40879497 
-0.3328907 0.7390635 0.5856355 
-0.20904043 0.4317534 0.87743443 
-0.5457558 0.52050436 0.65667796 
-0.67873824 0.7319478 0.059723333 
-0.13743007 0.5786407 0.80392045 
0.39943284 0.55127144 0.732498 
0.59381294 0.48451716 0.6423623 
-0.46883175 0.84692854 -0.2508164 
-0.35029206 0.84066623 0.4130082 
0.8264268 0.008885996 0.56297415 
0.8921254 -0.059723448 0.447823 
0.73908234 -0.21847439 0.63720196 
0.14376734 0.46088737 0.87573624 
0.7420618 0.32172748 0.588078 
0.40375367 0.4501328 0.7964694 
0.15505017 0.6525451 0.74171716 
0.021584421 0.8927002 0.45013398 
0.11452943 0.9394967 0.32284537 
-0.14884037 0.8512157 0.5032679 
-0.33948314 0.78355306 -0.5203806 
0.18058994 0.9642771 -0.19379641 
0.29669288 0.7243721 0.6223009 
0.112483785 0.25306228 0.9608886 
0.00092504907 -0.4175841 0.90863794 
-0.32939646 0.38314894 0.862957 
-0.35530335 -0.2860481 0.8899079 
-0.99877256 -0.04935633 -0.004188723 
-0.90044487 0.41862562 -0.11811799 
-0.77807313 -0.16766311 -0.6053853 
0.07744745 0.57678473 -0.8132166 
-0.3390823 0.6930747 -0.6361373 
0.20561625 0.35567966 -0.91170937 
0.6289348 -0.61480355 -0.47587577 
0.98211235 -0.01699987 -0.18752702 
0.81033874 -0.10725024 0.57606304 
0.23584326 0.5150412 0.8240817 
-0.21943331 0.45602924 0.86248857 
-0.15157369 0.7441884 0.6505452 
-0.33012214 0.8725117 0.36019847 
-0.352106 0.85419923 0.382577 
0.025799092 0.97626513 0.2150368 
0.7518179 0.6293717 0.19662468 
0.28685892 0.9563161 0.05631668 
0.25988904 0.83218396 -0.48982394 
0.068624444 0.93753165 -0.3410648 
-0.64590365 0.6411116 -0.41446882 
-0.6303394 0.7605074 -0.15588732 
0.006381664 0.58214414 -0.81306064 
0.18860488 0.388699 0.9018544 
-0.17254415 0.6314547 0.75597197 
-0.53994983 0.24556729 0.80507827 
-0.56969786 0.10554489 0.8150489 
0.12866502 0.9429477 0.3070749 
0.86218166 0.4442878 -0.24341547 
0.75231165 0.31243953 -0.58000755 
0.88952637 -0.1339102 0.43681902 
0.8616151 0.31386483 0.39888373 
0.36530063 0.7727208 0.51909345 
-0.12682061 0.9751775 0.18150865 
0.0113119865 0.96298796 0.26930714 
0.09355952 0.9954164 -0.019822584 
0.19576627 0.96464604 0.176447 
0.57157767 0.7778508 0.26124167 
-0.05916301 0.9799255 -0.19038318 
0.67413837 0.49155647 0.5512801 
0.59463155 0.5577967 0.57903033 
-0.15153731 0.89469886 0.42017916 
0.68837345 0.31483427 0.65346885 
0.013767091 0.84724534 0.5310234 
0.6235761 0.5257766 0.5785428 
0.528994 0.76030767 0.37695813 
0.42256045 0.33558866 0.84191626 
0.9858847 -0.11787305 -0.118900955 
0.54393435 0.6560371 0.5232121 
0.22422443 0.7942969 0.56463784 
0.040766235 0.722937 0.6897103 
0.30800587 0.26374996 0.91409427 
0.70275736 0.5100778 0.49593636 
0.4750368 0.27636918 0.8354401 
0.1390043 0.51960653 0.84302247 
-0.15525441 -0.12885013 0.9794354 
0.39077947 0.9021286 0.1829081 
-0.7070484 0.6771446 0.2038573 
-0.9469297 -0.0857195 0.30980045 
-0.81812817 0.28633374 0.49867767 
-0.8738555 0.38269097 -0.2998736 
-0.80724895 0.46056905 -0.36908725 
-0.061736327 0.6567765 -0.751554 
-0.69126266 0.51838505 -0.50342125 
-0.72294253 0.61065346 -0.3231972 
-0.59601784 -0.32265145 -0.73529506 
-0.8075119 -0.24392544 -0.5370521 
-0.08912514 0.009042637 -0.99597937 
0.14616144 0.20264903 -0.96828216 
0.71861136 0.077989556 -0.69102496 
0.61215186 -0.21269095 -0.7615988 
0.39815107 -0.42934027 -0.81064343 
0.4689276 -0.503959 -0.7253497 
0.6104132 0.48523107 -0.6260564 
0.73979235 0.5834433 0.3351138 
0.7447936 0.26533726 0.61227334 
-0.34308857 0.17329295 0.92317927 
-0.22531953 0.78015244 0.58360374 
-0.77459466 0.3929834 -0.49554747 
-0.80456555 0.37094042 -0.46376467 
-0.48491696 0.8742911 0.02169213 
-0.19584398 0.7815867 -0.59225607 
0.12994303 0.41237453 -0.90169966 
0.21286398 0.3604022 -0.90818465 
0.3940431 0.0766608 -0.9158893 
0.8665589 0.26207793 -0.42472443 
0.8665163 -0.41390324 0.2789868 
0.9249113 -0.25110337 0.28545803 
0.9650288 0.21593049 0.14863864 
0.9712148 0.2194377 -0.09267769 
0.047702704 0.38223228 0.9228342 
0.60184574 0.5848697 0.5437916 
-0.1756983 0.98423564 -0.020256927 
-0.60561293 0.7534465 0.25602987 
0.1652433 0.65000516 0.7417466 
-0.13181068 0.9593126 -0.24969022 
0.115803845 0.77746695 -0.61817044 
0.017200116 0.5883875 -0.8083962 
-0.043920316 0.39205706 -0.91889185 
0.5644981 0.071842335 -0.822302 
0.9587468 0.27423823 -0.074820675 
0.9060481 0.045975562 -0.42066988 
0.9154813 0.27925998 -0.2896683 
-0.24643478 0.833018 0.4953292 
0.51890457 0.7126926 0.47202465 
-0.20188296 0.4112958 0.88886404 
-0.31278893 -0.16490625 0.93539786 
-0.6010662 0.7914796 -0.11081296 
-0.78435844 0.6055716 -0.13440563 
-0.9891045 -0.06697873 -0.13109569 
-0.64039874 0.5088034 0.5753335 
-0.9333482 0.34516978 -0.09858588 
-0.49181235 0.7150882 -0.49675894 
0.36521286 0.90731657 0.20831792 
-0.17867666 0.9583658 0.22273245 
0.37939578 0.77248955 0.5092338 
-0.027876377 0.65096396 0.7585967 
0.57219386 0.67845803 0.4607483 
0.39463562 -0.15406837 0.9058287 
0.57961607 0.0413609 0.8138395 
-0.45464924 0.4510514 0.7680149 
-0.63535285 0.76474446 -0.10720458 
-0.61471355 0.72841716 0.30254892 
-0.84076786 0.3097193 0.44405362 
-0.72594506 0.6839849 0.071893275 
-0.8272451 0.41192943 0.38207287 
-0.88137174 0.4723637 -0.0075154067 
-0.18229601 0.7113087 0.67882854 
0.18806091 0.95471644 0.23054212 
-0.12772289 0.24538602 0.9609749 
-0.734197 -0.2913152 0.613262 
-0.4412536 0.36513183 0.8197403 
0.6958182 0.5117263 0.50395757 
0.64983034 0.17704429 0.7391724 
-0.08018399 0.727073 0.6818617 
0.034320746 0.034176316 0.9988263 
0.75168604 0.45749563 0.47504312 
0.3250795 0.55006087 0.76925695 
0.06612558 0.24393137 0.96753556 
-0.031188319 0.42533562 0.90449816 
-0.23941028 -0.67739195 0.6955738 
-0.1969088 -0.13751721 0.97072965 
-0.15142778 -0.0049735177 0.9884559 
-0.2554392 0.33734986 0.9060607 
-0.3422557 0.39119822 0.854298 
-0.8455138 0.23400849 0.47994432 
-0.94503856 0.12353908 0.3027217 
-0.9784545 0.15385918 -0.13767414 
-0.9215545 0.25562033 -0.2922252 
-0.22385663 0.7990956 -0.55797344 
0.2853315 0.3825098 -0.87879026 
0.45970905 0.7458202 -0.48209944 
0.86923057 0.21929419 -0.4431122 
0.92952836 0.28052172 0.23934244 
-0.22762604 0.19002992 0.95502615 
-0.27997792 0.4314314 0.857601 
-0.54220337 0.53113395 0.65108556 
-0.18127477 0.97961456 -0.086573154 
-0.4056206 0.8604693 -0.30832523 
-0.5130605 0.8335127 -0.20500095 
-0.9225564 0.3842576 -0.03515559 
-0.6885229 0.36379293 -0.6273684 
-0.9250137 0.14980447 -0.3491536 
-0.7834226 -0.081809476 -0.6160815 
-0.23072396 -0.4329955 -0.8713675 
0.1774139 -0.16301295 -0.97054166 
-0.60895497 0.20827457 -0.7653728 
0.47949216 0.46374524 -0.74500185 
0.69964087 0.6253358 0.34562662 
-0.43050268 0.72093034 0.5430718 
-0.17093423 0.74754125 0.641844 
-0.115346394 0.9341554 0.33771157 
-0.03903437 0.8418044 -0.53836954 
-0.04691726 0.8720785 -0.48711193 
0.76742357 0.35246924 -0.53556186 
0.4010769 0.80693334 0.4335849 
0.7461737 0.6630552 -0.05985627 
0.3813986 0.5916609 0.7102623 
-0.57288367 0.3124113 0.7577622 
-0.40693727 0.46985015 0.7833536 
-0.9451759 0.15861192 0.2854553 
-0.8356584 0.061534565 -0.5457918 
-0.38052246 0.6205483 -0.6856548 
0.10136568 0.73369867 -0.6718715 
0.2781413 0.7649074 -0.58099395 
0.30250207 0.9360101 -0.1799378 
-0.6156646 0.07167619 0.7847418 
-0.5455973 0.7300439 0.41153324 
-0.52828246 0.067004494 0.8464208 
-0.3697246 0.15985493 0.915287 
0.12117254 0.8909238 0.4376894 
0.14774604 0.907392 -0.3934603 
0.8609561 0.47602552 0.17931654 
0.9556616 0.28194913 0.08494496 
0.99459064 0.060997874 0.08407568 
0.89975137 0.12358118 0.4185394 
0.37721848 0.07490694 0.9230901 
0.37552527 0.31122252 0.8729956 
0.17205559 0.33235034 0.9273296 
-0.23113954 0.5524276 0.80087346 
-0.058312807 0.039023913 0.9975354 
-0.21293817 0.5471266 0.8095122 
0.1831573 0.3264847 0.927287 
-0.6323846 -0.05247846 0.772875 
-0.66718346 0.58584654 0.4600544 
-0.8389172 0.36262336 0.40586007 
-0.9866773 0.091670915 -0.13440384 
-0.4194155 0.8453982 -0.33074552 
-0.12182019 0.95271176 0.27838838 
-0.13686737 0.86758846 -0.47807705 
-0.20873906 0.97698975 -0.043806523 
0.40068302 0.7070361 0.58271194 
-0.37332344 0.6275436 -0.68324125 
-0.27147192 0.30545026 -0.91269004 
0.030031037 0.34181008 -0.9392891 
-0.032600265 0.046590663 -0.99838203 
-0.1834823 0.7815144 0.59629637 
-0.2019183 0.39722487 0.8952327 
-0.6442991 0.5197782 0.5609896 
0.28062558 0.19076158 0.9406696 
-0.570603 0.041507438 0.82017654 
-0.9673932 -0.18390052 -0.17415787 
-0.35466805 0.7480426 -0.5609305 
0.5558427 0.8000247 0.22583051 
0.437397 0.601343 0.6686334 
0.6781546 0.5958825 0.43015164 
0.93932617 0.3371496 0.06321803 
0.560414 0.8231023 0.0918626 
0.6685594 0.7140415 0.20778167 
0.60210913 0.4709644 0.6447148 
-0.2175191 0.7684614 0.6017913 
-0.10077812 0.7008734 0.70613056 
-0.14748915 0.62227505 0.7687788 
0.24104674 0.288795 0.92654943 
-0.5148542 0.6098457 0.602506 
0.4120666 -0.23966187 0.8790696 
0.6594228 0.7026994 0.26716137 
0.73987204 0.6136709 0.27567652 
0.61280394 0.6668102 0.4240701 
0.24751455 0.7522047 0.6106757 
0.25417972 0.21387373 0.943213 
0.2793332 0.6685984 0.6891656 
0.24468791 0.52296 0.81648064 
0.54674953 0.46200174 0.69829756 
0.2691158 0.32785976 0.9055853 
0.31697634 0.025311364 0.9480957 
-0.19307062 0.7718595 0.60576946 
-0.41457525 0.62060446 0.6655656 
0.012735646 0.9059868 0.42311445 
-0.61540926 0.7458416 0.25493488 
0.06345359 0.96626306 0.24961844 
0.411123 0.6416083 0.6475467 
0.29623708 0.60773784 0.73681647 
0.59309477 0.39236933 0.7030541 
0.08916908 0.15713786 0.9835429 
0.21727258 0.21451052 0.95224893 
-0.2494889 -0.0029427211 0.9683732 
-0.6409861 -0.25905856 0.7225133 
-0.14152125 0.9796059 -0.1426327 
-0.16032548 0.9704532 -0.180323 
-0.18863365 0.94094557 -0.28113866 
-0.41383773 0.5908965 -0.69251704 
0.1048156 0.94102085 -0.3217043 
0.5736866 0.54826397 -0.60851496 
0.65177304 -0.20504385 -0.7301705 
0.948987 0.31203654 -0.045352947 
0.35903436 0.6125974 0.704144 
0.5219366 0.20738296 0.8273902 
0.47023785 -0.39985952 0.7867584 
0.030009875 0.14418107 0.9890962 
-0.4383669 0.7740102 0.45688373 
0.3396064 0.8845024 0.31987956 
-0.001030999 0.9370004 0.34932667 
0.32756668 0.8799146 0.34416646 
-0.22724302 0.9493065 0.21720445 
-0.16777349 0.653456 0.73813784 
0.37531155 0.5838329 0.71991694 
-0.17628051 0.743629 0.6449351 
-0.5883655 0.72418004 -0.35970744 
-0.6297174 0.65896034 0.41137248 
-0.64058656 0.767769 -0.013402355 
-0.8711724 0.487894 0.054937318 
-0.115494244 0.5733821 0.81110674 
-0.37871134 0.88958615 -0.25537086 
-0.097282864 0.65707207 -0.7475242 
0.0040569906 0.47294474 -0.88108283 
0.43236992 0.46669248 -0.77152735 
0.83474606 0.4722473 0.28316352 
0.6172117 0.736449 0.27693427 
0.45218647 0.6782903 0.57918024 
0.13911974 0.95635796 -0.25695384 
-0.24000897 0.8121139 0.53185225 
-0.05588412 0.88640195 0.4595309 
-0.26492912 0.6290981 0.730786 
-0.28335115 0.938677 -0.19646297 
-0.2852527 0.7820153 0.55415076 
-0.18377434 0.86463255 -0.467587 
-0.123819984 0.99102587 0.050364148 
-0.12658255 0.91534394 0.38225955 
0.38529977 0.87631416 0.28916717 
0.21101746 0.82554686 0.52339673 
-0.017696148 0.7914329 0.6109998 
0.52677184 0.67060393 0.52230436 
0.7146339 -0.57713693 0.39523607 
-0.4144234 0.060958315 0.9080404 
0.69004124 0.3936244 0.6073739 
-0.18346503 0.14803812 0.97181547 
0.39998436 0.23118192 0.88688636 
0.2511342 0.50462824 0.8260036 
0.43611997 0.8532765 0.28586465 
-0.0031045345 0.34701443 0.93785465 
-0.35905927 -0.031257603 0.9327912 
-0.56695503 0.7014619 -0.43187186 
-0.8537164 0.2423207 0.46092215 
-0.88461447 -0.15579592 0.43952817 
-0.52863705 0.45977035 0.71355045 
-0.42365342 0.9044504 -0.04987297 
-0.8180858 0.54167956 -0.19318104 
-0.736134 0.24175875 -0.63218635 
-0.39283323 0.9151479 -0.09047833 
-0.83965737 0.5201481 -0.15627375 
0.1274203 0.3206974 -0.93857193 
-0.8070981 0.3459423 -0.47845253 
-0.32189786 0.6109133 -0.72330266 
0.60523415 0.72190386 -0.33547965 
0.7148299 0.66576004 -0.21396697 
0.07207864 0.091781564 -0.9931671 
0.790312 0.21635075 -0.573236 
0.55363804 -0.68985724 -0.4664568 
0.8875146 -0.31083825 -0.34014335 
0.3530258 0.383717 0.85330784 
-0.3711483 0.61076313 0.6994408 
0.24118307 0.8376279 0.49011254 
-0.27595735 0.38630757 0.88012165 
-0.9617641 -0.16597204 0.21786052 
-0.9958181 0.06141817 -0.067633994 
-0.9619489 0.24831799 -0.11398537 
-0.32184342 0.942529 0.08975511 
-0.28382236 0.8932141 -0.34873143 
0.601802 0.39099178 -0.69639057 
0.33082068 0.59499115 -0.73249114 
0.5398118 0.6651382 -0.5159405 
0.9917602 0.12000539 -0.044837162 
0.8803498 0.12676536 -0.45707205 
0.95164937 -0.30008262 -0.06568052 
0.94289315 0.2495094 0.2206752 
0.8351049 0.12255051 0.53626597 
0.29274386 0.46702653 0.8343784 
-0.50734824 0.697393 0.5062024 
-0.4372072 0.66489273 0.60561347 
-0.0056149904 0.65599394 0.7547453 
0.4496129 0.8286413 -0.3334696 
-0.16876528 0.9698106 -0.17602773 
-0.2059545 0.96481264 0.16346037 
-0.6945884 0.28490552 -0.6605875 
-0.09606756 0.5613788 -0.8219641 
0.47897545 0.7413323 -0.47011605 
-0.09831296 0.50858647 -0.85537976 
0.5203189 0.8538352 -0.015285527 
0.7185101 0.54669684 0.4299603 
-0.24448773 0.4554298 0.856043 
0.33196276 0.7001597 0.6321212 
0.021256173 -0.007790826 0.9997437 
-0.43818048 0.7973494 0.41500828 
-0.6399426 0.5919632 0.48995218 
-0.9184612 0.21916083 0.32923806 
-0.9196676 -0.21452451 0.32892355 
-0.5850038 0.16539876 0.793986 
-0.057282217 0.042162314 0.9974674 
0.008707699 0.51465106 0.8573556 
0.12382664 0.9910155 0.050550014 
0.21767929 0.8188862 0.5310754 
0.6223778 0.67245746 0.40055823 
0.106989235 0.7393003 0.66482216 
0.054062016 0.38859853 0.91981983 
0.42031676 -0.19244598 0.8867347 
-0.19794416 0.51411104 0.83457047 
-0.63400906 0.56160927 0.5316274 
-0.5318988 0.82947904 -0.17043537 
-0.86715066 0.33895826 0.36490682 
-0.60633385 0.77476436 -0.17916322 
-0.94524556 0.3213518 -0.056956306 
-0.36984077 0.69805825 0.61313343 
-0.028667273 0.19690017 0.9800044 
0.15256646 0.15928157 0.97537327 
-0.26629028 0.33972493 0.90204024 
-0.8062286 -0.55018413 0.21746922 
-0.99611074 -0.014537089 0.08690293 
-0.42299688 0.25012657 0.87092507 
-0.08408508 0.37165043 0.9245571 
-0.3844779 0.023066662 0.9228461 
-0.5719016 0.81658375 0.078228 
-0.60621685 0.60976094 0.51058096 
-0.032884073 0.70489806 0.708546 
-0.12854725 0.055412628 0.990154 
0.24893261 0.62996554 0.73564667 
-0.2775296 0.36366376 0.88922775 
0.08153274 0.04859441 0.99548537 
-0.09361713 0.80530965 0.5854164 
0.42265746 0.18342645 0.8875334 
-0.1339601 0.51628155 0.8458771 
-0.015010413 0.75075084 0.66041493 
-0.35360697 0.38368604 0.85308105 
-0.98331964 0.11037075 0.14457117 
-0.711279 0.5289579 -0.4629102 
-0.26579365 0.8810729 -0.39123467 
0.35381094 0.93531567 0.001610561 
-0.06678484 0.93470126 0.34910384 
0.19397649 0.9794935 -0.0544579 
0.8206498 0.32382572 0.47081932 
-0.1336794 0.28412393 0.9494228 
0.44378406 0.43427175 0.78387743 
-0.350875 0.8698344 0.3468066 
-0.44672176 0.7016589 0.55508065 
-0.13815337 0.9844483 -0.10851351 
-0.22799982 0.86638105 0.4442972 
-0.97318506 0.22921924 -0.019219866 
-0.62096596 0.760464 0.18998918 
-0.38197067 0.2039943 -0.9013794 
-0.48317057 0.37628067 -0.7905437 
-0.450906 0.37611252 -0.8094586 
-0.5786591 -0.04041185 -0.81456774 
-0.3168424 -0.08771586 -0.9444135 
0.84724116 0.054390017 -0.52841675 
0.43918663 0.7852383 0.43648133 
0.2635803 0.88699764 0.37915793 
-0.2682096 0.39742318 0.87756395 
-0.012277433 0.6437948 0.76509976 
0.0076217856 0.9474997 0.319666 
-0.12004156 0.54424036 0.83029664 
0.48580638 -0.08079618 0.8703242 
0.71054345 0.3457193 0.61286724 
0.44222882 0.5292688 0.7240913 
0.19652194 0.23770179 0.95125026 
-0.48246136 0.6876684 0.54253423 
-0.23991175 0.8415976 0.4838964 
-0.45032907 0.7271368 -0.5181465 
-0.35256106 0.81863236 -0.45336738 
0.18106359 0.9822125 -0.049746826 
-0.12788379 0.9898928 -0.061304133 
0.77527964 0.43838274 -0.45471105 
0.32421383 0.7015297 0.63461924 
0.05597491 0.03996955 0.9976319 
0.09096828 0.032838378 0.9953122 
-0.15090714 0.08161144 0.9851734 
-0.1551991 0.80784243 0.56859815 
0.048788927 0.9020005 0.4289694 
-0.029382532 0.8917189 -0.45163506 
0.32842943 0.9347208 0.13576195 
0.87491375 0.34287474 -0.3419983 
0.86586225 0.47721228 -0.15017043 
0.83344245 0.531537 0.15113625 
0.21924323 0.42514732 0.8781699 
0.49035814 0.5436867 0.68114156 
0.10084244 0.4103981 0.9063135 
0.25145513 0.39551142 0.8833692 
0.49986193 0.58207434 0.6413482 
0.08795002 0.4511044 0.88812715 
-0.35088116 -0.13054249 0.92727625 
-0.5467877 -0.3761435 0.7480236 
-0.0013790634 0.51005495 0.8601408 
-0.8155556 0.40191606 0.4163322 
-0.44455823 0.6359722 0.63079894 
-0.48392767 0.7870914 0.38249347 
-0.6452194 0.7297065 -0.22631927 
-0.0799093 0.94573295 0.31496617 
0.67193455 0.71540284 0.19157992 
0.740764 0.65376186 -0.1544804 
0.87497324 0.2806664 -0.39452276 
0.33471605 -0.229193 -0.9140218 
0.15004338 0.12071625 -0.9812822 
0.6212864 -0.17150953 -0.76458347 
0.40504673 0.906269 -0.12088709 
0.12732607 0.35176912 0.927387 
-0.52969897 0.45985162 0.71271 
-0.66916674 0.07765931 0.7390433 
-0.865227 0.4988252 0.050554484 
-0.5346797 -0.00049088715 -0.8450546 
-0.01641032 0.95324516 -0.3017523 
0.3746396 0.90311706 -0.20982121 
0.36615938 0.6091087 0.7035012 
0.14009424 0.97971773 -0.14327219 
0.6165258 0.7588017 0.21003805 
0.16453601 0.9727383 -0.1634265 
0.8296269 0.36966276 0.41841194 
0.38566363 0.047718585 0.92140466 
-0.25188547 0.48541394 0.83721393 
0.21150607 0.32653132 0.921218 
0.39320555 0.39738384 0.8291414 
0.62928164 0.62607604 0.46047103 
0.029702896 0.9991557 0.028384803 
0.31873876 0.8946957 0.31293035 
0.5904832 0.80531055 0.052959166 
0.58503896 0.7157183 0.38141415 
0.42071837 0.6574015 0.62515545 
0.8144223 0.56591934 -0.12826386 
0.34101743 0.673149 0.6561842 
0.7153415 0.38628447 0.58229804 
0.16677807 -0.10993288 0.9798469 
0.38901454 0.6431352 0.6595793 
-0.16703625 0.69211584 0.70219266 
-0.44394422 -0.08516055 0.89199847 
-0.48230729 0.21004677 0.85044706 
-0.28326944 0.30776426 0.90831697 
0.39443666 0.7059807 0.588227 
-0.0059237834 0.8732725 0.4871964 
0.39476925 0.6293676 0.6693682 
0.47524038 0.8124107 0.33783942 
0.09347118 0.76752365 0.63416934 
-0.068290025 0.43102902 0.89975023 
-0.380132 0.044409696 0.92386556 
-0.03596177 0.11427799 0.9927978 
-0.3668089 -0.47260687 0.8013077 
-0.7423839 -0.32967713 0.5832488 
-0.6913078 0.5787983 -0.43253452 
-0.38069233 0.9241057 0.03319704 
-0.25931412 0.9468019 0.19058476 
0.6669291 0.7403708 -0.084004365 
0.6001879 0.7849437 0.15374628 
0.5454479 0.74985605 0.37443638 
0.79219824 0.5307062 0.30128562 
0.73628116 0.26397324 0.62306356 
0.16771188 0.2959004 0.9403807 
0.64761364 0.2814017 0.70810294 
-0.023691893 0.3070556 0.95139664 
-0.5734079 0.37340298 0.72922814 
-0.26384044 0.48807845 0.8319661 
-0.51224566 0.85375184 -0.093339376 
0.060281422 0.49078345 0.86919373 
0.019834345 0.27255818 0.9619349 
-0.26534736 0.8806512 0.39248493 
-0.1016081 0.36371747 0.9259512 
0.4399688 0.3340479 0.83357036 
-0.43567094 0.30830523 0.84565884 
-0.9193525 0.3720695 0.12788823 
-0.1843054 0.8093467 0.5576643 
-0.08337321 0.7889745 0.60874313 
-0.31846914 0.94763523 -0.0237714 
-0.091176964 0.8533013 0.5133846 
-0.045750182 0.9971141 0.060584642 
-0.15520972 0.96996033 -0.18731506 
-0.20989278 0.9763271 -0.05225448 
0.17845884 0.8725927 0.45468068 
0.8051998 0.1785957 0.56547046 
-0.24954264 0.6415684 0.7253403 
-0.16751742 0.5398242 0.8249411 
0.06975795 0.9975611 -0.0023725373 
-0.27951 0.9023557 0.32806796 
0.22318663 0.91730136 0.32976675 
0.15901928 0.5619375 0.8117507 
0.17521507 0.3959149 0.9014162 
-0.4106423 0.87819076 0.24526319 
-0.24016218 0.9453144 -0.2206873 
-0.35380504 0.84505945 0.40086988 
-0.45204127 0.86076856 0.23395774 
-0.44611192 0.65323126 0.61177874 
-0.76050055 0.28788206 0.5820335 
0.31439143 0.37428385 0.8723931 
-0.20583627 -0.40507242 0.890813 
0.41581032 -0.71499866 0.56203085 
-0.38025403 0.53652114 0.7533605 
0.100775674 0.28580675 0.95297366 
0.49478242 0.010115853 0.8689581 
0.19579355 0.5932999 0.7808074 
0.47296578 0.31835425 0.82155585 
0.0164752 0.3973393 0.91752386 
0.053704023 0.50683266 0.86037004 
0.47594738 0.10191338 0.87354904 
-0.42462668 0.9023688 -0.073639855 
-0.8950671 0.4138063 -0.16619022 
-0.30250716 0.42132095 -0.85497266 
-0.49065676 0.74256575 0.45590797 
-0.23431285 0.9522423 -0.19578558 