# OOMMF: rectangular mesh v1.0
# Segment count: 1
# Begin: Segment
# Begin: Header
# Desc: Time (s) :  2.3499999999999952e-07
# Title: m
# meshtype: rectangular
# meshunit: m
# xbase: 2e-09
# ybase: 2e-09
# zbase: 5e-10
# xstepsize: 4e-09
# ystepsize: 4e-09
# zstepsize: 1e-09
# xmin: 0
# ymin: 0
# zmin: 0
# xmax: 1.024e-06
# ymax: 1.024e-06
# zmax: 1e-09
# xnodes: 256
# ynodes: 256
# znodes: 1
# ValueRangeMinMag: 1e-08
# ValueRangeMaxMag: 1
# valueunit: 
# valuemultiplier: 1
# End: Header
# Begin: Data Text
0.40091532 -0.90980726 -0.107321054 
0.29662082 -0.8827301 0.36442262 
0.23462838 -0.6913979 0.68331444 
0.74132943 -0.014224187 0.6709906 
0.64714384 0.024596814 0.76197106 
0.8037018 0.5111566 0.30460224 
0.09486992 0.93492955 0.3419161 
0.75612366 0.25065553 0.6045238 
-0.5436928 0.52958035 0.651109 
-0.64407986 0.76225907 -0.06420465 
-0.7846705 0.6173073 0.056780875 
-0.7784625 0.19344807 0.5971382 
-0.42643967 0.8878994 0.17257997 
0.26188374 0.9055558 0.33374482 
0.26569772 0.9257579 0.2690301 
-0.27304325 0.9612049 -0.03914741 
-0.029389378 0.9044848 0.42549214 
-0.13233583 0.978772 0.15650173 
0.11203334 0.9435526 0.3117002 
0.024530882 0.70973957 0.70403695 
0.009082063 0.31755286 0.9481971 
-0.27178022 0.33716547 0.9013629 
-0.41100076 -0.1675242 0.8961105 
-0.9006466 0.3213705 0.29250067 
-0.6776821 -0.055700142 0.7332425 
-0.526093 -0.47850007 0.703039 
-0.10918323 0.35214177 0.9295565 
0.6744243 0.59984666 0.4305066 
0.17022316 0.56881076 0.8046605 
-0.15804967 0.76031494 0.630033 
-0.47021505 0.54054546 0.69764495 
-0.46752268 0.84814733 0.24913564 
-0.20360897 0.7680479 0.60716224 
-0.23201834 0.85088325 0.47134426 
0.16358785 0.6883772 0.7066654 
0.30579734 0.20680009 0.9293663 
-0.3101852 -0.24254625 0.91921514 
-0.13072796 0.08247058 0.9879823 
-0.8243799 -0.14434266 0.54732347 
-0.76435125 0.26615947 -0.5873044 
0.4048541 0.84415215 0.35142627 
0.46694675 0.42076838 0.7777627 
0.11982924 0.16316625 0.9792945 
-0.7430238 0.32485437 0.585137 
-0.56351495 0.8189884 -0.10820847 
0.054742537 0.76595557 0.64055866 
-0.38932243 0.9106089 -0.13863444 
-0.18430386 0.94499594 -0.27021268 
0.05987322 0.9946992 -0.083599366 
0.29209524 0.8395891 -0.45800728 
-0.07867964 0.9112941 -0.40416905 
-0.7586679 0.64795417 -0.067663856 
-0.76699096 0.36663935 -0.5265934 
-0.54277426 0.2952178 -0.78628397 
-0.7669325 0.6276751 0.13356164 
-0.80355275 0.1508026 0.5758139 
-0.32775405 -0.72631305 0.604191 
-0.6426022 -0.2635494 0.71944714 
-0.70921016 -0.59913754 0.37155783 
-0.8003376 -0.55154544 -0.23506913 
-0.40803254 -0.31123987 -0.8582769 
0.37030682 -0.36468562 -0.85432863 
0.75885105 -0.22893494 -0.60969985 
0.7670731 -0.27998236 -0.5772423 
-0.05361628 -0.42421734 -0.90397185 
0.93421936 0.3493307 0.0721279 
0.9691112 -0.08696081 0.23078448 
-0.59096956 0.3924484 0.7047973 
-0.5086246 0.6509772 0.5634978 
-0.06742289 0.888183 0.45451632 
-0.3073351 0.9063448 0.28997284 
-0.5138846 0.85183716 0.10147003 
-0.7009644 0.6403269 0.31405488 
-0.44683325 0.7124377 -0.5410847 
-0.56260884 0.30834675 -0.76706815 
0.1090234 0.9927742 -0.05013326 
-0.114872135 0.9933802 0.0006395931 
-0.6959266 0.71480095 0.06888972 
0.007092197 0.8788582 0.47703025 
0.45765424 0.55255663 0.6965873 
-0.36489743 0.1436188 0.9199041 
0.37897718 0.6081984 0.69747484 
0.27981463 0.7616566 0.58445126 
-0.46069968 0.87365746 -0.1564555 
-0.4627263 0.8638652 0.19905104 
-0.52207416 0.6995708 -0.4878927 
-0.192573 0.8514238 0.48784545 
0.11729832 0.8009207 0.58716875 
-0.030241907 0.48137176 0.8759946 
0.3151663 0.5228167 0.79204357 
0.015361141 0.9511824 0.30824664 
0.16250849 0.69301695 0.7023664 
0.08023272 0.9823797 -0.1687983 
-0.1437624 0.9068562 0.39616215 
-0.5977966 0.20418209 0.775209 
0.09406791 0.39426866 0.91416824 
-0.50509596 0.18786286 0.84236914 
-0.6110821 0.75832856 -0.2269729 
-0.25414306 0.5024579 0.8264063 
-0.49378827 0.10416097 0.86332136 
0.2281656 0.958392 -0.17153798 
0.5929592 0.79446673 0.13123278 
-0.02736056 0.71696675 0.69657034 
-0.20143695 0.4700368 0.8593536 
-0.79926556 -0.07358921 0.5964555 
-0.8545674 0.100946814 -0.5094353 
-0.38206604 0.39452997 -0.8356863 
-0.010591608 0.8042839 -0.59415096 
-0.49610025 0.86635154 0.057615113 
-0.32042673 0.9399166 0.11782809 
-0.35626617 0.75216985 -0.55436 
0.477548 0.57050896 -0.6681823 
0.083568975 0.8930575 -0.44211394 
0.5491161 0.83526 -0.028503375 
-0.11793626 0.9924558 0.033504292 
-0.13360223 0.7113046 -0.6900698 
0.5537149 0.6720471 -0.49168342 
0.2778127 0.5548536 -0.7841924 
0.5217984 0.66550183 -0.53369814 
0.87307876 0.011534488 -0.48744264 
0.9673306 0.13878112 0.21215913 
0.7389557 0.65145004 0.171923 
0.31083736 0.6194472 0.7208782 
-0.01283085 0.9525313 0.3041704 
0.06864376 0.9142277 -0.39934438 
-0.6298842 0.71091104 -0.3128121 
-0.83618325 0.4599947 -0.2986681 
-0.3878992 -0.38055727 -0.8394703 
-0.9260671 0.3349649 0.17377643 
-0.039261445 0.8936759 0.44699222 
-0.31823903 0.9478665 0.01652339 
-0.52694666 0.72313 0.4465537 
-0.7383321 0.5764012 -0.35018197 
-0.38010573 0.8985735 -0.2192834 
-0.36339304 0.7432153 -0.561762 
-0.32293198 0.9383697 -0.123196155 
-0.16509567 0.82067287 0.547028 
0.2825114 0.91318285 0.29374203 
-0.26168618 0.82963014 0.49318784 
-0.014019188 0.033422407 0.999343 
-0.014060176 0.82309914 0.5677236 
0.47338483 0.7655004 0.43579346 
-0.42566204 0.6141203 0.66458124 
-0.8606807 0.47989994 -0.17007302 
-0.62001884 0.7835616 0.040097795 
-0.9205947 0.3291878 0.2100975 
0.2416551 0.5931697 -0.7679536 
-0.27633953 0.9156866 -0.29181248 
-0.8295271 0.55609655 -0.051395193 
-0.44321805 0.7998317 -0.40475562 
-0.87988186 0.47226274 0.052686367 
-0.44407722 0.19592717 -0.87430435 
-0.70160174 0.1263612 -0.70127594 
0.37904215 -0.040835407 -0.924478 
0.7748469 0.5184266 -0.36172676 
-0.27041176 0.7185431 -0.64075994 
0.6953411 0.71064 -0.10719873 
0.6475658 0.6797116 0.34445715 
0.61910605 0.7765564 -0.11691003 
0.7451387 0.5593715 0.36314183 
-0.5474512 0.679035 0.48908967 
0.12721442 0.73532146 0.66567177 
0.31402746 0.22663713 0.9219666 
-0.31665415 0.5869342 0.7451432 
-0.56461114 0.61379784 0.5517848 
-0.6282248 0.75773716 0.17654479 
-0.502798 0.7696784 -0.39343268 
-0.24289955 0.4418464 0.8635807 
0.21499422 0.32124916 0.92226714 
0.27896792 0.26263043 0.9236895 
0.3081755 0.30355418 0.9016001 
-0.13692997 0.3667701 0.9201793 
-0.4008301 -0.05513642 0.9144919 
-0.87913316 -0.4504571 0.1556068 
-0.69259095 -0.53190607 0.48723078 
-0.5017994 -0.69103724 0.5202548 
-0.925358 -0.36044195 -0.117448546 
-0.36790785 -0.21592252 -0.9044453 
0.17917761 0.45519716 -0.87217593 
-0.04396935 0.16275568 -0.98568624 
0.3309216 0.3761043 -0.8654689 
0.067695655 0.33004567 -0.94153446 
0.5291867 0.77027905 -0.3558535 
0.7914076 0.60311836 -0.09961116 
0.71999633 0.29200375 -0.62955475 
0.6144559 0.7888822 0.010439573 
0.4968603 0.7746434 -0.39122555 
0.45152065 0.63805294 0.62371284 
0.10350207 0.8667119 0.48795274 
-0.93395627 -0.006778476 -0.35732326 
-0.9330666 0.3524495 0.07187529 
-0.44931346 0.48264837 -0.75177664 
0.77084976 0.5606372 -0.30245122 
0.4216157 0.6502225 0.6320214 
0.14945185 0.7930273 0.590569 
-0.66590595 0.3766952 0.6439488 
-0.96759814 0.122511305 -0.22078222 
-0.7459104 0.52373385 -0.41148588 
-0.35821128 -0.045436054 -0.9325344 
0.10574909 0.09769492 -0.9895822 
0.484528 0.4990371 -0.7184669 
0.68143237 -0.0607757 -0.7293533 
0.9597144 0.1169307 0.2554907 
0.8697918 0.4629712 0.1706458 
0.25294998 0.22930992 0.93991137 
0.41635296 0.057574403 0.9073784 
0.57124585 0.7922332 0.2145802 
0.5937917 0.18802632 -0.78234106 
0.19879356 0.93462056 -0.29489937 
0.52372235 0.7249571 0.4473837 
0.4081966 0.7804561 0.47356492 
0.36102694 0.6344344 0.6834856 
0.30377796 0.7398608 0.6002708 
0.34819484 0.772568 -0.5309416 
0.6236921 0.7281653 0.2842244 
-0.13768493 0.98554295 -0.09873164 
0.62961483 0.7256436 0.2775368 
0.16585916 0.8634544 -0.47637933 
0.25219932 0.9673178 -0.0263041 
0.37632462 0.840389 -0.39003357 
-0.75674814 0.6531815 -0.026196131 
-0.22990856 0.9723967 0.03983476 
0.1432111 0.038950197 0.98892546 
0.06618374 0.5916746 0.80345565 
-0.1295575 0.52349496 0.84212106 
-0.69717413 0.061393447 0.7142683 
-0.7623464 0.50296974 0.40724626 
-0.98744005 0.05819662 -0.1468853 
-0.9700614 -0.09088824 0.22521129 
-0.8933981 0.20303605 0.40076953 
-0.985809 0.09125234 -0.14090276 
-0.6054466 -0.27913252 -0.7453318 
-0.89250517 0.027240613 -0.4502139 
-0.9671383 0.19968292 -0.15738592 
-0.61372054 0.3290673 -0.7176781 
-0.54957706 0.12544046 -0.82597196 
-0.11243186 0.2456845 -0.9628075 
0.40925905 0.3824375 -0.8284012 
0.5794311 0.567241 -0.58523273 
0.4294226 0.8935994 0.1306766 
0.4186129 0.9037848 -0.08908593 
0.53159195 0.8015695 -0.27367184 
0.74050474 0.6715336 0.026369913 
-0.57930845 0.5907197 0.5616512 
-0.713133 0.56032604 0.42127913 
0.08250167 0.6808418 0.7277692 
-0.24756469 0.6683276 0.70146275 
-0.0292514 0.9994613 0.014884656 
-0.31454772 0.89546615 -0.31496072 
-0.80548865 0.32820654 -0.49342537 
-0.7888687 0.09448289 -0.60725534 
-0.42717418 0.18594858 -0.8848421 
0.5071304 -0.26220432 -0.8210164 
-0.10758101 0.8984319 -0.42573038 
0.39640814 0.75484604 -0.5225593 
0.11258143 0.51010436 -0.8527128 
0.8013565 -0.564448 -0.1980564 
0.75796527 -0.635922 -0.14523068 
0.571891 0.4646607 0.6760409 
0.43833193 0.30806708 0.8443695 
0.37442783 0.53242546 0.75916207 
0.0058450378 0.72899204 0.6844973 
-0.105201334 0.7034867 0.70287925 
0.7283749 0.29782134 0.61706764 
0.28366092 0.28594846 0.91529775 
-0.63088316 0.69462746 0.34565768 
-0.6351022 0.7712635 0.042400256 
-0.4173638 0.8507126 0.31952393 
0.7994576 0.5226899 0.2960793 
0.48529202 0.78261703 0.38987496 
-0.32576382 0.8616722 0.3891001 
-0.33656988 0.9144507 0.22472343 
0.12030635 0.98931485 0.08235659 
0.34678748 0.78447264 0.51414126 
0.4044853 0.41718814 0.8138463 
-0.25645408 0.39728886 0.8811316 
0.29397163 0.049919266 0.9545098 
0.2171149 -0.07108493 0.9735544 
-0.45794103 -0.1270393 0.8798586 
-0.13225187 -0.09243275 0.98689705 
-0.49333873 0.4504501 0.74411803 
-0.8481438 -0.22260499 0.48072764 
0.15615676 -0.19062728 0.9691627 
0.10697213 0.031888798 0.9937505 
-0.7184439 0.50850785 0.47461376 
0.049969397 0.7016334 0.7107839 
0.52989984 0.44175023 0.7239219 
-0.28145194 0.89342934 0.3500985 
-0.3917702 0.8281661 0.40082043 
-0.35184795 0.7197887 0.59842074 
0.2604902 0.7028031 0.66197646 
0.37225708 0.5909229 0.7157058 
0.26355007 0.24856094 0.9320724 
-0.8042695 -0.039684918 0.59293824 
-0.8879595 0.30753988 0.3419757 
-0.97490895 0.16005921 0.1547052 
0.025147082 0.5798076 0.81436527 
0.65565646 0.15062414 0.7398832 
-0.2599387 0.7398957 0.62047267 
-0.33928066 0.8108346 0.47690228 
-0.015785594 0.6676969 0.744266 
-0.08828268 0.9902691 0.10757886 
-0.1733221 0.48199838 0.85885805 
-0.12961389 0.79389673 0.59407765 
0.242086 0.8420998 0.48193622 
0.35513332 0.9337783 -0.044027813 
0.10465255 0.9602742 0.25869134 
-0.15353762 0.94383466 0.29257882 
-0.3600982 0.9088347 -0.21059135 
-0.82511467 0.56133664 -0.06393036 
-0.39962438 0.8674996 0.2962177 
-0.95840484 -0.0045579704 0.28537592 
-0.8833972 -0.4144907 0.21864776 
-0.9376932 0.29799962 0.17868324 
-0.82777137 -0.21124347 -0.5197795 
-0.5808879 -0.09674343 -0.8082141 
-0.34445027 0.35698393 -0.8682837 
-0.19545884 0.3310486 -0.9231482 
0.08186458 -0.36262375 -0.92833304 
0.3369469 0.21900557 -0.9156983 
0.041243292 -0.056830853 -0.9975316 
0.89068156 0.41107622 -0.19417216 
0.8664915 0.49547336 0.06081808 
0.022178078 0.9428611 0.33244753 
0.00035648595 0.6352448 0.77231085 
-0.65789956 0.73441553 0.16673934 
-0.80518436 0.58654946 0.087395184 
-0.3513614 0.62771004 -0.6946406 
-0.25118098 0.92727417 -0.27761638 
-0.73607576 0.5307757 -0.420083 
-0.8537685 0.4406986 0.27724394 
-0.3779613 0.8533702 0.3590327 
-0.31204617 0.83930564 0.4451889 
-0.10518437 0.83102286 0.5462027 
0.49664065 0.73433083 0.46271637 
0.6052209 -0.2069845 0.7686775 
-0.4873161 0.062204897 0.8710072 
-0.86128026 0.33478963 0.3822465 
-0.68251467 0.45436597 0.5724731 
-0.4945214 0.8182465 -0.29312345 
0.11094068 0.9937794 -0.009729347 
-0.092813976 0.92498 0.3685073 
-0.16962901 0.59831315 0.78310114 
-0.20195803 0.24930952 0.9471314 
-0.5655581 -0.36420712 0.73993057 
-0.20217995 0.28144005 0.93803775 
-0.5758658 0.74919313 0.32724363 
-0.037419662 0.82425684 0.5649784 
0.06673268 0.92051 0.38497812 
-0.46894386 0.80583674 0.3615507 
-0.87608445 0.44075432 0.1954783 
-0.85807735 0.34217834 0.38290662 
-0.7984241 0.012247843 0.6019708 
-0.9330352 0.06989665 -0.3529305 
-0.8664989 0.30230302 0.3972311 
-0.47819498 0.14490774 0.86621666 
0.75378704 0.47061995 0.45860866 
0.258371 0.764429 0.59067166 
0.22700593 0.89725643 0.37868103 
0.22988646 0.785143 0.5750675 
-0.46710283 0.6689609 0.57819235 
-0.87950444 0.20488955 -0.42952552 
-0.6019619 0.58041143 -0.54842 
0.14078285 0.90980154 -0.3904374 
0.21771523 0.9114928 -0.34897116 
0.5042327 0.83236 -0.2300567 
0.7694547 0.56914896 0.2898429 
0.7909869 0.552848 -0.26210487 
0.8750073 0.46620712 -0.13043489 
0.44018355 0.8975959 -0.023667213 
0.2216938 0.9740173 0.046284895 
0.5778141 0.14327063 -0.80349517 
-0.092446394 0.9439179 -0.31697428 
-0.17808373 0.763891 -0.6202878 
-0.47709903 0.6924819 0.5411519 
-0.053692397 0.81156987 -0.58178306 
0.14009848 0.6740243 0.7253025 
0.26015598 0.8308549 0.4919341 
0.05561751 0.9527999 0.29846105 
-0.5973449 0.729659 0.33283156 
-0.02966829 0.92865944 0.36974534 
-0.49201986 0.8528317 -0.17491303 
-0.2989438 0.7089351 -0.638783 
-0.16560063 0.96358824 -0.20993857 
0.0047156364 0.887466 0.46084923 
0.0014452607 0.10100992 0.9948844 
0.18736187 0.7886415 0.5856109 
-0.7724013 0.5886126 0.23860317 
-0.31440645 0.68648386 -0.6556589 
-0.5223935 0.7804802 -0.34344688 
-0.25847733 0.96345496 -0.070313685 
-0.54482627 0.827286 0.13697527 
0.047188956 0.69548696 0.71698755 
-0.2020552 0.85717255 0.47373942 
-0.54509735 0.6700554 0.5038796 
-0.16824405 0.39185014 0.904515 
0.13372485 0.6528092 0.74562585 
-0.2821517 0.70286494 0.6529712 
-0.69093645 0.55807126 0.4595252 
-0.6551745 0.7546412 0.03554341 
0.13507363 0.99032784 -0.03171589 
-0.24700566 0.91759735 0.3114538 
-0.43552375 0.86701745 -0.24207401 
-0.67396986 0.70426756 0.22309628 
-0.5464133 0.8189011 0.1755949 
-0.9714165 0.16233961 0.17319362 
-0.27181947 -0.076651305 -0.95929074 
-0.37515107 -0.13356416 -0.9172908 
-0.44811517 0.21206586 -0.86845887 
0.52180564 0.6177029 -0.5883555 
0.6702724 0.7328958 0.11661376 
-0.09965454 0.97599554 -0.19365366 
0.32098275 0.9459684 -0.045978025 
-0.11907511 0.71837354 0.68539083 
0.3625016 0.6829279 0.6341941 
0.96605265 0.23403984 -0.109397165 
0.46908018 0.7744577 0.42447516 
0.52559155 0.5151762 0.67701334 
0.18584396 0.36298573 0.9130736 
-0.29312098 0.41684654 0.86041796 
-0.48585358 0.2979797 0.8216779 
0.018403893 0.9592101 0.28209445 
0.53291327 0.6096269 0.5868208 
0.7811902 0.10797571 0.61488473 
0.6436093 0.099471636 0.75886273 
0.30798915 -0.13048626 0.9423991 
0.3353058 -0.272485 0.90184367 
0.08832289 -0.2463445 0.96514946 
0.26424554 -0.31028876 0.9131786 
-0.19275124 -0.6313599 0.7511536 
-0.56050664 -0.64985055 0.51334846 
-0.93038034 -0.3533064 -0.09781118 
-0.35914013 -0.68696725 -0.63173926 
-0.35133266 -0.15275878 -0.92370456 
-0.7516664 0.50396615 -0.4254596 
-0.75711715 -0.020829247 -0.65294707 
-0.7094803 0.5152088 -0.48083025 
0.2882855 0.6929597 -0.66083163 
0.7675923 0.18537225 -0.61354643 
0.949239 0.31282842 -0.03291874 
0.9520463 -0.14230928 -0.27084318 
0.8587413 0.48603538 -0.1622752 
0.36331183 0.8868471 0.28549424 
0.62443286 0.27614862 0.73063374 
-0.027240027 0.08671149 0.995861 
0.1585572 0.3093187 0.9376468 
-0.75010437 0.33204454 0.5719178 
-0.18260469 0.9397046 0.28915563 
-0.1344188 0.9264815 0.35151616 
-0.056466162 0.9564566 0.28636074 
-0.31741983 0.78675056 0.5294035 
-0.5079281 0.7937154 0.33470124 
-0.8116417 0.5595242 0.16784069 
-0.6915244 0.60845613 -0.38932672 
0.044195503 0.16129111 -0.98591685 
-0.16076759 0.50407064 -0.8485674 
0.32502583 0.31489715 -0.89173883 
0.7797324 0.38246244 -0.4957216 
0.7024068 -0.17229153 -0.69060874 
0.9050493 0.20333643 -0.37355053 
0.6002425 -0.7901432 0.12402717 
0.9407314 0.33546832 -0.049853623 
0.6342633 0.5651995 -0.5275033 
0.8646964 0.30692193 -0.39761677 
0.26206937 0.8725417 -0.41229928 
0.027196141 0.99801624 -0.056780472 
-0.31505725 0.58251643 0.7492754 
-0.095870264 0.9816582 0.16479133 
0.44381317 0.77947307 0.44209918 
0.42379668 0.9025379 0.076300964 
0.51006526 0.7882667 0.34419325 
0.35632727 0.9236462 -0.14109798 
0.8424963 0.5069101 -0.18232457 
0.42518175 0.72459143 -0.5423908 
0.35214373 0.85962105 0.37019786 
0.40149748 0.69682676 0.59433347 
0.24586265 0.76523274 0.59495413 
-0.35588452 0.14102511 0.923828 
0.020334285 -0.37801188 0.9255774 
-0.026672004 0.58510095 0.81052184 
-0.26011607 0.50851494 0.8208241 
-0.5415372 -0.29468957 0.78733444 
-0.46622798 -0.38596618 0.7960287 
-0.95792115 0.053221263 0.28205436 
-0.69378346 0.5971083 0.40264902 
-0.79226595 0.5387214 0.2865203 
-0.8621915 0.4902432 0.12762186 
-0.88078785 0.31955856 -0.3494211 
-0.8308998 0.45763302 -0.31650853 
-0.7163429 0.3140967 -0.62305385 
-0.9742005 -0.047211386 -0.22069113 
-0.9254139 0.26329914 -0.27254838 
-0.72322375 0.53520346 -0.4364686 
-0.014006749 0.73071045 -0.6825439 
-0.29090467 0.92006683 -0.26239562 
0.083789386 0.93679893 -0.33968684 
0.4173158 0.870941 -0.25944036 
0.6117207 0.7898622 -0.043765884 
0.7894161 0.61119616 0.057109833 
0.12322791 0.83355194 0.53852206 
-0.5211723 0.29103094 0.80229706 
-0.37756518 0.7756232 0.5058193 
-0.29682687 0.8531302 0.42902514 
-0.20045866 0.803498 0.5605421 
0.42865434 0.9029933 0.029304193 
0.44259256 0.89617366 0.031378802 
0.1958063 0.93120444 -0.30743825 
-0.66750556 0.72738326 -0.15921672 
-0.14174484 0.89294916 -0.4272591 
0.02843632 0.87953764 0.47497895 
-0.13359544 0.95015377 -0.28170946 
0.26216292 0.9434005 -0.2031406 
0.8789652 -0.4172886 -0.230847 
0.6923515 -0.4099344 0.59380406 
0.68310034 -0.08820151 0.724979 
0.6791931 -0.108459584 0.7259017 
0.630803 0.270531 0.7272555 
-0.42349032 0.26934162 0.86493427 
-0.19701505 0.5237563 0.82877284 
-0.065495625 0.9549715 0.28937814 
0.3874332 0.44349936 0.8082104 
-0.18563107 0.45845506 0.86911464 
-0.41191643 0.43658394 0.79982454 
-0.45658582 0.815742 0.3550978 
0.00712628 0.96866566 0.2482662 
-0.47568202 0.87511283 0.08890512 
-0.4751038 0.8522268 -0.21905695 
0.005528682 0.7239191 0.6898627 
-0.13661462 0.78417087 0.6053202 
0.5372849 0.5331141 0.6535399 
-0.26079273 0.6078075 0.75003815 
-0.018996917 0.5696465 0.8216703 
-0.34303388 0.08234818 0.93570644 
0.011626283 0.31992462 0.9473717 
-0.5988635 0.3181921 0.73492604 
0.09215684 -0.29719058 0.9503605 
-0.2120645 -0.44870943 0.86815244 
-0.28670046 -0.2567267 0.9229812 
-0.047742605 -0.10693413 0.99311924 
-0.28746724 -0.090899296 0.9534673 
-0.82828945 -0.37819746 0.41340443 
0.47116905 -0.36089417 0.80483234 
0.5448097 0.52233934 0.6560062 
-0.16063139 0.46948436 0.86820626 
-0.23293656 0.52884233 0.816129 
-0.59035915 0.5554785 0.5855936 
-0.19027506 0.29729748 0.93563336 
-0.30104372 0.38175294 0.87386346 
-0.3192105 0.2974657 0.8997882 
-0.70903015 0.40131196 0.5798491 
-0.34985897 0.0906251 0.9324087 
0.11694092 0.2685034 0.9561542 
0.03736649 0.40159395 0.9150552 
0.3414086 0.27021322 0.9002361 
0.1373421 0.15446292 0.978406 
-0.119284704 0.44396865 0.88806695 
0.30738664 0.042548463 0.950633 
0.2652762 0.36984274 0.8904184 
0.26054412 0.44016936 0.8592833 
-0.51494485 0.8277473 0.22285928 
-0.18033199 0.77089375 0.61090356 
-0.2699596 0.7514587 0.60202295 
-0.46116415 0.74683803 0.47912493 
-0.66659474 0.11079491 0.7371404 
-0.7431272 0.4751075 0.47120568 
-0.70278096 0.35689753 0.61540484 
-0.4077394 0.30224815 0.86162335 
-0.58763903 0.8086457 -0.027793584 
-0.6597873 0.3080092 -0.6854276 
-0.88760036 0.4281774 -0.16979362 
-0.48831183 0.87207246 -0.032267272 
-0.726388 0.68698007 -0.02047053 
-0.57657325 0.71733946 -0.39113623 
-0.81458676 0.09262671 -0.5725983 
0.23259206 -0.7677162 -0.5970871 
0.018555356 0.75431114 -0.656255 
-0.07034012 0.6542645 -0.75298756 
-0.0041955817 0.7448999 -0.66716313 
0.7887877 0.5666856 -0.23807873 
0.77188706 0.6213531 -0.1345766 
0.23404951 0.39885554 0.88664263 
-0.57062864 -0.112941876 0.8134046 
-0.5675526 0.24553066 0.7858745 
-0.888573 0.4580591 -0.024896845 
-0.4126115 0.8446915 0.34095165 
-0.96517617 0.25438234 -0.061029613 
0.07017937 0.8830782 0.4639479 
0.03454987 0.71961004 0.69351834 
0.049662564 0.7759702 0.6288115 
-0.21572499 0.075211525 0.97355324 
-0.07675742 0.32626346 0.9421574 
0.43206015 -0.8712178 0.23303175 
0.4584852 -0.42592955 0.7799843 
-0.43461877 0.58671206 0.683283 
-0.6343566 0.5010643 0.5886648 
-0.66815233 0.74319017 0.03522526 
-0.03514686 0.99668396 -0.07338889 
0.36822265 0.6651761 0.6495791 
0.6386813 0.14152637 0.7563442 
0.08228805 0.5918946 0.8018038 
-0.08017561 0.16915742 0.98232263 
-0.29727226 -0.111648954 0.9482425 
-0.7358047 0.35030985 0.57954687 
-0.594945 0.7016417 0.39209622 
-0.3702639 0.70761555 0.6018181 
-0.78441775 0.5570714 0.27269077 
-0.8133023 0.5802982 0.04235 
-0.7749383 0.3324331 0.53754896 
-0.7318909 0.38098672 0.5649645 
-0.8829682 0.46259016 -0.07986097 
-0.73990077 0.22394785 0.63434553 
-0.31226823 0.7220509 0.6173581 
-0.16354913 0.8159183 0.55455303 
-0.7035195 0.56842446 0.42656076 
0.4312531 0.36172724 0.8265436 
0.5476938 0.4111464 0.7286908 
0.28848192 0.31395325 0.9045505 
-0.9542789 -0.19157533 0.22945775 
-0.68452764 0.71050334 0.16311654 
-0.52191025 0.83122206 -0.19151899 
0.5232345 0.67355317 -0.52206504 
0.54198176 0.8394233 -0.040304273 
0.9122001 -0.20518775 -0.35466748 
0.89460784 0.42269194 -0.1449425 
0.61671394 0.53383464 -0.5785192 
0.14372274 0.89273113 0.4270537 
0.017205842 0.99525505 0.09576712 
0.0049141333 0.9294801 0.36883965 
0.21844454 0.83591056 0.503523 
0.32767016 0.87373877 0.35946205 
0.31378838 0.46319717 0.82884586 
0.20876843 0.9068973 0.36599594 
0.40071702 0.03636651 0.91547984 
0.44386166 0.56507516 0.69546896 
0.5452422 0.79902554 0.25351346 
0.28088892 -0.10035528 0.95447904 
-0.03870376 0.58744544 0.80833787 
-0.65951616 0.5994024 -0.45360246 
-0.23994085 0.95653445 0.16574144 
0.26735082 0.8838149 0.38392022 
0.24782276 0.9685213 0.023463218 
0.38901684 0.5295315 0.7538319 
0.6499541 0.2868481 0.70375985 
0.6656019 0.44884062 0.5962519 
0.032376803 0.96709013 0.25236574 
-0.5973659 0.7566324 0.2658223 
-0.29309914 0.95519024 -0.04128829 
-0.8750603 0.41721624 0.24535728 
0.5002701 0.68499833 0.52962923 
0.061489414 0.80549896 0.5893984 
-0.50747883 0.84384763 0.17431702 
-0.5812112 0.80226374 0.1362587 
-0.42017555 0.8881991 0.18588968 
-0.39706326 0.8077814 0.43569484 
-0.22958583 0.95540905 0.18569878 
0.2654214 0.9283382 -0.26026848 
0.3404445 0.9241149 0.1735202 
0.27319428 0.9551445 0.11429716 
-0.99229753 0.10831683 -0.060109604 
-0.66551006 0.69931376 -0.26087666 
-0.8147586 0.20927176 -0.5407159 
-0.7780905 0.36255774 -0.51295924 
-0.9014455 0.15150559 -0.40551478 
-0.8881765 0.18068838 -0.42248583 
-0.42169368 -0.23503792 -0.87574637 
0.23376489 0.323055 -0.9170548 
0.6557455 0.690118 -0.3061617 
0.28785247 0.91151625 0.29373324 
-0.088925056 0.5681414 0.8181123 
-0.31198442 0.3223308 0.8937386 
0.070357434 0.7198542 0.69055045 
0.25148222 0.779371 0.57387936 
0.14969096 0.8217331 0.5498612 
0.14305592 0.45039544 0.881294 
0.103091724 0.43739414 0.8933412 
-0.13384508 -0.67609996 0.7245512 
-0.78711635 0.05469416 0.61437476 
-0.7573019 0.34417593 0.5550106 
0.7760733 -0.17938676 0.6045913 
0.7767954 0.0015893321 0.629751 
0.5092566 0.061745055 0.8583969 
0.21572818 -0.4082668 0.887006 
0.51378435 -0.20187002 0.83383113 
0.77129644 -0.4610071 0.43883297 
0.812622 -0.39059818 0.43252596 
-0.07915381 -0.3330102 0.9395951 
-0.7795441 -0.6025162 0.17112957 
-0.6007311 -0.3492988 -0.71910536 
-0.02112361 -0.8118575 -0.58347344 
-0.09204225 -0.052221313 -0.9943848 
-0.7297356 0.5803228 -0.36154026 
-0.745213 0.5027042 -0.43811658 
-0.54641473 0.5325292 -0.6464082 
0.49875844 0.8082345 -0.31304476 
0.53139925 0.14880306 -0.8339499 
0.44343415 0.807626 -0.38872418 
0.8147602 0.2586663 -0.51890033 
0.97977406 -0.18768886 0.069394834 
0.7457756 0.5267058 0.40792143 
-0.108104385 0.7934799 0.59891826 
0.07833113 0.17953594 0.98062795 
-0.18805948 0.31439656 0.9304776 
-0.4048465 0.3518207 0.84399146 
-0.28658396 0.869864 0.40150505 
0.21351755 0.7307907 0.6483481 
-0.098244436 0.16833815 0.9808213 
-0.25068647 0.084717885 0.96435434 
-0.1625725 0.16404359 0.9729646 
-0.2688413 0.7880134 0.5538585 
-0.41918737 0.8852177 0.20167196 
-0.6023741 0.5676596 -0.5611667 
-0.39419168 0.56111676 -0.72784686 
-0.24826756 0.6599218 -0.7091308 
0.25679654 0.32801762 -0.90909845 
-0.23384032 0.45535642 -0.8590514 
0.8622046 -0.24495707 -0.4433952 
0.71431947 -0.6815892 0.15869437 
0.68893474 -0.53490746 0.48912475 
0.5629006 0.82509893 -0.048526075 
0.97410434 0.20239127 0.1007895 
0.70406973 0.541828 0.45902976 
-0.30676076 0.6182564 0.7236414 
-0.6181304 0.4561462 0.64019173 
0.3747286 0.8407566 0.39077738 
0.38153654 0.5379641 0.75168115 
0.780812 0.5820186 0.22712761 
0.26350564 0.806942 0.528592 
0.018964544 0.98440564 0.17488846 
0.3045443 0.80406976 0.510612 
0.7554319 0.64842 0.09420357 
0.74173516 0.27918318 0.60982436 
-0.24275394 -0.64987385 0.72023225 
-0.3158499 0.16610362 0.93415654 
0.06473654 0.13669813 0.9884953 
-0.6025927 0.17221768 0.7792452 
-0.398657 0.08060334 0.9135512 
-0.34911454 -0.3194291 0.88095635 
-0.0064486107 0.27046236 0.96270895 
-0.15017451 -0.5477399 0.8230605 
-0.81951326 0.120388374 0.5602719 
-0.85029745 0.18987276 0.49085912 
-0.4488305 0.695848 0.56066644 
-0.5778544 0.8155821 0.030171676 
-0.8824487 0.43864757 0.16992006 
-0.6657263 0.17647554 0.7250275 
-0.7086276 0.14443927 0.69064057 
-0.91580504 0.40105888 -0.021281853 
-0.12558497 0.46569946 -0.8759866 
-0.72157735 0.5304878 -0.4448695 
0.09485675 0.98711735 0.12884687 
0.22320832 0.78585833 0.57671905 
-0.19998889 0.978187 0.05616671 
0.12500161 0.95338005 0.27466536 
0.42338538 0.79792017 0.4290318 
0.38280293 0.6708778 0.6351259 
0.1242324 0.58985865 0.797893 
0.06498746 0.52004117 0.8516653 
0.2525494 0.08104866 0.9641836 
0.44376937 0.65425384 0.61238945 
-0.06639102 0.41505864 0.9073691 
-0.34163082 0.8222325 -0.45521656 
0.24564916 0.9389259 -0.24098696 
0.2118788 0.8895809 0.40466434 
-0.2624287 0.96486944 0.012578758 
-0.3511973 0.90213585 -0.25062206 
0.44481367 0.88248706 -0.1528313 
-0.06312851 0.9962806 -0.05865013 
0.38482326 0.6834626 -0.6203145 
0.8362256 -0.39913216 -0.3760589 
0.9574439 -0.13827938 0.2533379 
0.78730345 -0.16629104 0.5937176 
0.10735695 0.067983635 0.9918935 
0.304816 0.28705218 0.9081235 
0.04484883 0.56029344 0.8270791 
0.07458337 0.561688 0.8239805 
0.1755621 0.6472394 0.7417945 
0.44418925 0.7447717 0.498007 
0.24052991 0.40536833 0.8819422 
-0.5912732 0.47207016 0.65387 
-0.3279344 0.94335836 -0.050338276 
-0.048706654 0.7200143 0.6922479 
0.42294532 0.6974694 0.5784926 
-0.19804163 0.34459618 0.9176235 
-0.4764354 0.4899311 0.73005265 
0.08752115 0.2596974 0.9617158 
0.6903338 0.12379997 0.7128204 
-0.38403362 0.14289221 0.9121952 
0.2854622 -0.065954514 0.95611787 
-0.06770009 -0.33193544 0.94086957 
-0.36956674 -0.37136382 0.85176843 
0.15796137 -0.1926564 0.9684688 
0.4420729 -0.49138805 0.75040615 
0.27202454 -0.20691335 0.9397817 
0.019937081 -0.9333331 0.35845777 
-0.079746455 0.058836937 0.99507725 
-0.3310046 0.09421766 0.93891376 
-0.14795609 -0.070624314 0.9864691 
-0.09690751 0.019990787 0.9950927 
0.02243601 -0.38699228 0.92181003 
-0.1564516 -0.13779235 0.97802675 
-0.84834754 0.0152568435 0.5292199 
-0.574474 0.25547513 0.77763236 
-0.7845756 0.19411866 0.58886254 
-0.28865033 0.27953786 0.9157181 
-0.75907487 0.20476906 0.6179604 
-0.43083704 0.36950678 0.823313 
-0.46696627 -0.016273877 0.8841254 
-0.21414357 0.31040427 0.9261705 
0.05714913 0.41100815 0.9098386 
-0.4047387 0.66644716 0.6261269 
0.053613365 0.7665078 0.6399934 
0.11255677 0.67901075 0.7254485 
0.8297634 0.34152424 0.4414226 
0.8167956 0.29725662 0.49445283 
0.13347715 0.5529469 0.8224558 
-0.30288973 0.5371378 0.7872362 
-0.46200567 0.21025398 0.86159384 
-0.56288296 0.5745474 0.5941869 
-0.21887372 0.6778447 0.70186955 
-0.0022606812 0.28747982 0.9577841 
-0.18315934 -0.02846392 0.98267114 
-0.32809964 0.028159564 0.9442234 
-0.8603135 0.1509939 0.48688963 
-0.88986886 -0.17039569 0.42320052 
-0.9507682 -0.2800432 -0.13272439 
-0.963035 0.24442068 -0.11323557 
-0.5564657 0.82587636 -0.090963095 
-0.07223414 0.9915807 -0.10747071 
-0.39006948 0.88815725 0.2429453 
-0.21611081 0.9729035 -0.08218968 
-0.3423702 0.5610296 -0.75367665 
0.8087859 0.33777532 -0.48142827 
-0.05129982 0.9691655 0.24101146 
0.20101035 0.5870192 -0.7842215 
0.6862734 0.674778 -0.2714839 
0.61632144 0.76615655 0.18207723 
-0.45620874 0.59255606 0.6638908 
0.2984162 0.3492897 0.88822544 
-0.48589858 0.36510786 0.79410255 
0.17927909 0.77335036 0.60810226 
0.062563315 0.8500955 0.52289903 
-0.4806746 0.87525386 -0.05369145 
0.18000208 0.806698 0.5628833 
-0.10362191 0.86546147 0.49014193 
0.13410671 0.4748963 0.86976373 
-0.002429904 0.20749973 0.978232 
0.035975907 -0.63006765 0.7757065 
-0.5958569 -0.62421197 0.50528616 
0.1848613 -0.43511143 0.88119483 
-0.22386621 0.14908211 0.96315026 
-0.26998398 -0.011421851 0.96279705 
0.26112157 0.58867186 0.76503664 
0.046852957 0.84014404 0.5403361 
0.42420426 0.6808336 0.59709 
0.39705563 0.6932641 0.6014413 
-0.18942012 -0.03876603 0.9811306 
0.34054843 -0.12332539 0.93210393 
-0.05187273 0.058287993 0.9969512 
-0.063517295 0.80423343 0.5909096 
-0.43731925 0.5922715 0.6767321 
-0.8710026 0.100262225 0.4809386 
-0.604038 0.43033162 0.6707853 
-0.28598982 0.6457831 0.7079364 
-0.94133025 0.07587449 0.32884732 
-0.7528476 0.2991687 0.5862752 
-0.58315283 0.7560349 0.2972273 
-0.62027574 0.44003215 0.6493302 
-0.424542 0.4998398 0.7549333 
0.01885874 0.7575714 0.6524799 
0.37983197 0.9223391 0.07084116 