# OOMMF: rectangular mesh v1.0
# Segment count: 1
# Begin: Segment
# Begin: Header
# Desc: Time (s) :  2.379999999999995e-07
# Title: m
# meshtype: rectangular
# meshunit: m
# xbase: 2e-09
# ybase: 2e-09
# zbase: 5e-10
# xstepsize: 4e-09
# ystepsize: 4e-09
# zstepsize: 1e-09
# xmin: 0
# ymin: 0
# zmin: 0
# xmax: 1.024e-06
# ymax: 1.024e-06
# zmax: 1e-09
# xnodes: 256
# ynodes: 256
# znodes: 1
# ValueRangeMinMag: 1e-08
# ValueRangeMaxMag: 1
# valueunit: 
# valuemultiplier: 1
# End: Header
# Begin: Data Text
0.8112965 0.5832939 -0.039574545 
0.783009 0.617406 0.0755429 
0.9102254 0.41396582 0.011046408 
0.7039089 0.6053483 0.37157202 
0.67574644 -0.34381074 0.6520437 
0.5435528 -0.42093113 0.7262007 
0.8613386 -0.021628128 0.50757086 
0.08270539 0.44727874 0.8905626 
0.32111663 -0.23703893 0.9168952 
0.7484436 0.5351949 0.39166152 
0.4360104 0.86219347 0.25790945 
0.53010964 0.35402086 0.7704888 
0.678916 -0.20318557 0.70554155 
0.31678626 0.048371647 0.9472627 
0.923315 -0.2528583 0.28905421 
0.3070008 0.26814634 0.91315293 
-0.07332616 0.07231952 0.9946825 
-0.8901852 0.4130242 -0.19230554 
0.13816203 0.4802895 -0.8661601 
0.5507541 0.39191458 -0.73693484 
0.9486266 0.1666009 -0.26898304 
0.7802199 0.6157026 0.110305585 
-0.4916989 0.85661113 0.15636377 
-0.94462675 -0.16567771 0.28325135 
-0.9578951 -0.032507733 0.28527233 
-0.98252517 -0.06245335 0.17533925 
-0.5027758 0.8353048 0.22244646 
-0.96663696 0.1368143 0.21655269 
-0.87837 0.4768801 -0.032430258 
-0.9181231 0.09207119 -0.3854514 
-0.91660875 0.318891 -0.24111614 
-0.014305963 0.9748276 0.22250059 
0.75718594 0.50755906 0.41116086 
0.76738507 0.6086652 0.20161065 
0.18065928 0.9585082 0.22050944 
0.392296 0.8600098 -0.3263236 
-0.007999309 0.6745225 -0.73821104 
0.046322063 0.75461036 0.65453625 
0.17384942 0.6598987 0.7309652 
-0.175198 0.852138 0.49311924 
-0.18229905 0.27296463 0.9445937 
-0.24782406 0.94545287 0.21142894 
-0.09797309 0.548215 0.83057904 
0.18670557 0.82578695 0.5321813 
-0.35375988 0.77150166 0.5288093 
-0.35024768 0.78748727 0.5071395 
-0.6130071 0.14133494 -0.77733314 
0.19439214 0.8197968 -0.53865105 
0.48082513 0.87132853 -0.09794861 
0.87040687 0.488605 0.060474336 
0.655492 0.7546409 -0.029110739 
0.8233243 -0.443498 -0.35418436 
0.9904389 0.12873825 0.04957098 
0.36655116 0.85412234 0.36893815 
-0.055215713 0.017398825 0.9983229 
0.1638127 0.4669949 0.86895406 
0.51448846 0.36041594 0.7780759 
0.0713408 -0.09979767 0.99244696 
0.098310076 -0.33130488 0.9383881 
-0.7171428 -0.2720893 0.641618 
0.5057228 -0.06348914 0.86035675 
0.48711404 0.35903805 0.79612297 
0.6026235 0.73294944 0.31564236 
-0.24215491 0.4323904 0.86856186 
-0.24647638 0.85361713 0.45889798 
-0.9611479 0.27535117 -0.019407943 
-0.4216976 0.30718085 -0.8531184 
-0.347274 0.91449314 -0.20761305 
-0.8487148 0.31184208 -0.42712727 
-0.591285 -0.2658095 -0.7613984 
0.041776396 0.40701833 -0.9124642 
0.15622397 -0.41634354 -0.8956853 
0.15627582 -0.506614 -0.84789157 
-0.08671713 0.5504743 -0.8303362 
0.7762266 0.41010725 -0.47883654 
0.33942544 0.8183741 -0.46373948 
0.5378646 0.46498594 0.7031997 
0.6577599 -0.09816456 0.7468037 
0.005082041 0.6463832 0.76299596 
0.3082671 0.8377365 0.45074272 
0.36598656 0.43542472 0.82247144 
-0.24164978 0.7045106 0.66728574 
0.34396887 0.18582009 0.920411 
0.38480988 0.75410604 0.5322082 
-0.311625 0.55331236 0.77248657 
-0.8203068 0.2636122 0.5075486 
-0.34528697 0.26261172 0.9010061 
-0.82162666 0.036687665 0.56884426 
-0.71780163 0.047902144 0.69459796 
-0.93031526 -0.35181433 -0.1036357 
0.23404142 -0.94147885 -0.24257426 
0.075338595 -0.9970418 -0.015219837 
0.3856156 -0.9221854 -0.029575055 
-0.23322369 -0.9643022 0.12541196 
0.062104214 -0.99660146 -0.054116197 
0.17979757 -0.97113544 0.15674436 
0.5470622 0.14283355 0.8248161 
-0.18040451 -0.08336101 0.98005366 
0.116567 0.08939887 0.9891511 
0.40924406 0.27732944 0.86925703 
-0.41866094 0.6347528 0.6494705 
-0.15445235 0.45045617 0.87933713 
-0.37404048 -0.11127804 0.92071223 
-0.4223701 0.05163498 0.9049516 
-0.75538504 0.118821286 0.6444183 
-0.04354723 0.8324141 0.55244035 
0.43694887 0.7386269 -0.5133285 
0.4543441 0.26331422 0.8510212 
-0.17699888 0.4402488 0.88025707 
-0.5679269 -0.36988923 0.735283 
-0.7295557 0.18214625 0.65922016 
0.0155344475 0.8819892 0.47101375 
0.24239536 0.402651 0.8826758 
0.24341807 0.43368593 0.8675623 
-0.74914646 -0.03799647 0.66131383 
-0.66094285 -0.36609593 0.6550789 
-0.8921828 0.042695966 0.44965214 
-0.50152755 -0.48889905 0.71375614 
-0.25454286 0.035501294 0.9664096 
0.133174 0.72203994 0.6789132 
0.37611106 -0.12074182 0.91867405 
0.83245903 0.4149814 0.36715463 
0.28597587 -0.5036651 0.81519276 
-0.10059244 -0.124733075 0.98707795 
0.029354554 0.80323964 0.5949322 
-0.59417456 0.80012584 -0.082190305 
-0.36888573 0.6872877 0.6257468 
-0.22961551 0.60582227 0.7617456 
-0.68539226 0.69180906 0.22723936 
-0.5254289 0.8116409 -0.25527126 
0.21170692 0.40276638 -0.8904828 
0.7221925 -0.06314577 -0.68880373 
0.6137141 0.7557459 0.22848016 
-0.12423711 0.57462984 0.80892885 
0.2435265 0.84818536 0.47040042 
-0.41503102 0.9097069 0.013519033 
-0.8384612 0.5430723 -0.045333963 
-0.08339162 0.057110682 0.99487907 
-0.72689176 0.61074144 0.31404346 
-0.8220988 0.38288084 0.42137393 
-0.960988 0.030016866 -0.27495685 
-0.66041124 0.24428535 -0.7100576 
0.12107871 0.15690874 -0.9801631 
-0.4364095 0.44338223 -0.78291696 
0.35821378 -0.15250358 -0.92110026 
0.6607638 0.538064 -0.523334 
0.38525552 0.68238366 -0.62123334 
0.8886038 0.43875194 0.13371627 
0.7754559 0.4620278 0.4303469 
-0.121403016 0.14275031 0.98228496 
-0.34285456 -0.6539115 0.67442614 
-0.0046633715 -0.5594542 0.82884824 
-0.06797969 -0.1739003 0.9824142 
-0.6275923 0.035347328 0.77773935 
-0.74574524 0.28468212 0.6023456 
-0.9826553 0.16015047 -0.09349031 
-0.41807172 0.30895004 -0.8542634 
-0.15781851 0.046285648 -0.9863828 
0.36124685 0.87920713 -0.3106376 
0.083718985 0.98472244 -0.152686 
0.5293391 0.724795 -0.44099027 
-0.13691607 0.75783825 -0.6379148 
0.0962009 0.57158804 -0.81488204 
0.78732413 0.39674073 -0.47192982 
0.73700386 0.67588866 0.00023077069 
0.43534446 0.52934897 0.7281929 
-0.8000322 0.57043695 0.18587653 
0.57864356 0.76834875 -0.27351758 
0.33603454 0.9345425 0.11709505 
-0.58438003 0.8114748 -0.0029214525 
-0.38563347 0.9117803 0.14122131 
-0.41950238 0.65172815 0.6318768 
-0.4027915 0.87041867 0.28307307 
-0.525193 0.50780016 0.6828699 
-0.26076558 0.5485847 0.7943905 
-0.04745574 0.8413179 0.5384535 
-0.23669454 0.81472814 0.5293333 
-0.09053276 -0.27666485 0.9566925 
-0.26286682 0.40889436 0.8739031 
0.6390734 -0.2747298 0.7184072 
-0.4086052 0.24510354 0.87918496 
0.6026881 0.24726492 0.75870097 
0.15913674 0.12899972 0.9787924 
0.42861998 0.21582632 0.8773278 
0.25721157 0.7716957 0.5816597 
-0.076331235 0.89932674 0.43056372 
0.3476543 -0.11067022 0.9310686 
-0.275166 0.6417245 0.7158724 
-0.22774203 0.32700884 0.9171689 
0.24859472 -0.21498595 0.9444479 
0.9253502 -0.21107939 0.31491673 
0.55308473 -0.16929278 0.8157434 
0.22697556 0.40199885 0.887062 
-0.65594727 0.7508872 0.076823056 
-0.14900164 0.9266195 0.34521702 
0.12595704 0.98126477 0.14578895 
-0.3116166 0.9495287 -0.03592276 
-0.16408542 0.2775851 -0.9465847 
0.52799946 0.3563708 -0.77085435 
0.25335327 -0.5058329 -0.8245879 
0.6140514 0.7760659 -0.14374574 
-0.27415195 0.87378013 -0.40168273 
0.4005168 0.4146032 -0.8171234 
-0.0628085 0.8911294 0.4493812 
0.31812376 0.37879792 0.8690855 
0.13519311 0.23405072 0.9627789 
-0.08220659 0.6538478 0.752147 
-0.7910614 0.072211996 0.6074598 
-0.453065 0.39630952 0.7985431 
-0.19071963 0.97732013 0.09204056 
0.078361236 -0.098788105 0.9920184 
-0.7522016 0.32438043 0.5735593 
-0.72397465 0.5303508 0.44112217 
-0.5769466 0.8055738 -0.13484581 
-0.3589013 0.9330243 0.025605096 
-0.06602523 0.098446816 -0.9929496 
-0.18989012 0.26955923 -0.9440761 
0.11338833 -0.44070056 -0.89046407 
0.7930946 -0.15004468 -0.59032845 
0.8821174 -0.46112883 -0.09606856 
0.8619402 -0.49680814 -0.10119743 
0.52239627 -0.8299592 0.19562727 
0.9323152 -0.014077497 -0.36137295 
0.89770496 -0.16063747 0.41026998 
0.8263702 0.5273613 -0.19749062 
0.6528869 0.72823656 -0.2083511 
0.8518408 0.32057655 -0.41424394 
0.41066343 0.46024537 0.7871021 
-0.27812988 0.30069026 0.912266 
0.0245782 0.13104624 0.9910715 
0.06296621 -0.049371686 0.9967938 
-0.40329683 -0.30535442 0.86261827 
-0.19278483 0.009225516 0.9811977 
0.7538612 -0.4581704 0.4709281 
-0.39723268 -0.90636903 -0.14388001 
-0.14799072 -0.45150378 0.8799109 
-0.0173844 -0.0007399517 0.9998486 
-0.34902233 0.7120998 0.6091777 
-0.848791 0.23529175 -0.47348884 
-0.8992479 -0.38483548 -0.20797814 
-0.82917726 -0.55890226 0.009666646 
-0.759 -0.4467771 -0.47361284 
-0.2849367 0.084397554 -0.9548237 
-0.07189398 0.88439226 -0.4611743 
0.8489886 0.49182314 -0.19320558 
0.56979746 0.814134 0.11187876 
-0.22312476 0.79455745 0.56470686 
-0.46674812 0.2751551 -0.8404974 
-0.29243264 0.3176271 -0.9019958 
-0.40563107 0.5290453 -0.74536884 
0.69846237 0.03440713 -0.7148193 
0.76673603 0.36961848 -0.5248791 
0.938371 -0.09171872 -0.333238 
0.91857225 0.37547344 0.12347023 
0.95839316 0.19134595 -0.21182406 
0.91869366 0.35768116 -0.16752967 
0.6379573 0.5325879 0.556202 
0.81432754 0.56615424 0.1278287 
0.9983442 0.052833468 -0.022751676 
0.21633059 0.42407334 0.87941056 
-0.39828694 0.43570864 0.8071714 
0.1686305 -0.6148419 0.7704111 
0.6344765 -0.47339204 0.6110152 
-0.41002095 -0.23538016 0.8811805 
0.5431673 0.5067744 0.6694394 
0.5534489 -0.68304527 0.47659588 
0.49187338 0.03795415 0.86983913 
0.92395526 0.060263634 0.3777233 
0.45414263 -0.08395509 0.8869645 
0.5741265 0.21388415 0.7903369 
0.71896845 0.6429128 0.26409766 
-0.13193165 0.5324608 0.8361098 
-0.44612876 0.40719795 0.7969687 
0.28157532 0.82485366 0.4902365 
-0.05470272 0.639026 -0.7672375 
-0.29188028 0.94930446 -0.11673519 
0.5250898 0.8277798 -0.19763926 
0.5131937 0.7168221 0.47201517 
-0.37813422 0.25869194 0.88887185 
-0.48845297 -0.38218293 0.7844425 
-0.28546536 0.5139911 0.8089022 
-0.99049795 0.118188344 0.07032333 
-0.8562744 0.43499067 0.278527 
-0.8389779 0.54412663 0.0065075024 
-0.4978689 0.8581663 -0.12520939 
-0.5655235 0.6873301 0.45580748 
-0.9380781 0.038804248 0.34424382 
-0.51371455 0.85763955 0.02348923 
-0.2544508 0.9403622 0.22577389 
0.24926369 0.84089077 0.48038575 
0.8198252 0.5401184 0.19015461 
0.4582878 0.75108874 -0.47522435 
0.017542962 0.9825184 -0.18533774 
0.14032902 0.98288274 -0.119370714 
0.60090727 0.7992893 -0.006865299 
0.01757484 0.69284433 0.720873 
-0.32984784 0.321664 0.887543 
-0.35067946 0.8860745 0.3031436 
-0.38834602 0.51621664 0.763353 
-0.29449478 0.83760035 0.4601071 
-0.42489693 0.44335732 0.7892382 
-0.8267264 0.5615426 0.03454623 
-0.06242818 -0.026444286 -0.9976991 
0.26880684 0.86859924 -0.4162671 
0.2981395 0.73052657 0.6143645 
0.37261644 0.7573735 0.5362298 
0.5420251 0.83972996 0.032595426 
0.41624543 0.7007692 0.5793638 
0.9683324 0.241251 0.06426742 
0.3746451 0.25001395 0.8928237 
0.3991929 -0.20637242 0.8933396 
0.008345534 -0.5005303 0.8656788 
0.8602821 0.20018171 0.46887302 
-0.14654902 0.07015787 0.9867124 
0.10397966 -0.20320706 0.97359914 
-0.3899885 -0.51989055 0.760015 
0.74259365 -0.38723454 0.5464468 
0.44835174 -0.2022622 0.87067264 
0.117408864 0.323925 0.93876934 
-0.20459977 0.689249 0.6950359 
-0.34954634 0.7509754 0.5602263 
-0.27385905 0.8394351 0.46941462 
-0.22228749 0.8551503 -0.46830153 
-0.3338022 0.490344 -0.8050707 
-0.72311383 0.12722665 -0.6789108 
-0.45924515 0.73067653 -0.50517905 
0.85968745 0.50886166 0.044693287 
-0.40846816 -0.43670544 -0.80152494 
-0.22402848 -0.25584903 -0.9404003 
0.32984975 0.056928944 -0.94231546 
0.97934866 0.18947642 -0.07053373 
0.97734296 0.031704232 -0.20927411 
0.6009383 0.085427 0.79471725 
0.45885152 -0.29920676 0.8366186 
-0.15694472 0.38083923 0.91122437 
-0.22629006 0.7732055 0.5924071 
-0.14928822 0.61720586 0.772509 
0.01931876 0.6518451 0.7581061 
0.40754548 -0.14126128 0.9021929 
-0.14661014 -0.045270674 0.9881579 
-0.14025795 -0.16016613 0.9770745 
-0.5573278 -0.11738719 0.8219525 
-0.84217936 0.09459737 0.5308345 
-0.33003718 0.89034545 0.31362474 
-0.8065741 0.48794383 0.3336902 
-0.99207276 -0.12292096 -0.026116371 
-0.025870247 -0.66339064 -0.7478259 
-0.77013683 -0.6082376 -0.19218798 
-0.45169908 -0.6681651 -0.591205 
-0.17213848 -0.9330006 0.31603524 
-0.4201905 -0.84415257 0.33293614 
0.5164263 -0.8388583 0.17210658 
0.8624114 -0.19256932 0.46814916 
0.29297522 -0.6659775 0.6860318 
0.029443754 -0.43969867 0.8976627 
0.84141076 -0.1019427 0.53069353 
0.17162421 0.06099346 0.98327255 
0.4632897 0.0625819 0.8839945 
-0.54427826 -0.76760787 0.33843648 
-0.0055621862 -0.4034907 0.9149669 
0.06558779 0.63690746 0.76814526 
-0.24399553 0.63822657 0.73015964 
-0.20389579 0.64829963 0.7335763 
0.23268676 0.47406754 0.849186 
0.23029375 0.44822344 0.86374795 
0.08310269 -0.06492443 0.9944238 
-0.34350902 -0.06886826 0.9366209 
-0.31258816 0.8158376 0.48651588 
0.003079251 -0.06503511 0.99787825 
0.10613231 -0.56210726 0.82022643 
0.26337588 0.050378338 0.963377 
-0.26495725 0.15752603 0.9513061 
-0.36879465 -0.23565426 0.8991428 
-0.07617454 -0.56470585 0.8217693 
0.24019983 -0.42981339 0.87038183 
0.6102542 0.27959052 0.741228 
0.4629065 -0.13787147 0.8756193 
0.7655757 -0.61237854 0.19719635 
0.5743115 -0.56474686 0.59264433 
0.061460894 -0.3894728 0.91898507 
0.08930968 0.6899355 0.7183404 
-0.0052378583 0.6301221 0.77647847 
0.13885888 0.85864115 0.49341017 
-0.36560076 0.929937 -0.039413597 
-0.0819907 0.98258954 0.16671985 
-0.07110471 0.9893546 -0.12697098 
0.38133347 0.9085429 0.17068931 
0.68252623 0.2277329 -0.6944751 
0.21338682 0.84893334 0.48350608 
0.3740732 0.88811886 0.26704702 
0.049522866 0.79281163 0.6074514 
-0.43193004 0.05235977 0.90038604 
-0.72953194 -0.39267474 0.5599908 
-0.962919 -0.26018214 0.071360305 
-0.9187395 0.07060702 0.38850018 
-0.42379016 0.70112926 0.5734281 
-0.3652029 0.9149509 0.17173196 
-0.18833502 0.9750264 -0.11770099 
-0.28651822 0.93288827 -0.21823578 
-0.59635746 0.67535347 -0.43388426 
0.50250846 0.66519487 -0.55226904 
0.81151813 0.44657704 0.37683848 
0.62918484 0.5820137 0.51515687 
0.5501086 0.1499443 0.82152134 
0.10192584 0.26933128 0.9576386 
-0.62258875 -0.30302596 0.7214975 
-0.24514769 0.20163107 0.9482866 
-0.420831 0.22518508 0.8787452 
-0.4577364 -0.02562861 0.88871855 
-0.59229004 -0.059994046 0.80348814 
-0.9514408 0.1288802 0.27955365 
-0.9326219 0.2695313 0.23993607 
-0.15503083 0.8466925 -0.50899637 
0.2983617 0.86725044 -0.39856893 
0.6039361 0.7966479 -0.024767661 
0.5670136 0.8224474 -0.045563467 
0.4156547 0.46053693 -0.7843067 
0.35059494 0.9351545 -0.050688647 
-0.45989117 0.884219 0.081590585 
-0.7405515 0.3926822 -0.54532945 
0.10471623 0.7749679 -0.623265 
0.17233506 0.98460907 0.029081743 
-0.2821379 0.9159532 0.28535563 
-0.07092361 0.9050603 0.4193278 
0.032252442 0.98340356 0.17854217 
0.4714533 0.7554501 0.45500225 
0.54901606 0.30648872 0.77759004 
0.08028032 0.81903934 0.5680931 
-0.0061595268 0.7593234 0.65068424 
-0.28789902 0.8549971 0.4313864 
-0.39569926 0.33217108 0.8562036 
-0.7951226 0.22043347 0.56496817 
-0.64568114 0.56919587 0.5090304 
0.12711129 -0.12006062 0.98459554 
-0.22344501 0.3407481 0.9132159 
-0.10545468 -0.21710144 0.9704362 
-0.44331902 -0.5588281 0.700842 
0.17283659 -0.34638268 0.92203397 
0.45465752 -0.35042065 0.8188357 
0.19529845 0.29273874 0.9360356 
0.43450502 0.3538666 0.8282414 
-0.34969118 0.73874605 0.5761687 
0.22703102 0.3615555 0.90428674 
0.33013976 0.32258064 0.88710177 
0.27240515 0.55687976 0.784653 
0.8877724 -0.11387116 0.44597492 
0.8870425 0.3545208 0.29575425 
0.5082924 0.055771768 0.8593768 
0.101024054 0.088731736 0.9909192 
-0.4386664 0.6551829 0.6150669 
-0.26742673 0.9282622 0.25848073 
0.024792358 0.94935876 0.31321448 
-0.7242069 0.5517841 -0.4135925 
-0.24148431 0.50667214 -0.8276283 
0.40616098 -0.14277099 -0.90257955 
0.70971954 0.3360756 -0.6191538 
0.6917859 0.55521715 0.46169934 
0.29189742 0.87682974 -0.38205433 
-0.13324474 0.87665683 -0.4622974 
0.39188564 0.79551953 0.46214113 
0.3640261 -0.080001496 0.92794657 
0.55682707 -0.15554743 0.81593424 
-0.21003105 0.0038311095 0.9776873 
-0.43756 0.13002695 0.8897383 
-0.19447772 0.4261749 0.8834894 
-0.4998324 0.4191711 0.7579335 
-0.76266855 0.4710518 0.4432233 
-0.7659427 0.26644546 0.58509713 
-0.74465305 -0.19009094 0.63981044 
-0.68930566 0.4338746 -0.58018154 
-0.09573101 0.80935276 -0.5794685 
-0.48445693 0.7484064 -0.4529784 
-0.07447556 0.79255265 -0.60523844 
0.5373501 0.3904404 -0.7475368 
0.8221468 0.35801783 -0.44260377 
0.83667886 -0.54674983 -0.032143515 
0.18558712 -0.2364065 -0.9537659 
0.75113004 -0.118347056 -0.6494596 
0.48063675 0.1153684 -0.8692978 
0.7370507 0.5599731 -0.37839988 
0.7967133 0.40635586 -0.4473512 
0.57781005 0.7676626 0.2771821 
0.8778059 0.3800846 0.29153463 
0.8726147 0.40177196 0.27771014 
0.14954276 0.40709782 0.90105957 
0.0043109315 0.23072168 0.97301024 
-0.13696548 -0.19500284 0.97119224 
-0.8600184 0.019428238 0.5098931 
-0.54300445 0.32586905 0.77392226 
-0.596532 -0.5592917 0.5756236 
-0.92010164 -0.30360663 0.24745925 
-0.81766665 -0.5503876 -0.16880375 
-0.92400885 -0.36984128 0.09708359 
-0.93271595 -0.14239149 -0.33130914 
-0.98813397 0.08488383 -0.12800838 
-0.6418358 -0.008529705 -0.7667946 
-0.9952104 -0.07647276 -0.06089578 
-0.9108188 0.23921253 -0.33643207 
-0.2524314 0.44636655 -0.8585077 
0.24754995 0.72299063 -0.6449835 
-0.009776074 0.88975126 -0.456341 
-0.15602814 0.98407924 0.08510742 
-0.19377883 0.9166984 -0.34944808 
-0.3270185 0.28336468 -0.90153396 
-0.3519581 0.6179328 -0.70305383 
-0.39744946 0.79069954 -0.46564832 
0.49824324 0.74593 -0.4419752 
0.77227247 0.56177783 0.2966495 
0.98788565 0.06523836 0.1408045 
0.101313986 0.765782 0.6350697 
0.5433709 0.83882654 0.033441853 
0.5221491 0.8044605 -0.28320253 
0.3296715 0.9312707 -0.1550863 
0.53616357 -0.21846879 0.81535274 
0.2849654 0.068151385 0.956112 
0.34731555 -0.15850754 0.92425495 
0.39544404 -0.045227215 0.917376 
0.14525463 -0.90079385 0.40923306 
0.46147487 -0.639902 0.6144644 
0.09480639 -0.5139145 0.85258645 
0.34835532 0.35472453 0.86765146 
0.34298462 -0.23747441 0.90882754 
0.45776054 -0.043176334 0.8880265 
0.95100707 -0.08917136 0.29603037 
0.6267412 -0.3301607 0.70582545 
0.06346942 -0.449167 0.89119065 
-0.2683885 0.3532287 0.8962127 
-0.28254744 0.20780507 0.9364743 
-0.4614347 -0.3419265 0.8186356 
-0.24483721 0.096400484 0.9647599 
-0.34236884 0.25535664 0.9041994 
-0.0698508 0.6923153 0.71820647 
0.028560312 0.5507198 0.83420146 
-0.393855 0.22224855 0.891899 
-0.32053772 -0.052397773 0.94578546 
-0.46689746 -0.45840555 0.7562217 
-0.4949706 -0.29339296 0.81787825 
-0.81332624 -0.2230622 0.537349 
-0.3588522 0.15229662 0.9208859 
-0.75805396 0.031051576 0.65145236 
-0.41229725 0.43857938 0.79853565 
-0.10528929 0.51025844 0.85355175 
-0.32137895 0.8393867 0.4383441 
-0.693087 0.28735852 0.66110176 
-0.70543414 0.52138865 0.48012146 
0.09924102 0.84085023 0.53209233 
-0.23539734 0.46835572 0.851605 
-0.1479561 0.78524107 0.60125333 
-0.25277698 0.9063837 0.33848536 
0.7452635 0.66662616 -0.0138571495 
0.7137802 0.6889704 0.12584805 
0.8479917 0.5234836 0.08291552 
0.274833 0.8871038 0.3708283 
-0.2762541 0.8986726 0.34069246 
0.17390828 -0.16622806 0.9706309 
-0.07702889 0.5400853 0.8380778 
-0.6946026 0.2177506 0.6856471 
-0.3250238 0.945037 -0.03556177 
-0.50258094 0.64739037 -0.5729731 
-0.12776835 0.9214105 -0.366985 
-0.07605854 0.98057044 -0.18082255 
-0.14349411 0.842337 0.5194977 
0.5373167 0.7804068 0.3197751 
0.5413483 0.5908222 0.59822345 
0.16154493 0.32845587 0.930602 
-0.19292554 0.18847212 0.9629424 
0.4190274 -0.2616492 0.86945724 
0.7284513 -0.26707113 0.6308976 
0.9502956 -0.24866481 0.18736103 
0.67636013 -0.4517773 0.581751 
0.45005167 -0.12908387 0.88362366 
-0.36630172 -0.84364676 0.39253446 
0.52079606 -0.7888018 0.3264404 
-0.17447446 0.119248815 0.97741413 
-0.12484355 0.09660475 0.9874622 
-0.08477053 0.28299707 0.95536727 
-0.102176644 0.69905865 0.7077266 
-0.31292284 0.94161487 0.124260694 
-0.53686714 0.8307445 -0.14709611 
-0.68302774 0.5854226 -0.43675354 
-0.117938615 0.060580317 -0.9911713 
-0.02082975 0.7158823 -0.69791025 
0.81850475 0.5734672 -0.034431636 
-0.27761164 0.38812834 -0.8787993 
-0.023390776 0.4189401 -0.9077126 
0.28264293 0.51153797 -0.81144434 
0.9063522 0.34896857 -0.23821567 
0.7419335 0.66879326 0.047436297 
0.5907387 -0.030258717 0.80629545 
0.7697305 -0.059143912 0.63562334 
0.4437316 -0.13901444 0.88531196 
0.45630595 0.5084568 0.7302443 
-0.19868305 -0.05280359 0.9786403 
-0.13015693 -0.015946707 0.99136513 
-0.62265587 0.22989629 0.74796224 
-0.7504574 0.6464122 0.13771369 
-0.9203378 -0.35619715 0.16156122 
-0.66913074 -0.5164471 0.53436553 
-0.59452254 -0.18551022 0.7823867 
-0.6004589 0.3191627 0.73320144 
-0.23565064 -0.12849739 0.96330535 
-0.44998017 -0.8480853 -0.27976647 
-0.65244585 -0.51909435 -0.5521372 
-0.06873492 -0.9965942 0.045559138 
0.02538264 -0.91273946 0.40775296 
0.42888254 -0.85767746 0.2836359 
0.6921295 -0.7217566 0.004920228 
0.4857754 -0.34654546 0.8024516 
0.31112522 -0.40683228 0.8588881 
0.6104679 -0.526067 0.59210014 
0.77330375 -0.49924472 0.39084032 
0.666462 -0.005437007 0.7455192 
0.5919293 0.22929531 0.7726858 
0.46689063 0.5097496 0.72261226 
0.01753141 0.18328686 0.9829031 
0.2843732 -0.30985442 0.90726084 
0.060882185 0.71370405 0.6977965 
0.14772555 0.5300654 0.8349898 
0.21783766 0.7439989 0.6316744 
0.23498021 0.46732837 0.8522844 
0.5682346 0.047847897 0.82147425 
-0.14333433 -0.21651165 0.96570086 
-0.3858018 8.281147e-05 0.9225818 
0.085537665 0.51970947 0.85005033 
-0.4734858 0.15782043 0.8665472 
0.22210085 0.24279565 0.9443101 
-0.05461609 -0.4478029 0.89246273 
0.4175527 -0.65645653 0.6282631 
0.14006102 -0.7774961 0.6130928 
-0.15363467 -0.47102612 0.86863744 
-0.12448714 -0.63325363 0.7638671 
-0.43106884 -0.2837606 0.85653937 
0.0024099501 -0.96716106 0.25415304 
0.1747707 -0.838927 0.51541895 
0.2849292 -0.7201214 0.6326458 
0.013964161 -0.5526534 0.83329433 
-0.09655087 0.29546103 0.9504634 
-0.21025379 0.79640275 0.5670414 
-0.105736844 0.8303706 0.5470873 
0.16151474 0.6810288 0.7142219 
0.0026611208 0.91933185 0.39347422 
-0.5676284 0.78023803 0.26272926 
-0.7193066 0.53559566 0.44241995 
-0.16093628 0.95615077 0.24469447 
-0.03403851 0.84727913 0.53005624 
0.47913286 0.55509835 0.6799248 
-0.25985256 0.24373405 0.93438244 
-0.20528524 -0.2686576 0.9411064 
-0.7237566 -0.0037436758 0.6900453 
-0.83953136 0.5431043 -0.014991676 
-0.767999 -0.5259206 -0.36549297 
-0.7389429 0.5209299 0.42731193 
0.050434258 0.69113433 0.7209645 
0.22870624 0.5058799 0.8317325 
-0.6875415 0.55332553 0.47023138 
-0.22194822 0.6446217 -0.73157495 
0.83224833 0.5025758 0.23405182 
0.46094838 0.577937 0.67343557 
0.12789305 0.9218683 0.36578974 
0.054470953 0.573458 0.81742215 
0.12347227 0.39645818 0.90971184 
-0.8117887 0.3305571 0.48138458 
-0.7380192 0.63956285 0.2151443 
-0.70373076 0.16231765 0.6916762 
-0.41981456 -0.89711493 -0.13762482 
-0.314263 -0.18731682 0.9306725 
-0.83833164 0.4865338 0.24593706 
-0.62210727 0.48607984 0.6137663 
-0.91350985 0.3656237 0.17837876 
-0.05887306 0.80221814 -0.59412134 
0.6411981 0.75372684 -0.14408632 
0.5643275 0.82201153 -0.07636471 
0.4707332 0.863695 -0.18011454 
0.14964575 0.9349886 0.32156277 
0.49488994 0.7599433 -0.42139065 
-0.25530416 0.9593332 -0.12041516 
-0.148172 0.98884153 -0.01541499 
0.11850143 0.9619287 0.24627335 
0.20117259 0.23774123 0.95026773 
0.18586813 0.7533369 0.6308221 
0.26842374 0.8987556 0.34667993 
-0.5247316 0.8031997 -0.28200543 
0.30652067 0.79838717 0.5182886 
0.3130718 0.4877722 0.81490153 
-0.11938512 0.19173768 0.9741581 
-0.46394578 0.5060415 0.7271013 
-0.58559597 -0.25885114 0.7681624 
-0.8821792 0.12973231 0.45269144 
-0.90189683 0.22450718 0.36902386 
-0.66559017 -0.24714397 0.70420855 
-0.37560433 -0.3366423 0.86347747 
-0.040987067 -0.7938051 0.60678965 
-0.047904793 -0.8798141 0.47289765 
-0.12879129 -0.7433521 0.6563844 
0.10172703 -0.71916676 0.6873507 
-0.17105173 -0.50624025 0.84525865 
0.46890947 0.28017136 0.83763236 
-0.014716793 0.05857968 0.9981743 
-0.20313375 0.042394493 0.97823286 
0.34494793 0.57473785 0.74208313 
-0.122270934 0.16792199 0.97818816 
0.65901494 -0.023009147 0.75177777 
0.61112505 0.31810004 0.7248025 
0.73474866 -0.09832018 0.67117625 
-0.1559104 0.29708478 0.94203645 
0.25200078 0.9158729 0.31252608 
0.18760937 0.69711345 0.6919795 
-0.38676557 0.7852828 0.48347014 
-0.56828594 0.73911613 -0.3616055 
-0.60047 0.5341816 -0.59505105 
0.49140546 0.311215 -0.81342846 
0.840283 0.47282484 -0.265257 
0.65355533 0.6390729 0.40552592 
-0.021922916 0.963161 0.2680308 
-0.29169127 0.85946536 0.41980425 
0.4337832 0.2926499 0.85216683 
0.14158478 0.57666725 0.8046172 
-0.13046722 0.341421 0.9308116 
-0.82628196 0.5377484 0.16758509 
0.023067066 0.6029284 0.79746187 
-0.41456157 0.43400645 0.7998608 
-0.090017356 0.6958217 0.71255106 
-0.58799523 0.4691326 0.6589205 
-0.39725053 0.17884685 0.9001144 
-0.63510406 0.039436344 0.7714192 
-0.2907766 0.9524264 -0.09128603 
-0.3287482 0.94158906 -0.073039986 
-0.639485 0.7577209 -0.13006926 
-0.3644148 0.57122034 -0.73546535 
0.45269132 0.31956765 -0.8324345 
0.30864048 0.65651345 -0.68828136 
0.8898503 0.0844302 -0.44837257 
0.5188216 0.6113027 -0.5976063 
0.52843904 0.56458557 -0.634031 
0.6273616 0.45971772 -0.62855154 
0.42944476 0.79741323 -0.42392153 
0.08970346 0.8725509 -0.48021698 
0.5422058 0.8091677 0.226408 
0.98782694 -0.011868882 0.15510346 
0.702782 0.5471347 0.45468804 
0.68867016 0.30098858 0.6596509 
-0.8175927 -0.25749937 0.5150112 
-0.345962 -0.29448405 0.8908364 
-0.9117768 -0.14274617 0.38507998 
-0.8641351 0.12186078 0.48828337 
-0.5524381 -0.20434502 0.80811834 
-0.97059125 -0.1404593 -0.19550946 
-0.4234702 -0.66771525 -0.6122331 
-0.7299565 -0.4000495 -0.5541876 
-0.91475457 -0.23509383 0.32856533 
-0.89899445 0.28778854 0.3301315 
-0.9519182 0.29923192 -0.06566741 
-0.961241 -0.2528575 -0.10990456 
-0.9410374 -0.023454709 -0.33748865 
-0.8065134 0.27606228 -0.5228058 
-0.38452262 0.36883697 -0.8462279 
-0.45004633 0.8535165 -0.26261756 
0.23888871 0.40656564 -0.88183707 
0.16981567 0.8397547 -0.5157274 
-0.32712525 0.9409653 -0.08702611 
-0.046093475 0.7093528 -0.70334494 
0.34026888 0.7134529 -0.6125375 
0.2754287 0.87898463 -0.3892622 
0.29091665 0.8016487 0.5222328 
0.85494864 0.25387335 0.45233968 
0.6235467 0.014136421 0.78165823 
0.17693529 0.31745926 0.93161875 
-0.022244299 0.61191094 0.79061395 
0.65090454 -0.024650011 0.7587594 
0.658557 -0.41455293 0.62805146 
0.17659183 -0.11850932 0.9771238 
0.49351767 -0.41834697 0.7625131 
0.592028 -0.2864308 0.7532996 
0.2031758 -0.85685843 0.47382852 
0.65095013 -0.506119 0.5657804 
0.28759632 -0.68157774 0.67285967 
0.6152697 -0.5913444 0.5213013 
0.6774315 -0.32202882 0.66135013 
0.4256152 -0.41533408 0.8039585 
0.7529243 -0.25737432 0.6056926 
0.46455616 -0.09762913 0.8801456 
0.5096156 -0.39190552 0.76596487 
0.4298692 -0.29370567 0.85378534 
-0.2129109 -0.19388357 0.957642 
-0.3078833 0.25562078 0.9164421 
0.09468955 -0.26769325 0.9588401 
-0.25062838 -0.28979874 0.9236895 
-0.5009296 -0.03314287 0.8648532 
-0.003437192 0.19911425 0.97997034 
-0.20940973 0.1054188 0.97212887 
-0.1438815 0.045795336 0.9885348 
0.04734697 -0.26491883 0.96310765 
-0.49436748 -0.30432814 0.814239 
-0.38124186 -0.6192443 0.6864337 
-0.28797656 0.67939293 0.6749035 
-0.5392787 -0.2875936 0.7914976 
-0.6723134 0.45400256 0.584702 
-0.830282 0.1772638 0.52840275 
-0.6190144 0.2733908 0.73625994 
-0.5901574 0.69586754 0.40924644 
-0.54703075 -0.17013659 0.8196407 
-0.23183285 -0.09721215 0.9678861 
-0.30432728 -0.3079619 0.9014125 
0.08709826 0.30340186 0.94887376 
-0.30847806 0.5378949 0.7845447 
0.99122494 0.13036905 -0.021844512 
0.7998229 0.5633129 0.20727283 
-0.08562666 0.99332774 0.07725307 
-0.16975974 0.971863 0.16329144 
0.3387736 0.8702996 0.35750687 
0.12491181 0.8374964 0.53197443 
0.07576302 0.3982973 0.91412216 
-0.53867763 0.44341654 0.7163856 
-0.72270215 0.6889058 0.055772085 
-0.4953164 0.8477947 -0.18948843 
-0.035131957 0.9569015 -0.28827992 
0.47887912 0.8009126 0.35946336 
0.2570128 0.13606575 0.9567814 
0.7525353 0.21622704 0.6220422 
0.22854589 0.6383474 0.7350371 
-0.12220891 -0.39473873 0.9106297 
0.052382648 -0.509617 0.8588053 
0.37335867 -0.15537103 0.9145836 
0.92952025 -0.045561507 0.36594576 
0.6759716 0.17508858 0.7158257 
0.6383733 0.15503429 0.7539522 
0.5698136 0.07894409 0.8179733 
0.6231038 -0.035244834 0.78134465 
0.97911566 -0.054747704 0.19579363 
0.40845525 0.13728118 0.9023959 
-0.058175206 0.20097414 0.97786766 
0.13895589 0.009760966 0.9902505 
-0.6175763 0.48124507 0.6220955 
-0.40522346 0.59128195 0.6972659 
-0.598092 0.7980718 0.07326208 
-0.4049795 0.89293534 -0.1966169 
-0.0026467652 0.9627686 -0.27031413 
-0.47228953 0.7814192 -0.4078316 
0.2708908 0.9560996 0.11176608 
-0.07168662 0.9406478 -0.33172718 
0.13940568 0.96391505 -0.2267906 
0.2347414 0.8962004 -0.37645912 
0.7532635 0.3439296 0.5606305 
0.73575836 0.67522764 -0.05222335 
0.5943503 0.43040055 0.6793403 
0.39928532 0.12943935 0.9076435 
0.5847002 0.38097572 0.7162285 
0.48184276 0.6181902 0.6210221 
-0.06340919 -0.5984332 0.7986595 
-0.2842807 -0.20646442 0.93624616 
-0.4460594 0.07823594 0.8915774 
-0.82355285 0.26594025 0.5010356 
-0.62295896 -0.43068326 0.65301925 
-0.89779085 -0.41519788 -0.14690943 
-0.60435754 0.36866844 0.706283 
-0.5804437 0.4041509 0.7069281 
-0.5728301 -0.2404564 0.7836112 
-0.66024745 -0.7372651 0.14322531 
-0.6958209 -0.68361366 0.22023982 
0.26336363 -0.9620038 -0.072030574 
0.4797875 -0.74554366 -0.46256748 
0.81363475 -0.5488111 -0.19184622 
0.8334737 -0.5228893 0.17862926 
0.042888194 -0.7731585 0.6327612 
-0.45557263 -0.62350166 0.6353734 
-0.046030022 -0.61377406 0.7881388 
0.5359459 -0.6400058 0.5505947 