# OOMMF: rectangular mesh v1.0
# Segment count: 1
# Begin: Segment
# Begin: Header
# Desc: Time (s) :  2.4399999999999954e-07
# Title: m
# meshtype: rectangular
# meshunit: m
# xbase: 2e-09
# ybase: 2e-09
# zbase: 5e-10
# xstepsize: 4e-09
# ystepsize: 4e-09
# zstepsize: 1e-09
# xmin: 0
# ymin: 0
# zmin: 0
# xmax: 1.024e-06
# ymax: 1.024e-06
# zmax: 1e-09
# xnodes: 256
# ynodes: 256
# znodes: 1
# ValueRangeMinMag: 1e-08
# ValueRangeMaxMag: 1
# valueunit: 
# valuemultiplier: 1
# End: Header
# Begin: Data Text
0.14591238 -0.37839064 0.9140734 
0.8314071 0.55520093 -0.022676067 
0.09370376 0.9355925 -0.34042084 
-0.11720447 0.9655688 0.23225018 
0.1958675 0.9787964 0.059946973 
-0.514044 0.79592836 0.31977636 
-0.75770044 0.43547842 0.48605415 
0.0714947 0.7879998 0.6115103 
-0.29613084 0.9392442 0.17357092 
0.23006439 0.97315645 -0.006075927 
-0.049916293 0.25836366 0.9647573 
-0.3756087 -0.012327636 0.9266964 
-0.5898715 -0.43290287 0.68165004 
-0.026518455 -0.31680542 0.94811976 
-0.54661953 0.2269015 0.8060539 
-0.84797347 0.5038669 0.16449672 
-0.090248935 0.31771773 0.94388056 
-0.4527161 0.3084046 0.83662105 
0.06088111 0.4115173 0.90936625 
-0.5621118 0.37591162 0.7366959 
-0.9120579 -0.12674001 0.3899839 
-0.841279 0.053202637 0.537977 
-0.586822 0.80906314 0.032510526 
-0.8293201 -0.41241795 -0.37701428 
-0.60042137 -0.56511 -0.5658135 
-0.7845715 -0.08335977 -0.6144093 
0.03705269 -0.7425532 -0.6687615 
0.5804664 0.07316784 -0.81099033 
0.22914644 0.5859693 -0.7772592 
0.8890042 -0.17619073 -0.42264462 
0.97994924 0.15387811 -0.12657407 
0.8156073 -0.06839002 0.57455 
0.68160623 0.09949501 0.7249233 
0.12469959 0.67997 0.72255856 
0.4440815 0.8943706 -0.05378674 
0.53296053 0.843136 0.07123842 
0.8336272 0.1442026 0.533171 
0.2809461 0.6245539 0.7286986 
0.4694264 0.22963776 0.8525875 
0.4677832 0.67309207 0.5728228 
0.23947775 0.5540012 0.79732865 
0.20069 0.8654188 0.45910108 
0.19622563 0.7958831 -0.57277024 
0.41433948 0.3176747 0.8528807 
0.19947141 0.21872532 0.9551808 
0.0033704783 0.47652563 0.87915415 
-0.6788305 -0.41588643 0.60516745 
-0.38448542 -0.60995364 0.69291246 
-0.57925195 0.57737964 0.57541287 
-0.8355583 -0.26372555 0.48196608 
-0.7790882 0.24601676 0.57662576 
-0.95138294 0.30005512 -0.0695529 
-0.5436578 0.7623328 -0.35111952 
-0.996268 0.07400195 -0.04442904 
-0.4942688 -0.18097748 -0.8502621 
-0.9552555 0.19982553 -0.21807529 
-0.847916 0.17246652 -0.50129217 
-0.5531299 -0.28776574 -0.7818174 
0.54640937 -0.3168275 -0.77527887 
0.2503416 0.23381692 -0.93949926 
0.7527572 0.15857005 -0.6389148 
0.9380939 0.2929835 0.18477157 
0.5123576 0.59514886 -0.6191022 
0.6301029 0.7722253 -0.081476666 
0.77260697 0.075899936 0.6303314 
-0.19943762 0.4974165 0.8442758 
-0.046630166 -0.338116 0.9399485 
0.21608855 0.06024544 0.9745134 
-0.19346231 0.3316905 0.9233385 
-0.31305164 0.7207465 0.61848456 
-0.73535144 0.26032805 0.62568974 
-0.5674305 0.6853061 0.4564846 
-0.75515586 -0.57876384 0.307851 
-0.30812895 -0.7808243 -0.54347956 
-0.07378869 -0.9235213 -0.37638244 
0.35261506 -0.9187963 0.17741458 
0.12114324 -0.9874722 0.10110949 
0.3898303 0.869506 0.30330154 
0.12225073 -0.40482253 0.9061863 
0.13933453 -0.9337902 0.329578 
-0.41269088 -0.122211605 0.90263534 
-0.3687783 -0.72033614 0.58746785 
-0.21416964 -0.845755 0.48870224 
-0.024363782 -0.9823093 0.18567437 
0.53713167 -0.44713265 0.71523565 
0.6515687 0.7102003 0.26659682 
0.5513328 0.8240788 0.1301011 
0.7954976 -0.28079456 0.53697133 
0.14679623 -0.32889038 0.93288916 
-0.37460646 -0.1628978 0.912762 
-0.37955177 0.8942331 0.23725018 
-0.50694066 0.5128785 0.6927964 
-0.108067304 0.4317091 0.895516 
-0.73248863 0.6704503 0.118139006 
-0.5086855 0.8605475 -0.026403014 
-0.8957716 0.35412017 0.26868632 
-0.58073086 -0.014510093 -0.8139663 
0.109865546 0.27119818 -0.9562328 
0.119758405 0.40454605 -0.9066424 
0.6146713 0.6486517 -0.44880983 
0.65969074 -0.11067666 -0.74334306 
0.7213214 0.2644123 -0.6401419 
0.3315889 -0.41872165 -0.8454118 
0.6829912 0.6372313 -0.3570145 
0.11305233 0.9883906 -0.101504534 
0.09198673 0.97942895 0.17960325 
-0.76488495 0.2878678 -0.5762667 
-0.15294667 0.6986161 -0.6989585 
-0.68991244 0.22921798 -0.68664396 
0.18354599 0.5387999 -0.82219565 
0.9191755 0.067530975 -0.38801557 
0.9515585 -0.15075885 -0.26797068 
0.7216639 0.5120377 -0.4658527 
0.9414859 -0.33671603 -0.015061916 
0.2604393 -0.5356356 -0.80328447 
0.2784422 0.55774903 -0.7819118 
0.9775173 0.19588162 -0.07804045 
0.7496781 0.33709648 0.5695163 
0.14130521 0.7033639 0.6966435 
-0.5803836 0.57313645 0.5785063 
-0.24397449 0.94052374 0.23641375 
-0.7568553 0.3140278 0.57319856 
-0.69911844 0.16114166 0.6966109 
-0.48790905 0.58607215 0.64688814 
-0.3357656 0.90078515 0.27540433 
0.12864462 0.62429565 -0.77052295 
-0.2754664 0.64499134 -0.7128145 
-0.50782394 0.704566 -0.495683 
-0.28417325 0.8657183 -0.41204053 
-0.019016357 0.9860646 0.16527276 
0.83700496 0.0045479094 0.5471765 
0.21240942 0.4774202 0.852615 
0.19231382 0.082212165 0.9778837 
0.23723595 -0.21891974 0.94646364 
0.92956156 0.36414522 0.05756388 
0.11703901 0.43441775 0.8930751 
0.08644464 0.52846575 0.8445421 
0.05424644 0.40520328 0.9126158 
0.70265716 0.57711744 0.4161831 
0.23757714 0.95088065 -0.198452 
-0.027773468 0.9906816 -0.13333702 
-0.4501988 0.88921237 -0.08137918 
-0.6079252 0.76569706 0.2100833 
-0.17234842 0.98478025 0.022449704 
-0.5611188 0.77406985 0.29319206 
-0.94011945 0.27152193 -0.20603716 
-0.36304072 0.07114277 -0.92905337 
0.48869795 -0.37964472 -0.78552157 
0.47597837 0.40596804 -0.7801505 
0.694267 0.3216696 -0.643834 
0.74654436 0.44464654 -0.49493536 
0.92152786 0.3882608 0.006328542 
0.9155936 -0.3227203 -0.23987524 
0.9488775 -0.072763376 -0.3071433 
0.70484173 0.6973067 0.13023657 
0.95583916 0.27949965 0.0908374 
0.5870464 0.77575946 0.2314603 
0.9405972 0.06193201 -0.33382842 
0.8377261 0.27989817 0.46890527 
0.32192346 0.9455973 0.047023054 
0.17346404 0.81916404 0.5466997 
-0.0042326613 0.6793272 0.73382336 
-0.62883276 0.6551449 0.41875377 
-0.06673632 0.8269907 0.5582408 
-0.25996155 0.43249664 0.8633463 
-0.996088 -0.03219396 0.08229391 
-0.56549096 0.19960797 -0.8002355 
-0.7838091 -0.17404225 -0.59611464 
-0.25706372 0.04993572 -0.9651035 
0.08402717 0.70162785 -0.7075718 
0.15718699 0.80348426 -0.5741997 
0.2316639 0.6381123 -0.7342646 
-0.081610195 0.3616148 -0.92874897 
0.18907319 0.85295784 -0.48653305 
0.4796834 0.5355033 -0.69508284 
0.5053853 0.8263279 -0.2485314 
0.58379304 0.7236548 0.36811617 
-0.31708854 0.5369666 0.78174275 
-0.37105423 0.66506374 0.64808106 
-0.65448564 0.13196997 0.744468 
-0.9011372 0.4297255 0.057340976 
-0.34404626 0.8883915 0.3039618 
-0.3103634 0.90709466 0.28434807 
0.35228458 0.8597133 0.36984968 
0.7670122 0.6395026 -0.05223921 
0.72964346 0.65548915 0.19481899 
0.55951476 0.76819026 0.31117046 
0.22081518 0.93098396 -0.29070547 
-0.8640775 0.25661173 -0.43303657 
0.56878275 0.284819 -0.7715986 
0.41045442 0.82731605 -0.38350403 
-0.4364708 0.89916414 -0.031578273 
-0.7681193 0.57371664 0.28432712 
-0.8965322 -0.44282857 -0.01153395 
-0.6784328 -0.50163037 -0.5367458 
-0.6497545 0.2643546 -0.71269614 
-0.87734675 0.45187038 0.16148038 
-0.83022225 0.5000492 0.24633686 
-0.688509 -0.32479256 -0.6484329 
-0.58487505 -0.44661674 -0.6770928 
-0.3034512 -0.31222883 -0.90023917 
-0.26456037 0.043887626 -0.96336997 
0.43751475 0.12059512 -0.8910879 
0.70838434 -0.37844983 -0.59579146 
0.59484375 -0.52429736 -0.60932195 
0.16889013 -0.28191036 -0.944459 
0.63314736 -0.7735792 0.026453594 
0.6766325 -0.6313435 0.3789116 
0.42971182 -0.25716 0.86557287 
0.4767171 -0.21304013 0.852851 
-0.011457479 -0.29316172 0.95599425 
-0.85250413 -0.081997015 0.5162492 
-0.1624191 0.5483251 0.82034117 
0.2825414 -0.22370704 0.9328052 
0.06347958 -0.1318131 0.98924 
0.2743574 0.08506113 0.9578584 
-0.5727776 -0.2601645 0.7773289 
-0.46038732 0.39392594 0.7955288 
0.012788669 0.82498384 0.5650118 
0.81210667 0.5665642 0.13959883 
0.6860754 0.7275263 0.0024663464 
0.49494427 0.858252 0.13577111 
0.3869026 0.7190558 0.57729125 
0.40223953 0.83460116 0.3763565 
0.24471495 0.93421733 0.259524 
0.6781309 0.2441239 0.69321144 
0.82702625 0.49495244 0.2665513 
0.18698409 0.84640014 0.49864194 
-0.23382665 0.80687493 0.54247403 
-0.8777922 -0.29010272 0.38121063 
-0.794174 0.27754095 -0.54060954 
-0.81413186 -0.04938743 -0.578576 
-0.8853434 0.4171862 -0.20523831 
-0.28369123 0.12310686 -0.9509806 
-0.09435672 0.35322535 -0.9307679 
-0.35576516 -0.2429206 -0.9024527 
-0.37022296 -0.3967469 -0.8399565 
-0.75337255 -0.19321153 -0.6285692 
-0.24708194 -0.06257028 -0.96697235 
0.6971325 0.25036252 -0.6718072 
0.31419832 0.4452365 -0.8384771 
0.5715117 0.8163349 0.0834984 
0.76886326 0.63384044 0.08423594 
0.44368762 0.27655798 0.8524419 
0.28872177 0.5980237 0.747668 
0.19206154 0.65546656 0.7303945 
-0.61244655 0.58127344 0.53575224 
-0.45161423 0.75546175 0.47468123 
0.6476333 -0.11951557 0.7525206 
0.7676438 -0.13455646 0.62659204 
-0.07263178 -0.3535148 0.93260497 
0.16578026 0.07029139 0.9836545 
-0.88032264 0.43234032 0.19522764 
-0.9795935 -0.048981734 0.19492923 
0.38961568 -0.39878273 0.8301639 
0.022100253 -0.8078618 0.5889575 
0.31072664 -0.709497 0.63250536 
0.8563133 0.30441397 0.4172048 
0.48789543 -0.22360425 0.84377676 
-0.26533654 0.53870064 0.7996237 
0.54571295 0.6869823 0.4798466 
0.12496352 0.6673593 0.734177 
0.1526083 0.39319053 0.9067038 
-0.14015214 0.29812533 0.94418156 
-0.13019085 0.71932614 0.68236375 
-0.1651708 0.7848693 0.5972428 
0.6448366 0.208488 0.7353357 
0.3891317 -0.4018973 0.8288879 
-0.5070551 -0.1668289 0.8456142 
-0.35574263 0.38504252 0.8515807 
-0.30296066 0.13321531 0.94364643 
-0.3807908 0.044573233 0.92358637 
-0.65840715 0.3857001 0.6463247 
-0.84374607 0.5031116 0.18700653 
-0.8017522 0.5607873 -0.20666622 
-0.7486002 0.09116619 0.6567241 
-0.82887703 0.4846234 -0.27946928 
-0.91267633 0.39829576 -0.091555566 
-0.7758585 0.63021106 -0.029626481 
-0.65702873 0.29300293 -0.6945952 
-0.49454936 0.07125534 -0.8662238 
-0.11871904 -0.050670993 -0.9916342 
0.13507764 0.023939604 -0.9905458 
0.25440872 0.61487454 -0.7464621 
0.59186363 0.30448118 -0.7463168 
0.5518054 0.61394507 -0.5644309 
0.7937963 0.26346454 0.5481551 
0.221524 0.29731143 0.9287266 
0.41624796 0.23282506 0.87893695 
0.15077925 0.7259943 0.67096794 
0.17300649 0.954397 0.24330078 
0.45879024 0.7876246 0.41128942 
0.23090166 -0.1543121 0.96066236 
0.33767977 -0.12926826 0.93234235 
-0.15753163 0.3748419 0.9136068 
-0.04637674 0.6497492 0.7587326 
0.54373455 0.63075954 0.5536201 
0.11335903 -0.30110037 0.94683075 
-0.071323045 0.52034014 0.8509755 
-0.31737038 0.3328443 0.88797 
-0.1056184 0.025076583 0.99409056 
-0.045932617 0.21498716 0.97553617 
-0.033623718 0.6138733 0.7886883 
0.37289014 0.7765963 0.5077905 
-0.72387356 0.041765682 0.6886674 
-0.987003 -0.12661934 0.09895721 
-0.8009885 0.4885459 -0.34603524 
-0.7315734 0.44938514 -0.51269233 
-0.6559125 0.28962207 -0.69706374 
-0.9831629 0.17438893 0.054584373 
-0.54009223 0.6555015 -0.527843 
-0.8221916 0.56506854 0.06854679 
-0.57188576 0.08325112 -0.816098 
-0.40114698 0.71009845 -0.57865477 
0.57031626 0.55465215 -0.6058882 
0.6365152 0.54569805 -0.545034 
0.62090594 0.47584677 -0.62293315 
0.9903171 0.06967585 0.12007216 
0.7017965 0.60771 0.3717127 
0.26491198 0.5969406 0.75728714 
0.2972162 0.8898029 0.34628525 
-0.042469207 0.6835822 0.7286369 
-0.77512604 0.37143618 0.51109165 
-0.95895725 0.21456937 0.18536747 
0.0056599863 -0.49231294 0.87039983 
0.058492623 0.3119814 0.94828594 
-0.5380276 0.047070917 0.841612 
-0.82214355 -0.08065369 0.56353796 
-0.8163966 -0.56378573 0.12506954 
-0.24360536 -0.9698496 0.006954501 
-0.15797421 -0.821759 -0.5475002 
-0.16517572 -0.94881225 -0.269207 
0.46568692 -0.7775014 0.42264333 
0.5109225 -0.2609321 0.8190682 
0.6688644 -0.55699664 0.4923161 
0.10227325 -0.56970775 0.81545895 
-0.2973903 -0.5495423 0.78074473 
-0.7413447 -0.19364956 0.64257914 
-0.6885851 -0.17053178 0.70481884 
0.072864 -0.35022157 0.93382853 
0.26107356 -0.09835642 0.96029514 
0.45699644 0.68275976 0.57008195 
0.2552634 0.34722996 0.9023702 
0.68654567 -0.32504222 0.65038663 
0.7269357 0.101766884 0.67912304 
-0.5537435 0.16586004 0.81600165 
-0.55764115 0.5665623 0.60666597 
-0.7392771 0.40716794 0.53636146 
-0.6604473 0.5018664 0.5585155 
-0.55316955 0.81316733 0.1810039 
-0.90504605 0.2558246 -0.3397726 
-0.97882193 0.1787491 0.099782236 
-0.6212751 0.41008434 -0.6677185 
-0.24090858 0.5756692 -0.7813885 
0.5429754 0.3795712 -0.74906844 
0.75564533 0.19902456 -0.6240108 
0.74822885 0.11140059 -0.65402114 
0.3699656 -0.036911048 -0.928312 
0.94486564 -0.0755132 -0.31863266 
0.19197987 0.95948935 0.20621343 
0.73159385 0.6793894 -0.05657325 
0.35101533 0.7718739 0.53009325 
-0.036385085 0.82087123 0.56995314 
-0.73401535 0.67907023 0.0092282435 
-0.99820995 -0.016251825 -0.057558034 
0.51602286 0.70322144 -0.48908082 
0.65359455 0.52978927 -0.5404975 
0.26203564 0.2284307 -0.9376336 
0.021578483 0.77545357 -0.63103586 
0.05822597 0.39418626 -0.9171843 
0.5677868 -0.16844094 -0.80575794 
0.7762433 0.40268722 -0.48506615 
0.9588402 0.26988333 -0.08825234 
0.5571928 0.7482894 0.35999885 
-0.31246173 0.668823 0.6745692 
-0.6680179 0.34249964 0.66064066 
-0.55019623 0.48471427 0.6799531 
-0.123049244 0.9147186 -0.384901 
-0.13356544 0.6632921 0.73634493 
-0.5746176 0.6385789 0.51189035 
-0.06187273 0.92336816 -0.37889713 
-0.30068332 0.94774073 -0.10666374 
0.06422933 0.8642425 -0.4989585 
0.08566574 0.96695465 0.240125 
-0.40107104 0.67343146 0.6209929 
0.24136436 0.8771444 0.4151638 
0.65206426 -0.41760734 0.63278466 
0.30190045 -0.21486641 0.9288103 
0.54827416 -0.019530013 0.8360707 
0.74420077 0.17504668 0.64461154 
0.7801373 0.18676226 0.597081 
0.027555333 -0.09991424 0.9946144 
0.09522511 0.76790416 0.6334473 
0.0682391 0.09345148 0.9932826 
0.62708735 0.52687347 0.5737298 
0.4377583 0.85195035 0.2873122 
0.7118763 0.6696155 0.21177176 
0.15880196 0.96853155 0.19164726 
-0.24638587 0.8809447 0.4040179 
-0.62789345 0.7703703 0.11081293 
-0.8176621 0.2967648 0.49331465 
-0.6864301 0.2507517 -0.6825961 
-0.5520113 0.54257655 -0.6331622 
-0.097085595 0.9420637 -0.32107687 
-0.4592434 0.4838339 -0.74498343 
-0.07794561 0.29155028 -0.9533745 
0.42664778 0.5258164 -0.7358592 
0.44418457 -0.4553504 -0.7715932 
0.7439372 -0.13954279 -0.6535176 
0.812468 0.5468885 0.20201217 
0.2552209 0.72322375 0.6417241 
0.9574283 0.19275989 0.2148834 
0.5917139 -0.31459674 0.7422288 
0.9853185 -0.04256749 0.16533484 
0.17840971 0.10792709 0.9780193 
0.28450578 0.56821066 0.77213544 
0.070212305 0.6700497 0.7389882 
0.29580966 0.7155944 0.63278854 
-0.35965526 0.8028144 0.47553885 
-0.62472475 0.7788755 -0.055426154 
-0.44087774 0.22252288 0.86954606 
-0.91898906 0.38025638 -0.10423144 
-0.4854571 0.27468666 -0.8299871 
-0.7782691 0.54373485 -0.31408545 
-0.73043257 -0.409321 -0.54674006 
-0.21118432 0.24944386 -0.9450815 
0.4837641 0.4321024 -0.76109123 
0.3126592 0.78727627 -0.53145117 
0.097423464 0.8420395 -0.5305452 
0.31088248 0.22200039 -0.9241579 
0.900049 0.22456472 -0.37347367 
0.6826617 0.52712727 0.50607294 
0.5054234 0.4865183 0.71263397 
-0.3417903 0.53917605 0.76971996 
0.17069697 -0.42905375 0.8870036 
-0.717773 -0.45994446 0.5227362 
-0.7453589 0.09338261 0.6600908 
0.0383196 0.23704442 0.9707428 
-0.142404 0.7821251 0.6066313 
0.2627703 0.602804 0.7533784 
0.31151342 0.33103654 0.89071554 
0.47175562 0.8528089 0.22397265 
0.34990728 0.8683178 0.35155255 
-0.1914958 0.9504947 0.24472259 
-0.326171 0.79161924 0.5166733 
-0.045336884 0.96686894 0.25121522 
-0.004860606 0.81462306 0.5799704 
-0.35748503 0.6291878 0.6901647 
-0.028494764 0.8917845 0.45156235 
-0.96647 0.25072965 0.055412386 
-0.73529434 0.6712006 -0.093979046 
-0.7931926 0.41416413 0.4464454 
-0.41252035 0.90223444 -0.12569855 
-0.87859106 0.36470616 -0.30832985 
-0.80503845 -0.086551785 -0.5868748 
-0.46345282 -0.5161561 -0.72027385 
-0.19386454 -0.07905252 -0.97783804 
0.4834395 0.43176085 -0.76149136 
0.28157127 0.36592937 -0.887025 
0.42271477 -0.35610214 -0.8333687 
0.85341084 -0.20000584 -0.4813395 
0.64976525 0.068131246 -0.75707555 
0.68529916 -0.64689565 0.33450136 
0.50585324 -0.46022773 0.72959095 
0.7440181 -0.37143123 0.55540615 
0.40469304 -0.42965028 0.80723244 
0.16426262 0.27799314 0.9464342 
-0.59956986 0.71204895 0.3653797 
-0.86936766 0.03194292 0.49313238 
-0.13912037 -0.61364275 0.77723104 
-0.7692702 -0.20029303 0.6067176 
-0.28605306 0.1426555 0.9475352 
0.18294363 0.32528841 0.9277495 
-0.061644748 0.7033423 0.70817345 
0.55731994 0.008102562 0.8302583 
0.52793837 0.3585442 0.7698878 
0.35091263 0.33860677 0.8730441 
0.17140578 0.63870764 0.75011516 
0.4558511 0.65862364 0.5986775 
0.459951 0.5208706 0.7191238 
0.57102835 0.47350046 0.6706146 
0.67850035 0.4628762 0.57042354 
0.4099866 0.40733007 0.8160841 
0.16282704 0.9274125 0.3367395 
-0.4716022 0.27413967 0.8381162 
-0.7396784 -0.24718136 0.6259212 
-0.7947203 -0.43289247 0.42546898 
-0.8429005 0.5243861 0.12057392 
-0.78486913 0.61952984 -0.012777294 
-0.5547351 0.42881942 -0.71300983 
-0.46742642 -0.36452836 -0.8053767 
-0.16617078 -0.14062804 -0.976018 
-0.45300636 0.021591898 -0.8912458 
-0.11539658 -0.07841969 -0.99021924 
0.7914479 0.38130528 -0.47772017 
0.390444 0.58814996 -0.70826066 
0.41243193 0.91069186 0.023241267 
0.4464514 0.7921856 0.41608098 
0.20163687 0.78406125 0.5870183 
0.3231992 0.19763994 0.9254624 
0.61065173 0.42024124 0.6711944 
-0.15109645 0.95766884 0.2450314 
-0.4783534 0.5922606 0.64838684 
-0.023282204 -0.089293405 0.9957332 
-0.32097253 -0.46057928 0.82755274 
-0.1882142 0.089044176 0.97808313 
-0.4299333 0.09733489 0.89759856 
-0.061747808 -0.5993329 0.7981149 
-0.66435134 -0.0077854395 0.74737996 
-0.15145111 0.6120344 0.7761937 
-0.7719544 -0.6323267 -0.06518607 
-0.5504105 -0.7655966 -0.33303195 
0.7209521 -0.23496649 0.6519348 
0.14664073 0.30262023 0.94176304 
0.14270188 0.30183524 0.9426197 
0.2670469 0.5425365 0.7964548 
0.18482958 0.31274915 0.9316792 
0.5407005 -0.03386807 0.8405331 
0.40266046 -0.044921078 0.91424656 
0.40053895 -0.05755758 0.91447026 
-0.76703656 0.0846151 0.63599956 
-0.401922 -0.0054522236 0.91565776 
0.14248857 0.6811996 0.71809757 
0.6080526 -0.36700255 0.7039753 
0.08534898 -0.2420693 0.96649784 
-0.25757724 -0.06748183 0.9638985 
-0.3494343 0.31224942 0.88340026 
-0.35154364 -0.13633184 0.92619157 
-0.7933451 0.30194303 0.5286152 
-0.38854426 0.51680744 0.76285225 
-0.72191083 0.1416835 0.6773261 
-0.75747395 -0.02208097 0.65249187 
-0.8654152 0.43928444 0.24101014 
-0.8676118 0.4300685 0.2495816 
-0.3627487 0.90291846 0.23054647 
-0.7124029 0.68724406 -0.14204887 
-0.4940996 0.7585602 -0.4247966 
-0.46777454 0.57250786 -0.67336607 
0.23907585 0.31712067 -0.9177566 
0.36872 0.74721694 -0.5529127 
0.797968 0.1454937 -0.58487517 
0.98711354 0.09803478 -0.12647617 
0.94541895 0.058585864 0.32054752 
0.7247937 0.09371494 0.6825626 
0.36445513 -0.5026673 0.78389937 
0.30628455 -0.010684104 0.9518801 
0.31702566 0.24518506 0.9161763 
0.06287997 0.50032014 0.86355424 
0.29382646 -0.74716073 0.5961685 
-0.15068455 -0.6224978 0.7679783 
-0.21180078 -0.29434392 0.93193465 
0.26161104 -0.40064323 0.8780915 
0.14851916 0.1956377 0.9693647 
0.05666772 -0.46174014 0.88520324 
-0.10304932 -0.311114 0.94476926 
-0.46505192 -0.29699835 0.8339776 
-0.055136416 0.5550361 0.82999694 
-0.17561853 0.6322782 0.75457436 
0.14006336 0.1756475 0.9744385 
0.18189438 0.79972863 0.5721438 
0.20801966 0.94610435 0.24822249 
-0.69605976 0.30190817 -0.6514234 
-0.64426816 -0.040412497 -0.76373124 
-0.7855225 0.60133326 -0.14612536 
-0.8524361 0.40523818 -0.33035535 
-0.5366125 0.33463025 0.77464163 
-0.9622828 0.27204806 -0.0013220469 
-0.6429123 0.22240733 0.73293847 
-0.41602752 0.4714543 -0.77759385 
-0.27099732 0.8247006 -0.4964166 
0.20726734 0.90741885 0.36555624 
-0.017962506 0.8743225 -0.48501316 
0.09885519 0.9174821 -0.3852977 
0.831723 -0.040853996 0.55368584 
0.0045808027 0.38497218 0.92291677 
-0.22788459 0.34277236 0.9113593 
-0.07040415 0.36890906 0.92679524 
0.038013957 -0.37333068 0.9269192 
-0.028064879 0.3576489 0.93343437 
-0.7766456 -0.44635096 0.4445137 
-0.8672795 0.41833785 0.2698515 
-0.87949055 0.25858235 0.39953914 
-0.65664566 -0.5176048 0.54854524 
-0.66517997 -0.5319728 0.52396613 
-0.92777854 0.09746348 0.3601775 
-0.6406042 -0.50752497 -0.5762332 
-0.12297291 -0.53416896 -0.8363857 
0.10732982 -0.8778104 -0.46682885 
0.1048405 -0.97480154 -0.19690263 
0.1596355 -0.9108753 0.38055575 
0.5517389 -0.63655156 0.5388751 
-0.14529882 -0.5678987 0.8101724 
0.3636382 0.492005 0.79101104 
0.37847263 -0.40424737 0.83267194 
0.40876025 -0.51347125 0.7544948 
0.4559029 -0.40514162 0.7924727 
0.40312397 0.2058728 0.89168805 
0.6667623 0.21360172 0.7140045 
0.4471337 0.43804067 0.7798667 
0.6645262 0.20718029 0.71797025 
-0.03267436 -0.09526375 0.9949157 
-0.97278976 -0.11345206 0.20201163 
-0.78134346 0.28328726 0.5561032 
-0.7243006 0.2835293 0.6284901 
-0.47852653 0.21727608 0.8507665 
-0.45082068 0.8808021 -0.14473562 
-0.8392912 0.39333668 0.37533545 
-0.7980778 0.5416563 -0.26397014 
-0.79729563 0.30864757 -0.5187065 
-0.39537448 0.47406733 -0.78672683 
0.39425305 0.2264718 -0.8906599 
0.7298514 -0.2942285 -0.6170467 
0.8399833 0.41606712 -0.34830505 
0.9241815 -0.17221723 0.34092495 
0.65182304 -0.0050762245 0.7583542 
0.17009084 0.4708712 0.86564976 
0.3692515 0.55370396 0.74636805 
0.05265014 0.86497724 0.49904147 
0.7675296 0.38706723 0.5109573 
-0.35764605 0.51657337 0.7779725 
0.19193035 0.69425964 0.6936615 
0.24929692 0.9095935 0.33240166 
-0.19345517 0.9721415 -0.13234822 
0.40778595 0.80252373 -0.4355072 
0.26133758 0.95045286 0.1683507 
0.10082029 0.72830826 -0.6777923 
-0.09859465 0.763562 -0.6381631 
0.32061365 0.9440492 -0.077317394 
0.22400247 0.539459 0.81166923 
0.008267581 0.6156746 0.7879571 
-0.48723286 0.31716353 0.8136409 
-0.7725243 0.10026394 0.62701946 
-0.24865852 0.96048784 0.12502876 
-0.13861173 0.40158537 0.9052713 
-0.15199725 0.74754673 0.646584 
-0.6813934 0.5286116 0.506234 
0.039064273 0.9432475 0.3297853 
-0.27916178 0.92665356 0.25175765 
-0.48317286 0.8755241 -0.0013122167 
-0.57818484 0.80681354 -0.12146725 
0.08371792 0.24146092 0.96679264 
0.45410636 0.38236383 0.8047269 
0.9399339 -0.2722537 0.20591803 
0.8386942 -0.34895483 0.4181178 
0.59393543 0.006056875 0.8044899 
0.29632127 -0.72591496 0.620678 
0.53660655 -0.31288862 0.78367984 
0.18048078 -0.65179074 0.73661083 
0.5983172 0.5450782 0.58728725 
0.05342909 0.29084784 0.95527637 
0.5820964 0.38461357 0.71640515 
0.0047265594 0.36267763 0.93190277 
-0.095188856 0.5965506 0.79691064 
0.2853908 0.8327671 0.47439545 
-0.22708242 0.90692085 -0.35486367 
-0.4646313 0.8249441 0.32184663 
-0.16547541 0.36140466 0.91760814 
-0.8358658 0.5243644 0.16238944 
-0.6814985 0.7090141 -0.18127003 
-0.041490193 0.9343939 0.35381728 
-0.4371483 0.8915169 -0.1187395 
0.27925262 0.8864506 -0.3690845 
0.16445896 0.6915511 -0.7033565 
-0.14700216 0.51434636 -0.8448896 
0.3537153 -0.061030596 -0.93336004 
0.7431453 0.59631276 -0.30355614 
0.87078744 -0.110990554 -0.4789681 
0.738814 0.52457154 -0.4230587 
0.93450475 0.32403025 -0.14732721 
0.8466447 0.45812044 0.27077407 
0.7532867 0.4293826 0.49818638 
0.22206935 0.22658938 0.94833666 
-0.05010667 0.49935704 0.8649461 
-0.33978426 0.7411227 0.579037 
0.042658392 0.59507024 0.80254084 
-0.644145 0.28546414 0.709639 
-0.71866655 0.13538033 0.68204886 
-0.93333715 0.08843329 -0.34793875 
-0.8914455 0.25499117 -0.37457234 
-0.9642519 0.26498777 1.493144e-05 
0.17870535 0.34192815 -0.92257774 
-0.09995717 0.57752866 -0.8102279 
-0.46386138 0.5769708 -0.67226285 
0.15686102 0.7139923 -0.68235594 
-0.33744314 0.89459234 -0.2929789 
-0.0898628 0.011604195 -0.99588656 
0.66693354 0.67292696 0.31995174 
0.71470934 0.48877385 0.50029063 
0.5727799 0.38591927 0.7231802 
0.23509859 0.5487312 0.80226105 
-0.39973274 -0.65023917 0.64606726 
-0.26234886 0.054445002 0.96343595 
-0.15581772 -0.41053885 0.8984313 
0.28021792 -0.044695105 0.9588954 
-0.03895461 0.33451036 0.94158673 
-0.19999246 0.6779268 0.7074025 
0.66444373 0.014286914 0.74720174 
-0.109756656 0.6528282 0.7495125 
-0.12337734 0.3980853 0.90901387 
-0.21504894 0.7305632 0.6480983 
-0.21611688 0.68185 0.69883776 
0.021883644 0.6275643 0.7782572 
-0.020765595 0.3990113 0.91671085 
-0.15250373 0.5592851 0.81482685 
-0.5639036 0.462754 0.68401134 
-0.8319426 0.30743492 0.461904 
-0.2675487 0.817588 0.50987023 
-0.40833506 0.5080756 0.7583677 
-0.7420927 0.29927027 0.59977967 
-0.9572787 0.27533787 -0.088355094 
-0.7212492 -0.25415236 -0.6443649 
-0.48150036 0.18852857 -0.855929 
-0.47229752 0.28010625 -0.8357485 
0.5807966 0.285823 -0.76222086 
-0.29940087 0.90725857 -0.2953661 
0.63406295 0.7684334 0.08645373 
0.46079543 0.59205097 -0.66116816 
0.5370618 0.69036627 -0.48472586 
0.8856437 -0.38446823 -0.26042163 
0.76033 -0.37337622 0.5314965 
0.40821117 -0.86781794 0.2832946 
0.41611 -0.6580322 0.6275716 
0.2808572 -0.046273727 0.95863336 
0.18392625 0.31436986 0.9313124 
-0.65447336 0.57512087 0.4908164 
-0.23123701 -0.7596264 0.6078629 
-0.18180364 -0.5172788 0.83628356 
-0.44264114 0.0792961 0.8931859 
-0.47475934 0.4377247 0.76354486 
-0.32867515 0.9233211 0.19862267 
0.7672362 0.5381707 0.34888563 
0.67060715 0.46421087 0.5786142 
-0.044707544 0.75891405 0.64965427 
0.06717929 0.46775123 0.8813035 
0.018731369 0.8428265 0.53785944 
0.6460226 0.40465474 0.64723206 
0.81360126 0.0046127415 0.58140504 
0.36103362 0.26454207 0.89424396 
0.46999162 0.19795144 0.8601879 
0.22077724 0.7490187 0.62468266 
0.12904479 0.6109662 0.7810684 
-0.5129044 0.2052055 0.83355844 
-0.9113921 0.24577144 0.3300923 
-0.8225985 0.13817538 0.55157894 
-0.7797853 0.5059159 -0.3687603 
0.4469738 0.029304523 -0.894067 
-0.05659194 -0.32402042 -0.94435596 
-0.53340846 -0.20922156 -0.81957424 
-0.9105888 0.39970523 -0.105184495 
0.25139678 0.030476985 -0.9674042 
0.7026461 -0.09153402 -0.7056274 
0.58816427 0.46787453 -0.65966386 
0.7546234 0.62986803 0.1838742 
0.7196324 0.5301793 0.44837406 
0.49922013 0.7075275 0.50018406 
0.891319 0.3502255 0.2879107 
0.633529 0.033872645 0.77297723 
0.040572986 0.38532153 0.92189 
-0.08142837 -0.03562175 0.99604243 
0.09387174 -0.22385606 0.97009104 
-0.5311915 -0.20846681 0.82120484 
-0.4180886 0.28233346 0.86341757 
-0.41820258 -0.19548701 0.88706905 
-0.26958984 0.14406684 0.9521377 
-0.5276018 0.19217333 0.8274696 
-0.9359875 0.28592417 0.20536537 
-0.7225335 -0.689175 0.054618638 
-0.6148451 -0.7517409 -0.23843478 
0.38898933 -0.9155969 -0.10183187 
0.25782073 -0.27237165 0.9270072 
0.15927467 0.41511196 0.8957197 
0.35593307 -0.34872535 0.8670077 
-0.101215236 0.52932 0.8423632 
0.35912365 0.11111526 0.92665184 
0.4088386 0.11062312 0.90587723 
0.49916357 -0.04327443 0.8654266 
-0.38029847 0.29635492 0.87609756 
0.36322004 0.058569152 0.9298608 
0.022101458 -0.36990806 0.92880553 
0.13540764 0.229807 0.96377045 
-0.19224495 -0.43997157 0.8771927 
-0.35899407 0.44452325 0.82068413 
-0.18252939 0.2986483 0.9367455 
-0.11200117 0.035621673 0.9930694 
-0.62546474 -0.17902489 0.75943667 
0.026562218 -0.033702966 0.9990789 
-0.9742657 0.035376426 0.22260948 
-0.56616837 0.47208324 0.675715 
-0.588319 0.30434343 0.7491702 
-0.90885794 0.40966928 0.07841072 
-0.7779239 0.62628835 0.050965514 
-0.94329196 0.26765588 0.19636899 
-0.49536878 0.77340716 -0.3955392 
-0.042303823 0.32320446 -0.94538313 
0.59299034 -0.041548368 -0.80413693 
0.5441773 0.3616369 -0.7570269 
-0.26674747 0.5348921 -0.80170834 
0.8166109 -0.08318658 -0.57116276 
0.77717894 0.34767014 0.52451724 
0.03691214 0.31500748 0.9483711 
-0.030689605 -0.3522941 0.93538606 
0.42641336 -0.15691693 0.8908136 
0.4263142 0.19297528 0.8837516 
0.14617696 -0.24512583 0.9584079 
0.38448706 -0.23513177 0.89268297 
-0.19354483 -0.33174607 0.9233011 
0.34505662 -0.22603759 0.91095716 
0.5806852 0.07413569 0.8107458 
0.09519406 0.07765099 0.99242556 
-0.12645024 0.19275428 0.9730653 
0.07180606 0.521359 0.8503109 
-0.35287848 -0.43555686 0.8281105 
-0.20155355 0.52726865 0.8254478 
0.45773676 0.19475092 0.867496 
0.07957796 0.22191747 0.9718127 
0.11713072 0.17723641 0.97717327 
0.29650125 0.53990155 0.7877776 
-0.6267155 0.6935156 0.35533637 
-0.62803704 0.48286688 -0.6102534 
-0.87169844 0.43161452 0.23205741 
-0.65188897 -0.6073049 0.45411626 
-0.8861458 -0.45721817 0.07548006 
-0.9592522 -0.09685862 -0.26543114 
-0.98511523 -0.08848939 -0.14736891 
-0.36718342 0.53803265 -0.7587471 
0.22543406 0.9657381 0.12856661 
0.035014614 0.9662189 0.2553332 
-0.17633425 0.764188 0.62042165 
-0.28084213 0.9302161 0.23627523 
-0.16908176 0.6506367 0.74032646 
-0.25454503 0.17815617 0.950509 
-0.09446281 0.54231656 0.8348471 
-0.27145147 0.2671448 0.9246339 
-0.50818866 -0.50872844 0.6949386 
-0.043180805 -0.21497256 0.9756651 
-0.6043825 0.4680492 0.6447106 
-0.9089492 0.40553537 -0.096708484 
-0.37258527 0.9276248 -0.026315657 
-0.5266234 0.21533908 0.82237273 
-0.8155981 -0.5196695 0.25444755 
-0.6853982 -0.4466192 0.57511795 
-0.7268938 0.57513213 0.3752978 
-0.90230596 -0.075456455 -0.42444128 
-0.41084778 -0.7873819 -0.45960188 
-0.32453087 -0.93575585 -0.13798806 
0.43172467 -0.8903326 -0.14464419 
0.89800704 -0.075592056 0.43343902 
0.03898639 0.58966637 0.80670553 
0.33491787 0.24818939 0.9089731 
0.9534534 -0.19306703 0.23162872 
0.66960186 -0.5507638 0.49828976 
0.3881833 -0.81276 0.43443638 
0.895254 -0.33718857 0.29124594 
0.2002375 -0.7824101 0.58969456 
-0.15237229 0.21815826 0.9639449 
0.061531115 0.3847801 0.92095506 
0.042002637 0.20383628 0.97810364 
-0.4378893 -0.35607257 0.8255091 
-0.53584915 0.37766424 0.7551394 
-0.3487595 0.047167297 0.9360246 
-0.6897753 0.03616582 0.72311974 
-0.49224043 0.85514015 0.16258752 
-0.59566903 0.74022484 0.31184232 
-0.7830437 0.5494963 -0.29137018 
-0.08866762 0.5741455 -0.813938 
0.019230805 0.41445822 -0.90986514 
0.24374999 0.8644003 -0.43977055 