# OOMMF: rectangular mesh v1.0
# Segment count: 1
# Begin: Segment
# Begin: Header
# Desc: Time (s) :  2.4699999999999955e-07
# Title: m
# meshtype: rectangular
# meshunit: m
# xbase: 2e-09
# ybase: 2e-09
# zbase: 5e-10
# xstepsize: 4e-09
# ystepsize: 4e-09
# zstepsize: 1e-09
# xmin: 0
# ymin: 0
# zmin: 0
# xmax: 1.024e-06
# ymax: 1.024e-06
# zmax: 1e-09
# xnodes: 256
# ynodes: 256
# znodes: 1
# ValueRangeMinMag: 1e-08
# ValueRangeMaxMag: 1
# valueunit: 
# valuemultiplier: 1
# End: Header
# Begin: Data Text
-0.11461563 -0.24448095 -0.96285635 
0.13572668 0.95282036 -0.2714989 
0.2762719 0.82406974 -0.4945533 
-0.4736045 0.7632049 -0.43956482 
-0.56397337 0.79151165 -0.23546457 
0.029882725 0.7722489 0.634617 
0.7673699 0.6324371 0.10567291 
-0.3647992 0.87685883 -0.3131139 
0.24827096 0.55390817 -0.79469955 
0.48147452 0.80740875 -0.34098917 
-0.11877164 0.9620039 -0.24584949 
-0.33644554 0.79359657 -0.5069605 
0.14937015 0.98851 -0.023162087 
-0.247403 0.9512144 0.18434492 
-0.57705003 0.74374455 0.33742768 
-0.4314857 0.8727335 -0.22837779 
0.23394945 0.9141823 -0.33096614 
0.58789927 0.457539 0.6671076 
0.54504734 0.41675583 0.72748744 
0.66096646 -0.109445244 0.74239147 
0.6710927 0.4197507 0.61110073 
0.15078208 0.9234075 0.35296392 
-0.45474353 0.7644897 0.45690688 
-0.35719985 0.29823968 0.8851336 
-0.27094784 0.3013437 0.9142096 
0.2143856 -0.072326034 0.9740676 
-0.17795196 -0.015938891 0.98391014 
-0.5116213 0.57064515 0.64234555 
-0.6594486 0.67970574 -0.3211351 
-0.85543716 0.46430248 -0.22945715 
-0.91513145 0.00020507198 -0.40315577 
0.51056623 -0.16621517 -0.84362006 
0.33608004 -0.7692232 -0.5434574 
0.33109456 -0.19650269 -0.9229102 
0.8997985 0.41746643 0.1268248 
-0.03898481 0.97986877 0.19579938 
-0.12720793 0.9654125 0.22758919 
-0.15588413 0.9652065 -0.20994428 
-0.20714161 0.9579407 -0.19860011 
0.34056905 0.73574215 -0.5854027 
0.7589843 0.3582096 -0.5437176 
0.9870677 -0.15927368 0.018150013 
0.5640272 0.14605688 0.8127367 
-0.10634063 0.71253884 0.69352734 
-0.79589206 -0.2858045 0.53373367 
-0.2980793 -0.22636233 0.9273128 
-0.45240304 0.6070993 0.65327024 
0.032367114 0.9910954 0.12916052 
-0.6102636 0.058490906 0.79003626 
-0.20629683 0.94994164 0.2346328 
-0.47892547 0.82522476 0.29939047 
-0.6503713 0.75927085 0.022915145 
-0.5020649 0.8285875 0.24773715 
-0.9081815 0.012242311 0.41839775 
-0.6350248 0.47516814 -0.6090639 
-0.6394412 0.45422956 -0.6203149 
-0.59948874 0.481766 -0.63915175 
-0.28506568 0.24660547 -0.92624146 
0.5416982 0.78769034 0.29343984 
0.7272051 0.68497103 0.04458111 
-0.20317633 0.78578687 0.5841734 
-0.4585723 0.53158677 0.7121286 
-0.18327889 0.39699432 0.89933556 
0.063662656 0.991344 0.11482296 
-0.03755091 0.8979105 0.43857357 
0.18318644 0.71250063 -0.67733717 
0.51532507 0.66332525 -0.542623 
0.5463339 0.6913727 -0.4727823 
0.33548182 0.0037975425 -0.9420391 
0.61579895 0.6109811 -0.4974875 
0.44506535 0.8648327 -0.23233879 
0.47336867 0.6750065 -0.5659402 
0.22140063 0.8949547 0.38734722 
0.33477876 0.83526266 -0.43618757 
-0.05307487 0.8790852 0.47370067 
0.21571131 0.7765585 0.5919676 
0.99419504 -0.07292431 0.07910921 
0.943319 -0.20937005 -0.25751385 
0.74722433 0.61022 0.2632251 
0.7684035 0.05554184 0.63755095 
0.16151021 0.7106977 0.6847066 
0.37490225 0.17498596 0.9104001 
0.2756149 0.26883394 0.92291105 
-0.6204157 0.132715 0.7729626 
-0.13433917 -0.12803526 0.9826291 
0.17819817 0.085085414 0.9803091 
-0.30725354 0.5311346 0.7896147 
-0.04806821 0.5781906 0.81448454 
0.88659877 0.4540439 0.088243484 
0.7919462 0.3619932 0.4917135 
-0.14759935 0.37195915 0.91643924 
-0.63844585 0.62843984 0.44435388 
-0.85803443 0.49303687 -0.14384592 
-0.65024203 0.758972 -0.03386803 
0.055844393 0.9938177 0.095958486 
0.69949317 0.6584459 0.2777739 
0.49096227 0.50443673 0.7102814 
0.70747536 0.20156382 0.67738515 
0.76509327 0.4311937 0.47823036 
0.66520995 0.37793535 0.6439416 
0.14354803 0.5126245 0.84652823 
0.34267196 0.6387012 0.6889389 
0.6559559 0.7018182 0.27780047 
0.47648853 0.81147486 0.33833045 
-0.23043494 0.8176185 -0.5276361 
0.7681628 0.5045535 -0.39414668 
0.8762824 0.43395236 0.20931907 
-0.06537843 0.8459299 0.52927136 
0.17363656 0.453934 0.8739532 
0.4070267 0.68548125 -0.60369253 
0.41635543 0.8643907 0.28191668 
0.8012671 0.59733844 0.034026567 
0.15009567 0.9787699 0.13957398 
0.39998388 0.8466578 0.35097513 
0.09722427 0.8862868 0.4528168 
0.7248803 0.41145778 0.5524955 
0.14116198 0.28673747 0.94755214 
0.027208583 0.3549426 0.9344921 
-0.29963914 0.9044806 0.30353138 
-0.46071932 0.47777113 0.747979 
-0.7770174 0.6098307 -0.15604722 
-0.14986074 -0.38486972 0.9107233 
-0.32153723 -0.69961894 -0.63808084 
-0.88366145 0.008848657 -0.46804285 
-0.79197466 0.5088279 -0.33744687 
-0.7986094 0.55376995 -0.23571603 
-0.28599924 0.7109858 -0.6424202 
-0.33712432 0.6245259 -0.70449597 
-0.07952006 0.9764657 -0.20047772 
0.32049525 0.9129049 0.2527596 
0.015611181 0.82374704 0.5667425 
-0.06627055 0.9690456 0.23782133 
0.15196714 0.1317513 0.979565 
0.24797606 0.05089462 0.9674284 
0.36718604 -0.5156662 0.7741207 
0.046675943 0.6345433 0.7714766 
-0.26874828 0.96245885 -0.03804576 
0.15749559 0.98636866 0.047666106 
0.22983368 0.9703393 0.07495404 
-0.53405994 0.8439671 0.049994633 
-0.24335791 0.92159367 -0.30239415 
0.9187041 0.35823646 -0.16628158 
0.12023825 0.64508754 0.75458914 
-0.59059995 0.49463084 0.63759863 
-0.9644823 0.11928773 -0.23567861 
0.2817301 0.9575168 -0.061561678 
-0.53422767 0.3902258 0.7498831 
-0.873234 0.46237075 0.15386991 
0.0635311 0.88226724 0.46644223 
-0.07977041 0.10101618 0.9916817 
-0.76886964 0.053515345 0.63716215 
-0.38861445 -0.2754886 0.87925243 
0.28417414 0.45436388 0.84427404 
0.5165183 0.565264 0.643184 
0.079853915 -0.41974092 0.9041244 
0.5763068 -0.21862237 0.7874482 
-0.009184722 -0.1681431 0.98571986 
-0.46988523 -0.3033925 0.8289517 
-0.8675226 0.41770908 -0.27004412 
-0.10246189 0.9941863 0.033096205 
-0.7107479 0.48962158 0.5050825 
-0.9759695 -0.17724697 0.12675619 
-0.86535287 -0.06463413 0.49697775 
-0.86400175 -0.14599775 0.48185658 
-0.5834913 0.5358336 0.61026245 
-0.7604805 0.34509996 -0.55006856 
-0.27287805 0.0053249346 -0.96203387 
0.60692954 0.5458364 -0.57766706 
0.06552709 0.59003216 -0.8047163 
-0.04217035 0.68339425 -0.7288306 
0.21392846 0.30673426 -0.927442 
0.5194556 0.7155237 -0.46710986 
0.81593865 0.57791364 0.016130304 
0.10785937 0.65698415 0.74614894 
0.5036852 0.73610586 0.45216098 
0.269246 0.94128007 0.20371152 
-0.7845571 0.5298254 -0.32211092 
-0.35509893 0.91998726 0.16591635 
-0.09173915 0.9632278 0.25253928 
-0.24362232 0.83179975 0.49875587 
-0.14516683 0.9605692 0.23713587 
-0.3829411 0.68518007 0.619584 
-0.6247636 0.17916691 -0.75998 
0.41504797 0.34837428 -0.8404586 
0.3530309 0.90067923 -0.2532709 
0.77074695 0.6007394 -0.21227646 
0.41421968 0.74893135 -0.51722723 
0.44328138 0.8914999 -0.09343316 
0.3165145 0.7718122 -0.55147487 
0.767307 0.6218643 -0.156604 
0.43536854 0.7747189 -0.45854646 
0.6479108 0.75829476 0.07211671 
0.48317274 0.6804598 -0.55092514 
0.6029661 0.5092133 -0.6141122 
0.40321398 0.5697145 -0.71613127 
0.3706146 0.76975554 -0.51973194 
0.56373787 0.8250947 0.03766096 
-0.5564505 0.28978795 0.77870786 
0.5698824 0.7030244 0.4254301 
0.4151976 0.768067 -0.48752853 
0.8044576 0.57521844 -0.14822868 
0.9602436 0.26857063 -0.076171964 
-0.44159517 0.89257294 -0.09114469 
-0.012031687 0.88893485 -0.45787582 
0.54507947 0.8322778 0.101006106 
0.7680209 0.60629666 0.20627224 
0.5801414 0.40656278 0.7057923 
0.006998311 0.59441346 0.8041292 
-0.10841851 0.9907336 0.08180615 
0.4338991 0.6079598 -0.66491836 
0.5835952 0.012286868 -0.81195176 
-0.2012293 0.9586132 0.20141408 
-0.28307018 0.79466635 -0.53700715 
0.2689776 -0.04371634 -0.96215385 
-0.53369415 0.2532598 -0.80686444 
-0.22523043 -0.32045752 -0.92009693 
0.5986037 0.70813364 -0.3744601 
-0.6763091 0.57588047 -0.4593123 
0.4175621 0.6300387 -0.6547467 
-0.4979917 0.8662637 0.039892804 
-0.47897324 0.6619812 0.5765115 
-0.9088347 0.41596743 -0.031475294 
-0.46681562 0.20761591 0.8596388 
-0.72826004 -0.564175 0.3890295 
-0.28997532 -0.63112867 0.71943796 
0.73315877 -0.08534924 0.6746806 
0.51776814 0.08918131 0.8508601 
0.003508393 0.30060646 0.95374185 
-0.6762916 -0.06772802 0.73351395 
-0.4773094 0.70880705 0.5193923 
-0.5828677 0.6493783 0.4884394 
-0.8871562 0.28528082 0.3627242 
0.06774227 0.9524284 -0.29713827 
-0.304506 0.856243 -0.4172818 
0.06165205 0.99634355 -0.05914885 
0.77131724 0.6178317 0.15281937 
0.25632563 0.9582849 0.1264408 
-0.00624233 0.9660486 0.25828514 
0.34677494 0.60371554 0.71782637 
-0.3290829 0.62449634 0.7083141 
0.21675473 0.5000905 0.83840746 
0.086493395 0.91141546 0.40229443 
-0.24351358 0.92674226 0.28609455 
-0.39864296 -0.13665783 0.9068673 
-0.35040796 0.5495258 0.75844294 
-0.67511696 0.18061268 0.7152595 
-0.13036673 -0.5684255 0.81234044 
-0.8185972 -0.5730741 0.038534276 
-0.083506145 -0.91834974 0.38685995 
-0.07751999 -0.35005662 0.9335155 
0.06164662 -0.915235 0.39817667 
-0.7431256 -0.52391875 -0.41626126 
-0.25705492 -0.7510534 -0.6081462 
-0.9513859 -0.2561253 -0.1710694 
0.38336575 -0.4765307 -0.7911695 
0.7402432 -0.5124915 -0.43519258 
-0.2788311 0.8117431 -0.51315343 
-0.18474795 0.7891858 -0.5857081 
0.071101844 0.9953278 -0.06532493 
-0.16164297 0.955098 -0.24831325 
-0.3305369 0.8721214 -0.36076254 
0.028726486 0.7939102 -0.6073562 
-0.07195244 0.98002833 -0.18538435 
0.17720631 0.98412305 -0.009999198 
0.4543436 0.81910074 -0.35020846 
0.0378172 0.97922236 -0.19923246 
-0.039324198 0.9804267 0.1929173 
-0.65495926 0.5346737 -0.5339967 
0.077796124 0.96708786 0.24225806 
0.017778097 0.99487656 0.09952201 
-0.29885945 0.9540039 0.023656288 
-0.116449095 0.5825914 0.8043798 
0.7521435 0.4652063 0.46675834 
0.44376215 0.58037525 0.68281746 
0.8756319 -0.25020728 0.41311634 
0.31861848 -0.20953195 0.92443424 
0.57579696 -0.049489237 0.8160937 
0.35695794 0.12430846 0.92581236 
0.10656467 0.49780402 0.86071783 
0.043803584 -0.13976845 0.9892149 
-0.3205517 0.31398818 0.8936767 
-0.48789954 -0.19901904 0.8499092 
-0.33628234 0.2292967 0.9134206 
-0.3216399 0.117007755 0.9396047 
-0.84449035 0.29944506 0.44403684 
-0.7269995 0.6189999 -0.29717153 
-0.63560086 0.6256668 -0.45227495 
0.33662468 -0.010976061 -0.94157493 
0.33073446 -0.19829999 -0.9226548 
0.27257407 0.1921616 -0.94274986 
0.5173649 0.39148587 -0.760968 
0.9558876 0.29298037 -0.02101185 
0.56354964 0.82488966 0.044372436 
0.8643712 0.34406033 0.36672202 
0.10266976 0.98230565 -0.15663551 
0.47819456 0.87609076 -0.06160251 
0.54506195 0.7008394 0.46014315 
0.75790894 0.3850484 0.52660406 
0.6877936 0.122888945 0.71542877 
0.2879986 0.17429402 0.9416361 
0.22616081 0.1825976 0.9568226 
0.5492925 -0.4318062 0.7154168 
-0.24251357 -0.13507122 0.96069926 
0.0021366882 0.83946085 0.5434159 
-0.6096857 0.6291309 0.48215935 
-0.7341594 0.61468744 0.28839105 
-0.7842987 0.056156404 0.61783665 
-0.30140066 0.92252564 -0.24104795 
-0.9360748 0.16069664 0.31295457 
-0.8463211 0.08040764 -0.5265693 
-0.31855568 0.9450309 0.073749736 
-0.28982055 0.956374 0.036780614 
-0.37193784 0.89502984 -0.24613816 
0.06723221 0.91090816 -0.4070948 
0.81915265 0.5649127 -0.09931152 
0.7590323 0.30101234 0.5772882 
0.076591805 0.3725512 0.92484564 
-0.056240547 0.48065883 0.87510246 
-0.6826376 0.13021839 0.7190614 
0.072678074 0.98815346 0.13516894 
-0.10263068 0.83532196 -0.5400965 
-0.04833471 0.4264548 -0.9032166 
0.48332375 0.7606558 -0.4333598 
0.5844405 0.61618865 -0.5279591 
0.9009759 0.24226332 -0.35993204 
0.66227865 0.60258484 -0.4452847 
0.84237385 0.5372296 -0.042318348 
0.52957505 0.8096329 -0.25307107 
0.06388703 0.9676803 0.2439535 
0.6228679 0.78152525 -0.035409205 
0.18527497 0.86533034 0.46570027 
0.172598 0.9815665 -0.082080476 
0.8938735 0.44801253 0.016582724 
0.82669234 -0.097469546 -0.5541476 
0.68129915 0.72484046 -0.10216526 
0.69954044 0.063805565 0.71173877 
0.91429996 0.3458663 0.21078964 
0.29067108 0.09462953 0.9521321 
-0.06486886 0.22572105 0.97202986 
0.020347841 0.45848855 0.88846743 
-0.26218277 0.20692831 0.94257146 
-0.2542674 -0.10866793 0.96100956 
-0.38988167 -0.03543588 0.92018294 
-0.027547447 0.7418836 0.66996264 
0.7093746 0.637987 0.29960027 
0.17415915 0.64651275 0.7427584 
-0.2755255 0.26739576 0.92335546 
-0.26225612 0.6327239 0.7286167 
0.007519634 0.9780265 0.20834492 
0.014321417 0.99293983 0.11775122 
0.105614774 0.9570243 -0.27009302 
0.46862596 0.8833925 -0.0027484833 
0.6854768 0.2956479 0.66536754 
0.48535985 -0.24332139 0.8397741 
0.43241987 0.58255607 0.68821627 
0.4990436 0.72852474 0.46926242 
0.5087333 0.6361517 0.58008754 
0.32993975 0.56745356 0.7544113 
0.58003765 0.6552101 0.48400024 
0.12306314 0.97317934 0.19436447 
-0.092453495 0.99568844 -0.007544393 
0.40953478 0.903763 0.12447404 
0.43369433 0.43237883 0.7905428 
0.12679169 0.8390521 0.52907044 
0.7479935 0.59105366 -0.30192927 
0.095478825 0.7626223 -0.63975847 
0.50647295 0.858886 -0.076158665 
0.18698595 0.6708388 0.7176431 
0.12229121 0.5908961 0.79742503 
0.4229173 0.8956051 0.13795815 
0.2788748 0.8494315 0.44798988 
0.92380804 0.3490774 -0.15723807 
0.71353483 -0.14236127 0.68600386 
0.28968295 -0.023105806 0.95684373 
0.999668 -0.025468074 0.0039236066 
-0.8713449 0.38411617 0.30530772 
-0.7904229 0.27140743 0.54915375 
-0.50717175 -0.010783065 0.86177754 
-0.9224463 -0.09129249 0.37517798 
-0.8927868 0.27464956 -0.3570705 
-0.34056413 0.8402771 -0.42184207 
-0.56336427 0.79541373 -0.22346756 
-0.17272547 0.64296037 -0.7461689 
-0.16050746 0.9744945 -0.15683706 
0.17367038 0.89894086 0.40217406 
-0.43838835 0.5121998 0.73855746 
0.3057714 0.9516869 -0.02821315 
-0.3171051 0.32857817 0.889652 
-0.2593031 0.29243058 0.92045987 
0.3037526 0.73222226 0.60957766 
0.069516964 0.9759997 0.20637816 
-0.03557345 0.99916345 0.02017418 
-0.4343414 0.60686314 0.6656311 
-0.19744533 0.85370386 0.4818767 
-0.32893538 0.9363147 -0.12294812 
-0.73279405 0.43612495 -0.52231026 
0.3312669 0.8300179 -0.4487009 
0.11274682 0.98915017 0.09418207 
-0.27113572 0.62140006 0.73508334 
-0.33098456 0.83568037 0.43827808 
0.07986702 0.5579942 0.82599264 
-0.020391658 0.84129894 0.5401856 
-0.28026554 0.9570974 0.073592 
-0.44006187 0.8933784 -0.09066878 
-0.3393848 0.6281635 0.70016325 
-0.26243228 0.61514467 0.7434557 
-0.40582475 0.83647555 0.36825922 
0.09371713 0.74850136 0.65647763 
0.65589535 0.74291164 0.13372992 
0.67214227 0.56645083 0.4768211 
0.20892188 0.7330873 0.6472516 
0.19354275 0.64481145 0.73943186 
0.12567265 -0.47693926 0.86990535 
0.081940636 0.03300631 0.9960906 
-0.77690625 0.010746505 0.6295246 
-0.6789627 -0.2186707 0.70085156 
-0.74900025 -0.362375 0.55469185 
-0.8421498 0.36149505 0.40013126 
-0.8480035 0.11832343 0.5166137 
-0.7261627 -0.051204707 0.6856136 
-0.35014164 0.814153 0.46320164 
-0.81416965 0.17990336 -0.552053 
0.09199778 0.9924839 -0.08069801 
0.39962435 0.74828976 -0.5294931 
0.8269309 0.3075271 -0.47075722 
0.54069346 0.82927823 -0.14123887 
0.68580943 0.7192152 -0.11133262 
0.5136849 0.8225981 0.24384445 
0.6594267 0.7434025 0.1118454 
0.09002849 0.81918496 0.5664195 
0.90704846 0.40839025 0.10237403 
0.74168915 0.06931387 0.66715276 
0.41847616 0.8040993 0.42225826 
0.8320753 0.4753693 0.28578818 
0.55441546 0.49936745 0.6657745 
-0.2124988 0.7924638 0.571704 
0.13362998 0.83509415 0.53362983 
-0.32505703 0.9443515 -0.050379485 
0.23957129 0.9435369 -0.22878808 
0.56601727 0.7290914 -0.38477314 
-0.17007853 0.79230934 -0.58593446 
0.24557576 -0.101480685 -0.964051 
0.5569678 0.5915166 -0.5830052 
0.8807159 -0.020006085 -0.47322217 
0.6654802 0.73333824 0.13910882 
0.5360907 0.83680046 -0.111228645 
0.44015765 0.67680573 0.59008074 
0.31217015 0.8733228 0.37397474 
0.44641834 0.6043983 0.65985864 
0.6248658 0.68945277 0.36633012 
0.8349344 0.37713802 0.40081367 
0.3931333 0.62493813 0.67446166 
0.21716064 0.42858452 0.87701577 
0.6178402 0.17254278 0.76713926 
0.18719138 0.5682524 0.8012793 
0.101676166 0.87641364 0.47070277 
0.6862913 0.7258325 0.04659854 
-0.33017626 0.79140383 -0.5144547 
-0.38598898 0.9213576 0.045966364 
-0.060440276 0.97197354 -0.22718814 
0.82991594 0.4724005 0.29677835 
0.14518815 0.753138 0.64164144 
-0.19793624 0.8639744 0.4630007 
-0.7960622 0.30063957 0.5252627 
-0.62899244 0.7527633 -0.19420631 
-0.6170264 0.62781155 -0.4744798 
0.20259191 0.38424236 -0.90072995 
0.008014348 0.71197945 -0.7021546 
0.29520464 0.849825 -0.43663675 
-0.052249596 0.1702899 -0.9840078 
-0.051299866 0.44059974 -0.8962368 
0.12369905 0.88724726 -0.44439957 
0.10043602 0.98344934 -0.15079829 
-0.4302013 0.9011469 0.05348964 
-0.07872433 0.984264 0.15819886 
-0.30434114 0.9208149 0.2438783 
-0.7609458 0.08841404 0.64276314 
-0.9340628 0.17890094 0.30906522 
-0.5946662 0.42192942 0.6843593 
-0.7053315 -0.6107511 0.35984808 
-0.26265505 -0.9354248 0.23662813 
0.36601868 -0.8989563 -0.24064066 
-0.09077717 -0.25992066 0.96135366 
-0.36643803 0.1026485 0.924763 
-0.35453537 0.20011197 0.91337836 
0.08672749 0.583543 0.80743796 
-0.58551407 0.72818035 0.3562678 
-0.8132447 0.5814558 0.023283957 
-0.23789883 0.96926904 0.06262357 
0.16441694 0.98478323 -0.056295004 
0.3578444 0.9271401 0.111169614 
0.66914034 0.7312452 0.13240713 
0.4683451 0.61814123 0.63131154 
0.023449348 0.7441552 0.667595 
0.28568026 0.9095988 0.30168974 
0.4982788 0.8347427 0.23435609 
0.81868786 0.5267243 0.22871754 
0.13454415 0.64505416 0.75219893 
0.2603484 0.22835664 0.9381215 
0.0650048 0.1559494 0.98562384 
0.13411896 0.5036929 0.8534083 
-0.25152975 0.014345275 0.9677432 
-0.6832658 -0.53755236 0.4941512 
-0.018252466 -0.9879211 0.15387903 
-0.4384074 -0.62293345 0.6478835 
-0.14878654 -0.8101687 0.56700027 
-0.44181007 -0.8960544 0.04348001 
-0.449292 -0.7026795 -0.55170494 
0.1496109 -0.2846716 -0.9468784 
-0.61600375 -0.41310608 -0.67073303 
0.23939008 -0.71698666 -0.6546927 
0.1315658 -0.87420094 -0.46740067 
-0.5184257 0.85450846 0.032404356 
0.48203418 0.78106165 0.3969706 
0.0009358417 0.77966493 0.62619627 
-0.032066125 0.65045476 0.75886786 
0.16407259 0.07314252 0.9837329 
0.14237574 0.97636825 -0.1625864 
0.054994714 0.98487276 -0.16432054 
-0.49855128 0.25069508 0.82981855 
-0.19533536 0.9791017 -0.056604307 
-0.47287452 0.75595605 0.452681 
-0.12233725 0.5847202 0.80195755 
-0.68312156 0.5206736 0.5120978 
0.76892334 0.38362858 0.5114547 
-0.1569334 0.9841297 -0.08282894 
0.6557302 0.7480167 -0.10241562 
-0.14150295 -0.09140648 0.98570883 
0.26307157 0.017012127 0.9646264 
0.7890275 0.19170736 0.58368134 
0.42594296 -0.7172037 0.5515356 
0.16551208 -0.15012628 0.9747143 
-0.35166416 0.2963371 0.8879847 
-0.33395657 0.030442216 0.94209677 
-0.22547156 0.1645293 0.9602566 
-0.48032233 0.7321636 0.48293576 
-0.05935478 -0.12237983 0.9907069 
-0.83997756 0.14920044 0.5217058 
-0.86683255 0.117949545 0.48444724 
-0.5872878 0.6394294 0.49620888 
-0.7072244 0.6680211 0.23147658 
-0.61875707 0.547489 -0.56337875 
-0.46235612 0.32363534 -0.82552224 
0.034529332 -0.24775141 -0.96820813 
-0.105249815 0.18145895 -0.97775006 
0.4807896 0.8153525 -0.32255527 
0.8771973 0.4571494 -0.14676306 
0.8800609 0.44927788 0.15376005 
0.7373978 0.67500436 -0.02477314 
0.39402276 0.5287246 0.75179535 
-0.4605204 0.7612813 -0.4564777 
0.10990811 0.89479023 0.43274805 
0.5483247 0.49485815 0.6741331 
0.18164797 0.37306327 0.9098504 
0.15417379 -0.42588696 0.8915441 
0.6785462 0.045626964 0.7331394 
0.17475316 -0.10059794 0.97945976 
0.5390671 -0.27681473 0.7954748 
-0.16638131 -0.23278119 0.95819116 
0.37237173 -0.09330931 0.9233812 
0.5263771 0.5612028 0.63873196 
-0.21251054 0.011023068 0.9770966 
-0.3740719 -0.51445645 0.77162474 
-0.9448139 0.29264775 0.14725477 
-0.972813 -0.22586787 0.05117163 
-0.92693096 -0.007826877 -0.3751503 
-0.8273723 0.49378037 -0.26764917 
-0.15163432 0.9055945 -0.3961131 
0.1492534 0.8017873 -0.5786714 
0.6793633 0.6428152 -0.35391268 
0.88856053 0.36444846 -0.27863544 
0.9730786 0.04778452 0.22546536 
0.24552932 0.12515375 0.9612762 
-0.005557599 0.5908778 0.8067421 
-0.3521065 0.5568296 0.7523045 
0.016580172 0.52886194 0.84854597 
-0.40475568 0.86762524 0.28878963 
-0.519696 0.83291197 -0.19019397 
0.83685434 0.50342673 -0.21502629 
-0.38424376 0.88381803 0.26687554 
-0.86713374 0.49704975 -0.031948075 
0.30613688 0.6865097 -0.6595336 
0.44204533 0.7778926 -0.4466308 
0.40635264 0.910041 0.081871524 
0.28875837 0.6304536 0.7205186 
0.21772711 0.97576326 0.021936566 
0.6986114 0.5431321 0.46577862 
0.8707283 0.46392813 -0.16310433 
0.82279915 0.22292031 0.5227889 
0.7407559 0.6540408 0.15333408 
0.61877346 0.5662467 0.5445035 
0.7745236 -0.15530717 0.6131827 
0.09977358 0.1814444 0.9783268 
-0.1877957 0.39580148 0.8989293 
0.035564158 0.06998624 0.99691385 
-0.0013817891 0.33017957 0.9439172 
0.17416158 -0.50821215 0.8434383 
0.67327636 0.28844893 0.6808055 
-0.06862216 0.4202804 0.9047958 
-0.49342173 0.7060926 0.5079058 
-0.16214387 0.85441655 0.49364147 
-0.13641292 0.8005107 0.5835873 
0.04446125 0.52536297 0.8497159 
-0.8249228 0.23902 0.5122224 
-0.2820316 0.6368528 0.71754915 
-0.18619826 0.88162994 0.4336577 
-0.3152151 0.53145844 -0.78625154 
0.28587762 0.8232453 -0.4904501 
0.5006113 0.8643018 -0.048691124 
0.88327587 0.20766734 0.42035466 
0.19175002 0.8083546 0.5565921 
-0.19240163 0.21194759 0.9581544 
0.367025 0.31951517 0.8736148 
-0.42803589 0.85002196 0.30699855 
0.07399626 0.6513801 0.7551348 
-0.37903994 0.113068715 0.91844666 
-0.53365403 0.72881395 0.42900315 
0.027241033 0.87577355 0.48195297 
0.52277327 0.8133729 0.25521082 
-0.21023977 0.6233368 0.75316036 
0.6494622 0.76030225 -0.011804135 
0.7546717 0.4016228 0.51881593 
0.49989057 0.4342458 0.7493598 
0.07249237 0.28846762 0.9547415 
-0.04102741 0.7865845 0.6161183 
0.20867522 0.9621237 0.17542168 
0.7143287 0.6814738 0.159148 
0.54013735 0.5768213 0.6128041 
0.5146238 0.48098704 0.70979846 
0.22136863 -0.4319766 0.87429523 
0.5311052 -0.19371238 0.82486534 
-0.089628555 0.5378123 0.8382868 
-0.81372225 0.40488943 0.4170378 
0.7243106 0.2063806 0.6578611 
-0.4121993 0.29740375 0.8611869 
-0.59285086 0.57941425 0.5592915 
-0.13277023 0.8864103 0.4434512 
-0.87236303 0.42384535 -0.2435937 
0.9104873 0.3486049 -0.22245827 
-0.024071349 0.45777145 0.88874394 
0.47991443 0.54355574 0.6886432 
0.35514718 -0.059508793 0.9329144 
0.31484818 0.4276666 0.84733224 
0.16843395 0.5178139 0.8387483 
0.23823152 0.40282193 0.88373095 
0.25689656 -0.074944526 0.9635287 
-0.02244548 0.6401334 0.7679358 
-0.31349477 0.20609657 0.92695487 
-0.2905838 0.7609283 0.5801287 
0.33651948 0.54967254 0.7646012 
-0.18273637 0.96826607 0.17049403 
0.56357694 0.80156904 0.19967023 
0.752671 0.517807 0.40664762 
0.44455272 0.07811557 0.8923402 
-0.12255352 -0.10271939 0.9871319 
-0.33497593 0.033487324 0.9416315 
-0.48123533 0.3462117 0.80532604 
-0.70343375 0.21050917 0.67887175 
-0.4938507 0.14515539 0.8573456 
-0.36901096 0.11625799 0.9221253 
-0.084054686 0.23562877 0.9682014 
-0.32467982 0.40960222 0.852531 
-0.2180655 0.5160946 0.82830775 
-0.24095382 0.5844401 0.7748362 
0.42782387 0.42979443 0.7951375 
-0.019456016 0.81153935 0.5839739 
0.14410213 0.4046493 0.90304685 
-0.1007674 0.39236334 0.9142741 
0.5355544 -0.03878807 0.8436096 
-0.22728689 -0.171815 0.95855117 
-0.025218101 -0.99082434 0.13278241 
-0.41447827 -0.37669 0.82843983 
-0.42322692 0.23053622 0.8762032 
-0.6500418 0.07297934 0.75638586 
-0.96527874 0.25156257 -0.07038027 
-0.2985527 0.6920569 0.6572089 
-0.46066645 0.7945938 0.3954837 
-0.39807206 0.2096936 0.8930662 
-0.17050734 0.57173175 0.80252737 
0.18843591 0.96370333 -0.189124 
0.7011524 0.53748065 0.4685082 
-0.12383361 0.6521448 0.7479121 
0.42563137 0.5414062 0.7250637 
0.32390973 0.6298312 0.70597106 
-0.13424917 0.37457848 0.91742474 
-0.17906015 0.65446967 0.7345795 
-0.018117178 0.32449266 0.9457147 
0.0105757145 0.09621453 0.9953044 
0.20979838 0.5140952 0.83167946 
0.37178564 0.38160723 0.8462573 
-0.27141502 -0.25463864 0.92816657 
0.23827201 0.29692733 0.92469484 
0.004960557 0.7664061 0.6423372 
-0.11744753 0.8024152 0.5850948 
0.061672945 0.8998034 0.4319147 
0.09204393 0.9481853 0.30409303 
-0.34417838 0.92194134 -0.17766681 
0.50463283 0.52057016 -0.6887325 
-0.17779414 0.8215448 -0.5417134 
0.70725447 0.6629864 -0.24543893 
0.793446 0.57277304 0.20585074 
0.747762 0.2190517 0.6267921 
0.07213745 -0.1800085 0.9810164 
-0.043112744 -0.069569014 0.99664515 
-0.32750893 0.8757232 0.35474905 
-0.5692503 0.8090272 0.146387 
-0.2941561 0.7622478 0.57658523 
-0.37956935 0.6062301 0.698865 
-0.33069617 0.3661898 0.86979604 
0.07102655 0.45444703 0.8879376 
-0.090659626 0.65796334 0.74757284 
0.053425755 0.07414691 0.9958152 
0.59625685 0.27126983 0.755573 
0.09361278 0.81478435 0.5721567 
-0.1117365 0.8964722 0.42878044 
0.52670574 0.6823518 0.50692904 
0.10341622 0.5174543 0.8494387 
0.21983635 0.55216247 0.8042317 
-0.5734877 0.4353312 0.6939731 
-0.7861127 0.5043735 0.3572592 
0.16410412 0.9650105 -0.20451093 
-0.38847739 0.8936856 -0.22452544 
0.27362028 0.47126278 -0.8384769 
0.39551508 0.585928 -0.70728797 
0.27302507 0.9618794 -0.015670914 
0.49387458 0.6731162 -0.5504567 
0.64249057 0.7604469 -0.094480075 
-0.60729975 0.61627924 0.501385 
-0.8036195 0.51673734 0.29525968 
-0.5168067 0.8117337 -0.272028 
0.09982912 0.9414598 0.32200578 
-0.4911554 0.8504923 0.18822718 
-0.8654046 0.22638741 -0.4470164 
-0.8470884 0.5134695 0.13707814 
-0.8136271 0.34316546 0.46930626 
-0.6423968 -0.6946374 -0.32373646 
-0.024350358 -0.94665575 -0.32132536 
-0.18272088 -0.95225793 -0.24457724 
0.6465185 -0.6614056 0.38020593 
0.58117 -0.6719613 0.45903113 
0.50483197 -0.21138227 0.8369363 
-0.26459014 0.43798846 0.8591613 
-0.67474973 0.5834772 0.4519593 
-0.1508305 0.9772475 0.14912292 
0.32316527 0.6643348 0.67396116 
0.42370015 0.8852286 0.19196013 
0.5845568 0.7855099 0.20314446 
0.6208111 0.72477853 0.29881397 
0.49757522 0.8224282 0.2757368 
0.78484046 0.15019856 0.60122025 
0.44868067 0.68259573 0.57684386 
0.11575039 0.5942555 0.7959034 
0.28467196 0.47663835 0.83173174 
0.5023816 0.16319881 0.8491048 
-0.15434691 0.02982187 0.9875666 
0.17855534 0.5637531 0.8064121 
0.46076447 0.18335418 0.8683763 
-0.281127 -0.11847063 0.95233005 
-0.4812737 -0.5506056 0.6820625 
-0.3850158 -0.9126826 -0.13701673 
-0.6839597 -0.5741438 -0.4500646 
-0.8146255 0.051646024 -0.5776834 
-0.6534407 -0.44644427 -0.61131245 
-0.32212153 -0.04601937 -0.9455792 
-0.5704223 -0.08577051 -0.816861 
-0.7480723 -0.38035157 -0.54380184 
-0.4721202 -0.6938779 -0.54372436 
-0.5020066 -0.19874705 -0.8417179 
0.8064005 0.57166094 0.15140024 
0.44513324 0.6744637 0.58902895 
0.25254482 0.43011418 0.86673117 
0.26472864 0.6624254 0.70079345 
0.4007181 0.71047485 0.57848984 
0.05594146 0.98905665 0.13651973 
0.055520862 0.5720394 0.818345 
0.08147475 -0.22849718 0.9701294 
-0.94840527 -0.24995591 -0.19506341 
-0.8364735 0.5000165 0.22426674 
-0.49661687 0.82829297 0.25942728 
0.12919565 -0.018997667 0.9914372 
-0.09893891 0.0067178975 0.9950708 
-0.08987031 0.81815416 0.5679325 
-0.5540904 0.111239575 0.8249907 
-0.16407964 -0.5177868 0.8396278 
0.57914305 -0.20601697 0.7887651 
0.29124948 0.13782321 0.9466671 
0.13830364 0.55813533 0.81814253 
0.06947558 0.050951853 0.9962816 
0.29203936 -0.27314913 0.91657114 
-0.1304956 0.021665573 0.9912121 
0.6315362 0.05629702 0.77329993 
0.2991035 -0.20541513 0.9318485 
-0.8648037 -0.46907458 0.17911914 
-0.97485125 0.18760143 0.12029447 
-0.93388164 0.27431116 -0.22938722 
-0.998659 0.051060867 0.008548016 
-0.555165 0.07372502 0.8284664 
-0.92831045 0.36095166 0.08918366 
-0.29940605 0.3385005 -0.8920614 
0.041504756 0.13297327 -0.9902503 
0.047812443 0.64023244 -0.76669186 
0.5545053 0.80602896 -0.20698154 
0.4304306 0.7009104 0.5687303 
0.29635584 0.9441371 -0.1441474 
0.96441853 0.26402333 0.0137344785 
0.78766567 -0.46955895 0.39887017 
0.30273452 0.602781 0.7382459 
0.046027444 0.901655 0.42999983 
0.37453946 0.25320652 0.89196795 
-0.03844394 -0.33336753 0.9420129 
0.33815405 -0.15810728 0.9277144 
0.4357103 -0.54790294 0.7141141 
-0.043446925 0.7388457 0.67247266 
-0.0028663632 -0.31603983 0.9487417 
0.63312167 -0.014838347 0.77391016 
-0.079134405 0.26301867 0.96154 
-0.06575612 0.43596816 0.89755666 
-0.12246275 0.31598037 0.9408291 
-0.48835596 -0.07430317 0.8694754 
-0.3894676 0.40321788 0.82808846 
-0.9689729 0.19839005 0.147421 
-0.9677403 0.2508019 0.024027359 
-0.46703243 0.7922929 -0.39262307 
0.24892661 0.9637316 -0.09621353 
-0.33948472 0.91130275 -0.23297553 
0.6797273 0.6129436 -0.4028288 
0.9451219 0.3095069 -0.10464362 
0.6257873 -0.08951745 0.7748399 
0.15924981 0.48796007 0.858216 
0.008582474 0.050424878 0.99869096 
0.11872657 0.67637026 0.7269301 
0.044568237 0.34520933 0.9374669 
-0.8028024 0.27921745 0.5268264 
-0.5520188 0.7350172 0.3937322 
-0.14154355 0.97750735 0.1563484 
-0.69055164 0.7216993 -0.047838904 
-0.25723195 0.9565466 -0.1372961 
-0.31543472 0.60532874 -0.7308065 
0.13215213 0.98911107 -0.06477162 
-0.058275312 0.5368703 0.84164983 
-0.011890343 0.5008531 0.8654506 
0.61022955 0.767411 0.19672382 
0.53885645 0.6624794 0.520341 
0.024842875 0.65223783 0.7576073 
0.79770225 0.5905957 0.12193375 
0.5760651 0.38831592 0.71927726 
0.32996365 0.6270002 0.7056874 
0.100393124 0.617791 0.77990746 
-0.08695522 0.74415934 0.6623184 
-0.12444436 0.677775 0.72466177 
-0.3056371 0.39146388 0.86795276 
-0.085488334 0.19482118 0.9771062 
0.2524904 0.8990375 0.3577433 
-0.25216782 0.9140494 0.31768736 
-0.30391932 0.51268846 0.8029843 
0.3020552 0.5453378 0.7819012 
0.28988096 0.45953876 0.8395197 
0.19502704 0.49024263 0.84948623 
0.22350533 0.10248771 0.9692996 
0.051555775 0.16287608 0.98529863 
-0.2580323 0.28981698 0.92164284 
-0.4899823 0.86558807 -0.10331878 
0.43121463 0.8381388 0.334032 
0.33983657 0.8010034 0.49285376 
0.49715567 0.74155074 0.4504872 
0.92291754 0.38446304 0.020282393 
0.48606858 0.79907393 0.35386187 
0.08321127 -0.8260809 0.5573745 
0.8253968 0.043589957 0.5628679 
0.21853276 0.6112064 0.7607037 