# OOMMF: rectangular mesh v1.0
# Segment count: 1
# Begin: Segment
# Begin: Header
# Desc: Time (s) :  2.6799999999999965e-07
# Title: m
# meshtype: rectangular
# meshunit: m
# xbase: 2e-09
# ybase: 2e-09
# zbase: 5e-10
# xstepsize: 4e-09
# ystepsize: 4e-09
# zstepsize: 1e-09
# xmin: 0
# ymin: 0
# zmin: 0
# xmax: 1.024e-06
# ymax: 1.024e-06
# zmax: 1e-09
# xnodes: 256
# ynodes: 256
# znodes: 1
# ValueRangeMinMag: 1e-08
# ValueRangeMaxMag: 1
# valueunit: 
# valuemultiplier: 1
# End: Header
# Begin: Data Text
0.74291277 -0.46122932 0.48512697 
0.80170417 -0.55148315 -0.23051429 
0.37851307 -0.8222687 -0.42497295 
0.48230433 -0.39150688 -0.7836485 
0.5108208 -0.65449363 0.55740494 
0.44123986 0.04159796 0.89642453 
0.023435371 0.33397564 0.94229037 
-0.29167727 0.3892319 0.87374085 
-0.7781767 -0.20228863 0.5945757 
-0.7313039 -0.3955604 -0.5556319 
-0.47389653 -0.52566004 0.70647275 
-0.6051034 -0.48624152 0.63041186 
-0.6202636 0.42072815 0.6620128 
-0.76547456 -0.24725579 0.5940651 
-0.9316554 -0.3498708 -0.098024495 
-0.9167846 -0.046940353 0.39661404 
-0.23860312 -0.88585174 -0.39791384 
0.38451377 -0.6496105 -0.6558624 
0.53988206 -0.58704966 -0.6032413 
0.66022134 -0.66420513 -0.3506271 
0.9304381 -0.16281597 -0.32829237 
0.91956437 0.28390974 -0.27165568 
0.75184685 0.12770301 -0.64685273 
0.87625843 0.26993036 0.3991352 
0.5457451 0.43519276 0.7160794 
0.19185641 0.4292229 0.8825864 
0.051266845 0.9773044 0.20554297 
0.6523655 0.75785196 -0.008937004 
0.13124646 0.54414594 0.82866144 
0.05713695 0.8491686 0.52502203 
-0.058195774 0.9553809 0.28958708 
-0.6518761 0.56103706 -0.51019126 
-0.46511027 0.14880858 0.872656 
-0.3673179 -0.06451544 0.92785525 
-0.028821819 -0.39257002 0.9192704 
0.33678448 -0.7573478 0.5594646 
0.31660795 -0.86856276 0.38125888 
0.5830578 -0.72040945 0.37557137 
0.84461296 0.09304699 0.5272298 
0.8834273 0.19190861 0.4274661 
0.7604537 0.5063129 -0.40664154 
0.8792565 0.4675878 -0.090938225 
0.8621546 -0.03406634 -0.5054988 
0.09999923 0.38199824 -0.918737 
0.6737838 0.4527416 -0.58398676 
0.9509931 -0.2412149 -0.1934616 
0.2185242 0.87653095 -0.42888293 
0.7576775 0.6468635 -0.0865589 
0.4400183 0.5920163 0.6752042 
0.026630308 0.82596445 0.5630928 
-0.19086276 0.9761173 0.10376175 
0.12761329 0.979903 0.15331396 
-0.32564133 0.9394212 -0.10698351 
0.26897925 0.8131361 0.5161976 
0.37292743 0.7490835 0.5475392 
-0.38540205 0.87310046 0.2985984 
-0.6993063 0.7102524 -0.08069881 
-0.74806756 0.63508654 0.19251011 
-0.9899114 0.054165803 -0.1309261 
-0.6969888 0.16465509 0.69792217 
0.24016914 0.6934221 0.67932665 
0.2233292 0.2617989 0.9389279 
0.0076873438 0.6725103 0.7400479 
0.543218 0.8223852 -0.169106 
0.8771081 0.47774595 0.049399164 
0.27577275 0.11090463 0.9548034 
0.55366224 -0.7628041 0.3340481 
-0.099181965 0.20528542 0.9736637 
-0.24163507 0.12115976 0.96277356 
-0.743962 -0.37549493 0.55274236 
-0.9305309 0.33294043 0.15252192 
-0.7859403 -0.54747295 0.2873522 
0.35186487 -0.8145551 -0.4611846 
-0.4637573 -0.6083493 0.64408094 
-0.0012228091 -0.9317441 -0.36311373 
-0.63130283 -0.70225054 -0.32909128 
-0.06045521 -0.61237806 -0.7882502 
-0.21514097 -0.914576 0.34244004 
0.4690406 -0.88160443 -0.052674163 
0.8787549 -0.44546893 -0.17131005 
0.88870746 -0.33111307 0.317117 
0.70718807 0.42204273 0.5672433 
-0.035362285 0.16628936 0.9854427 
-0.5382174 -0.3307636 0.77518874 
0.52306575 -0.5994483 0.6058581 
0.64218414 -0.23551083 0.7294753 
0.54913425 -0.60669124 0.5747847 
-0.234088 -0.49611205 0.8361075 
-0.2730358 0.12608619 0.95370525 
-0.44816634 0.271755 0.8516432 
-0.0846403 0.9394262 0.33213606 
0.5197005 0.334246 0.7862513 
-0.29306322 0.058666192 0.9542915 
-0.26280838 -0.045146693 0.9637913 
-0.40582082 -0.48183137 0.77662617 
-0.7625798 0.47568426 0.43840256 
-0.83990645 0.5417992 0.031795908 
-0.29691592 0.9324253 0.20597115 
-0.56153923 0.2589416 -0.78589 
0.4619227 0.8125527 -0.35550752 
0.45880687 0.8097632 -0.3657593 
-0.07161828 0.88965887 -0.45097435 
-0.20095228 0.73115206 0.6519471 
-0.7803249 0.41445783 0.468314 
-0.366902 0.82836175 -0.42331988 
-0.831894 0.2003423 -0.5175089 
-0.9656224 0.21855961 0.1407306 
-0.8740589 -0.47443655 0.104552485 
-0.9170142 -0.17913342 -0.3563654 
-0.9545503 -0.29789287 -0.009678011 
-0.49499562 -0.22438633 -0.8394226 
-0.16497438 -0.23374045 -0.95820093 
-0.35623538 0.16740957 -0.91927713 
0.0146515295 0.26012394 -0.9654641 
-0.014232051 0.15338647 -0.98806375 
-0.08946751 0.39017975 -0.91638166 
0.09170288 0.6045608 -0.79126287 
-0.008268501 0.70820695 -0.70595646 
0.32588437 0.9022755 -0.2823091 
0.9720803 0.14192723 -0.18685995 
0.8088319 0.44787365 -0.3810513 
0.9195515 0.22936589 -0.31908664 
0.47491238 0.8487832 0.23243345 
0.4788131 0.62265205 0.6189043 
-0.2985695 0.95294046 -0.052542213 
0.041312963 0.8792608 -0.47454587 
0.037413914 0.97902733 0.20026398 
0.76205105 0.6242943 -0.17185692 
0.44093925 0.46424568 0.76814634 
0.9394039 0.27519703 0.20441842 
0.034609985 0.9991092 0.024147876 
0.40692136 0.6249069 0.6662631 
-0.36086038 0.6927414 0.6244111 
0.2017239 -0.019214889 0.97925395 
-0.6877977 -0.6902386 0.22473316 
-0.02537815 -0.6651406 0.7462868 
-0.39514938 -0.36032897 -0.8449971 
-0.5445689 -0.40253025 -0.73580855 
-0.47809952 -0.22613503 -0.84869546 
0.75013536 0.110938154 -0.65191233 
0.700785 -0.00828833 -0.7133244 
0.9654309 0.1238426 -0.22936045 
0.90760016 0.09739084 -0.40838334 
0.8921767 -0.29981244 0.33783615 
0.96688306 -0.25326282 0.03154672 
0.9293319 -0.3682957 -0.026468705 
0.22864255 0.18105862 0.9565252 
0.39637864 -0.5871456 0.70579314 
-0.400559 -0.10060548 0.9107311 
0.11854612 0.37452456 0.9196077 
-0.7708279 0.25290895 0.58468926 
-0.9999409 -0.009925101 -0.004437124 
-0.6206931 0.112286516 -0.77597165 
-0.8712262 0.014487138 -0.4906681 
-0.59544 -0.4512016 -0.66473186 
-0.2522133 0.183481 -0.95011747 
-0.8599875 -0.32321188 -0.39491224 
-0.54688984 -0.52829385 -0.6494746 
-0.113824524 -0.8506593 -0.51324713 
-0.282019 -0.8618884 -0.42144254 
0.31730008 0.117350705 -0.9410364 
0.8952394 -0.06536569 -0.4407649 
0.7155724 0.5674415 -0.40738967 
0.7676058 0.13500448 0.62654227 
0.68843967 -0.57307005 -0.44456902 
0.7002358 -0.60995996 0.37097016 
0.7915965 0.20026912 0.57729316 
0.43001047 -0.22876757 0.87335926 
0.26406857 0.6573823 0.7057736 
-0.10598481 0.8542128 0.5090067 
-0.0012859188 0.9200218 0.39186525 
0.21614447 0.8998994 0.3787649 
-0.5832822 0.39599827 0.7092019 
-0.022415662 0.6420227 0.76635796 
-0.33047312 0.2332475 0.9145398 
-0.31863463 0.34524938 0.8827655 
-0.067072175 0.5037092 0.8612656 
0.16336946 0.97384804 -0.15789361 
-0.29961532 0.8490507 -0.43513644 
0.020055223 0.5009601 -0.865238 
0.49057016 0.009514948 -0.8713499 
0.7129444 0.69694906 0.07728159 
0.3137661 0.27054837 0.91013974 
-0.069944605 0.61964464 0.7817598 
0.34568748 -0.27376506 0.897526 
-0.023340428 -0.51138175 0.8590366 
-0.33577093 -0.057245683 0.9402026 
-0.30225515 0.6612155 0.686612 
-0.9167631 -0.2928368 0.27164698 
-0.66856396 -0.5865804 0.45710585 
-0.4887405 -0.83745736 -0.24453631 
-0.8498863 -0.5255346 -0.03881675 
-0.52313685 -0.070147924 0.849357 
-0.64641327 0.13378401 0.75116694 
0.114547364 0.48498255 0.8669895 
0.68201625 -0.13829519 0.71814233 
0.63186675 -0.2692744 0.72679824 
0.61173284 0.7909573 0.013018715 
0.5209697 0.29687113 0.80028635 
-0.08449092 0.64269257 0.761451 
-0.40446755 0.89540404 0.1861656 
-0.33442962 0.6227808 0.7073196 
-0.8817433 0.32643333 0.34054396 
-0.97269905 0.20418411 -0.11029773 
-0.93863356 -0.1386391 0.3158265 
-0.9865357 -0.09371646 0.134032 
-0.55985427 -0.5047949 -0.65707344 
-0.5180741 -0.16472152 -0.8393248 
-0.28700447 -0.5672109 -0.7719457 
0.49498358 -0.7429422 -0.4505865 
0.8592465 -0.18226357 0.4779913 
-0.28301546 0.037589602 0.95837843 
-0.4718488 0.40081534 0.7853062 
-0.49821618 0.85958856 -0.113526516 
-0.6037214 0.5192194 -0.604923 
-0.14936623 0.04990207 -0.98752195 
-0.50318265 0.20738767 -0.83892643 
-0.009644773 0.11762029 -0.99301183 
-0.6592941 0.17188653 -0.7319743 
-0.38490358 0.5882059 -0.7112406 
0.21286473 0.9583727 -0.1902904 
-0.3523765 0.9358264 0.0077362047 
-0.3864503 0.8733587 -0.29648057 
0.40469876 0.5299253 -0.7452504 
0.32563838 -0.057742655 -0.94372964 
0.87539494 0.21705039 0.43194097 
0.6091911 0.66072595 0.43855152 
0.9326652 0.27945113 0.2281287 
0.9385534 0.05791926 0.34023944 
0.2472232 -0.6792676 0.6909966 
-0.2529268 -0.22212501 0.9416415 
-0.6155351 -0.7878182 0.021429162 
-0.43673941 -0.8784238 -0.19398564 
-0.7969795 -0.6011029 0.059153836 
-0.6748875 0.024142364 -0.7375257 
-0.8699402 -0.18972586 0.45520133 
-0.9836564 -0.032993622 -0.17700696 
-0.32921842 -0.3324995 -0.88377565 
0.11350035 0.003226763 -0.9935327 
0.34864348 -0.12057065 -0.92946786 
0.6550432 -0.51664996 -0.5513541 
0.9674677 -0.030406438 -0.2511608 
0.84871686 0.5109456 -0.13643402 
0.34402287 0.6149734 0.7095464 
0.043524273 0.26412663 0.9635055 
0.067712806 -0.013899006 0.99760807 
0.1480092 -0.2677937 0.95203984 
-0.08728665 0.9827698 0.16292547 
-0.11820983 0.9250304 0.36103374 
0.0018442989 0.52731615 0.84966713 
-0.04040622 0.9942047 0.09962166 
0.07902539 0.66086894 0.7463292 
-0.50464636 0.8630225 0.022896506 
-0.67031986 0.2410667 -0.70182484 
0.05342558 0.46245253 -0.88503295 
0.8453388 0.51522714 -0.14122075 
0.6155204 0.30589622 -0.72633475 
0.753476 -0.43880272 -0.48961842 
0.82023233 -0.5683952 -0.06438883 
0.77744144 -0.5520874 -0.30130413 
0.5440319 -0.68458116 0.48515764 
0.5556687 -0.33028916 0.7629819 
0.0045879665 0.3295248 0.94413584 
-0.27240303 0.2641073 0.9252265 
-0.67336273 -0.2714554 0.68767333 
-0.9028041 -0.38121536 -0.19904682 
-0.49060285 -0.85248256 0.18050604 
-0.089679375 -0.99483585 0.047531497 
0.0024369806 -0.61328393 0.7898588 
-0.49713942 -0.69150025 0.5240991 
-0.9013079 0.20118606 -0.3836253 
-0.95112926 0.27255696 0.14514095 
-0.051629197 -0.5864953 -0.80830556 
0.27368596 0.008516139 -0.9617815 
0.4368496 -0.637508 -0.63462275 
0.94383824 -0.27205458 -0.1874991 
0.9439463 -0.2892942 -0.15897915 
0.92499715 -0.28161117 -0.25509867 
0.8597984 -0.096935 -0.50134856 
0.16438091 0.9444022 0.28475147 
0.5420485 0.73888093 0.4002981 
0.5156513 0.2816384 0.809187 
-0.3126598 -0.0048301024 0.9498529 
-0.06925999 0.22981499 0.97076684 
0.03274129 0.19990693 0.9792677 
0.52199703 -0.09004063 0.8481815 
-0.11277954 0.6123472 0.78250355 
-0.4672079 0.18353952 0.86488724 
-0.49334323 0.16056737 0.8548864 
-0.7559815 -0.38297164 0.53087157 
-0.1958499 -0.9234835 0.32988027 
0.0781732 -0.916012 0.39346036 
0.44725043 -0.8898357 0.09032992 
0.71248543 -0.18607521 0.67656535 
0.25726622 -0.54508466 0.797933 
0.21220563 0.4921331 0.8442593 
0.1158541 0.66008484 0.7422035 
-0.58441806 0.74258506 0.32714376 
0.30082962 0.85683954 -0.4187213 
0.17819352 0.2863436 -0.94141096 
0.7697885 0.4989935 -0.39803442 
0.7395338 0.6644526 0.107668705 
0.73039323 0.4454265 -0.5178041 
0.683344 0.51204675 0.52043176 
0.49617985 -0.3485989 0.7951632 
0.14476301 0.55968046 0.8159666 
0.46491536 0.39622346 0.7917454 
-0.12556006 0.96081793 0.24711055 
-0.39801684 0.62921435 0.6675867 
-0.33649185 -0.047592282 0.940483 
-0.1490713 0.1384408 0.9790873 
-0.72890097 0.5664343 0.38451996 
-0.9909299 0.115326755 0.06897593 
-0.7146371 0.33934656 0.61166805 
-0.6037087 -0.18030882 0.7765466 
-0.76111424 -0.25209793 0.5976218 
0.09083814 0.5693286 0.81707615 
-0.27413958 0.4914769 0.82661843 
-0.3682799 0.6136426 0.69843596 
-0.2751994 0.64655507 0.7114998 
0.36383802 0.689373 0.6264078 
0.5818273 0.40727508 0.70399153 
0.2214551 -0.17799626 0.9587883 
-0.2489403 0.24229294 0.9377222 
-0.17607197 -0.1260322 0.97627586 
-0.905582 -0.1636989 0.39131072 
-0.97333884 -0.20669758 -0.09943726 
-0.79624933 -0.4245184 -0.4310118 
-0.4438366 -0.6809851 -0.58246756 
0.15915048 -0.89648795 -0.41349792 
0.23142041 -0.93984115 -0.25128314 
-0.16021514 -0.67963606 0.7158394 
-0.16087565 -0.8342677 -0.5273676 
-0.30628 -0.9358186 -0.17445979 
-0.088413104 -0.9110186 0.4027757 
0.6917246 -0.66806173 -0.27424574 
0.6133648 -0.6585033 0.43607 
0.41822138 -0.79640704 0.4368372 
-0.6872039 -0.52642256 0.5006297 
-0.032120254 -0.6032139 0.7969325 
0.19906604 -0.8087448 0.553448 
0.39185923 -0.8252778 0.4066485 
0.40170303 -0.78513443 0.47137952 
0.23244613 0.12662831 0.964331 
-0.49361554 0.068208866 0.86700135 
-0.08275009 -0.71432316 0.6949064 
0.032439023 0.32250097 0.9460131 
0.09930316 -0.20570101 0.9735636 
-0.391175 -0.6965293 0.60152227 
0.042681668 -0.30622137 0.9510031 
0.095135964 -0.40508997 0.9093136 
-0.053345326 0.95302457 0.29815874 
-0.8690729 0.48584917 0.09307448 
-0.7293909 0.6779011 0.09186487 
-0.26545057 0.8713782 -0.41259688 
-0.3797797 0.92455184 0.031166308 
0.4854065 0.8598892 -0.15802206 
0.24018641 0.91028255 0.3371887 
-0.39402753 0.856186 0.33419758 
-0.5915699 0.80558264 0.032890033 
-0.89463407 0.3064404 -0.3251525 
-0.8986028 -0.3038414 0.31653363 
-0.649998 -0.47073635 0.5965819 
-0.8722359 -0.4592031 -0.16833611 
-0.80039346 -0.2868498 -0.5263909 
-0.5541627 0.37093273 -0.745193 
-0.22613278 0.5987299 -0.7683661 
0.23011522 -0.22570507 -0.9466278 
0.0321571 -0.0581374 -0.9977906 
0.29549548 0.62775576 -0.72014254 
0.39999378 0.78661454 -0.47036445 
0.1717483 0.8925113 -0.4170446 
-0.07787489 0.76296157 -0.6417361 
0.62638813 0.69792813 -0.34718046 
0.6411413 0.76254016 0.08643232 
0.7479919 0.6361448 0.18928273 
0.5572527 0.00017294947 0.830343 
0.5677786 0.46385205 0.6800507 
0.33237937 0.7880354 0.51819324 
0.32367346 0.6524717 0.68521255 
0.38763633 0.90391326 0.18077293 
-0.22176199 0.8828468 0.41400856 
0.61903405 0.61075336 0.493738 
0.59243584 0.7864079 0.17487827 
0.5037336 0.8628355 -0.042039316 
0.8934554 0.44870785 0.019968202 
0.6692216 0.66885763 0.3236851 
0.28240892 0.55408275 0.7830948 
-0.32773432 0.5973326 0.73197275 
-0.23930079 0.14503264 0.96005243 
-0.7006395 -0.12706932 0.7021095 
-0.73380446 -0.6553707 0.17894204 
-0.87985927 -0.47425804 -0.0304468 
-0.21182819 -0.8405129 -0.49866512 
0.47368887 -0.4317846 -0.76758116 
0.35126147 -0.78294843 -0.5134269 
0.7840599 -0.6130798 -0.09686712 
0.9667648 -0.23860157 -0.09184361 
0.61639506 0.752145 -0.23309861 
0.9525393 0.2920947 0.08572934 
0.7046926 0.6408795 0.30443683 
0.94211733 0.14966948 0.3000234 
0.5041419 -0.35899222 0.7854716 
0.0135729415 -0.8604302 0.50938755 
-0.590239 -0.17708808 0.78756446 
-0.2339393 0.47151616 0.8502616 
-0.43683222 -0.19489771 0.8781757 
-0.9163726 0.061913658 0.39550975 
-0.9239876 0.22412378 -0.30986375 
-0.50129 -0.11943022 -0.85699755 
0.09639697 0.04951058 -0.9941108 
-0.36555102 0.36348537 -0.8568845 
-0.52115273 -0.119958155 -0.84499115 
-0.19083363 0.057785694 -0.9799201 
-0.06762272 0.09651503 -0.9930318 
0.07701933 0.23400904 -0.9691789 
0.11740692 0.6018631 -0.7899218 
0.68217814 -0.12880664 -0.71975124 
0.8910809 -0.29514292 -0.3447689 
0.76743346 -0.64014286 0.03553806 
0.37671247 -0.8777838 -0.295945 
0.8740024 -0.13928974 0.46553 
0.69918275 -0.49027514 0.52035934 
0.7766285 0.50904673 0.371106 
0.11334174 0.090125255 0.98946 
-0.24278618 0.5533943 0.7967495 
-0.02157398 0.60054475 0.79930013 
0.23216778 0.24507935 0.94129395 
-0.102227256 -0.43329656 0.895435 
-0.5170358 0.21832375 0.82765263 
0.11311884 -0.058490824 0.99185836 
0.23023202 0.14072727 0.96290666 
0.2935772 0.39431036 0.87082255 
0.20231345 0.5945563 0.77818525 
0.56982523 0.70803136 0.4171222 
0.86623734 0.28197291 0.41246122 
0.7867638 0.40957722 0.4617893 
0.5015906 0.66428113 0.5541999 
0.3809911 -0.62330604 0.68288755 
-0.24508351 0.00918509 0.9694585 
0.45292163 -0.35662988 0.81711525 
-0.31057692 -0.14055885 0.9400985 
-0.2805952 -0.4392366 0.85342693 
-0.276242 0.07021847 0.9585196 
-0.8643149 0.26303783 0.4286853 
-0.9117581 -0.17549473 0.37134737 
-0.43626672 -0.89411676 0.10112636 
-0.56903327 -0.79882234 0.19515164 
-0.44167742 -0.31457376 0.84021693 
-0.4758951 -0.2447278 0.8447676 
-0.30390498 0.9286782 0.2125996 
0.49851435 0.41211718 0.76265514 
0.44798023 0.4397428 0.7784215 
0.30469295 0.39002764 0.8689309 
0.43525755 0.19769995 0.8783312 
-0.100930266 0.860414 0.49950045 
-0.69016224 0.6723468 0.2676304 
-0.7754004 0.5436809 0.32119372 
-0.4914407 -0.09706411 0.8654853 
-0.9628326 -0.038452677 0.26734787 
-0.9748025 -0.049424183 0.2175255 
-0.9956766 -0.09179698 -0.014194409 
-0.3784083 0.15599875 -0.9123988 
-0.50605834 0.28151527 -0.81526333 
0.31245393 0.09796834 -0.9448677 
0.5476441 0.24527235 -0.7999547 
0.861607 0.16419655 -0.4802841 
-0.10288772 -0.3344865 0.9367672 
-0.733797 0.06560513 0.6761937 
-0.40958902 0.7844539 0.4656919 
-0.5399882 0.45560914 -0.7076956 
-0.2638613 0.037147988 -0.96384513 
-0.57327175 0.46131212 -0.6771638 
-0.3917918 0.44808277 -0.8035678 
-0.24098192 0.6714109 -0.7008104 
0.33805647 0.74104035 -0.58015275 
0.618409 0.49535558 -0.6100764 
0.33595252 0.93348277 0.1254823 
0.57833284 0.80217594 -0.1484755 
0.06172347 0.9908102 -0.12035464 
0.3390343 0.7476661 -0.57100904 
0.9431659 -0.27672336 0.18401708 
0.81545156 0.20873463 0.53987837 
0.60990405 -0.4168329 0.6739937 
0.41032228 -0.051751032 0.9104711 
-0.13090041 -0.22172473 0.96628326 
-0.28089634 -0.42391703 0.86104095 
-0.3196627 -0.38826153 0.86433136 
-0.40388933 -0.8807559 0.24726994 
-0.95894223 -0.2835967 0.0016912722 
-0.90454984 -0.0199548 -0.42590082 
-0.6289091 -0.25439414 -0.7346816 
-0.5626508 -0.4806431 -0.6726116 
-0.22595228 -0.6352597 -0.7385058 
0.5096169 -0.59710836 -0.6194775 
0.86912197 0.27604768 -0.41039595 
0.9507181 0.17124517 0.2584769 
0.7768034 -0.25459406 0.5759848 
0.52961993 0.6348586 0.56254536 
0.6724461 0.14008912 0.7267677 
-0.06603923 -0.09436166 0.99334526 
0.13431427 0.1613224 0.97771925 
-0.05192012 0.124433815 0.9908686 
-0.39030316 -0.08254965 0.91697824 
0.20498726 0.57498044 0.79207176 
0.086556904 0.6024535 0.79344684 
0.35324666 0.9132534 0.20294082 
-0.5241681 0.75257534 0.3985952 
-0.3989003 0.8927259 0.20956866 
0.35348722 0.8829676 -0.30889335 
-0.10577199 0.86855674 -0.48417097 
0.30429173 0.94133323 -0.1459395 
0.9982492 0.059145056 0.00073921494 
0.9512327 0.0449189 0.30518654 
0.6495551 0.58082527 0.4906326 
0.3953247 -0.46550602 0.7918475 
0.47901902 -0.28833485 0.8290983 
0.4144358 -0.5592175 0.71799636 
0.584134 0.36742893 0.7237289 
0.21258388 0.19558899 0.9573678 
-0.618051 -0.011844157 0.78604877 
-0.071150474 -0.62153363 0.7801497 
-0.4685944 -0.66687465 0.57939416 
-0.6934402 -0.4220979 0.5839299 
-0.3715127 -0.9244872 0.085450724 
-0.52298886 -0.85017335 0.060728226 
-0.82565826 -0.56375974 -0.021528266 
-0.79050475 -0.51553655 -0.33064222 
-0.20577312 -0.8517469 -0.4818556 
0.1782312 0.09939176 -0.97895604 
0.7221351 -0.5778232 -0.3803172 
0.89840555 0.20485386 -0.38846177 
0.46100858 -0.011397355 -0.8873225 
0.97648454 -0.1134175 0.18334277 
0.77531433 -0.62383366 0.098587535 
0.43111905 0.57032114 0.6991925 
0.47828045 0.25410944 0.8406404 
0.45159662 0.12613073 0.88326186 
-0.30056491 -0.2611382 0.9173154 
-0.87632877 0.4701765 0.10479536 
-0.5109741 0.34212384 0.78857905 
0.80632675 -0.50463855 -0.30850786 
0.17208967 -0.7456152 0.6437726 
-0.32161278 -0.34287572 0.8826107 
-0.5916556 0.011633153 0.80610687 
-0.77465135 -0.5636259 0.28677732 
-0.644707 -0.6401883 0.41774622 
-0.44009513 -0.76432616 0.47129813 
-0.025979336 -0.95979285 0.2795046 
0.64466524 -0.53608584 0.54499424 
0.3257347 -0.32859164 0.8865238 
0.6153615 0.27520892 0.73864084 
0.40401343 0.8828333 0.23953843 
0.0017561344 0.9746493 0.22373123 
-0.14184651 0.98981506 0.012077408 
0.5376708 0.8429346 0.0192705 
0.48491457 0.85070944 0.202858 
0.3320848 0.6262292 -0.705377 
0.6801247 0.7150776 -0.16153806 
0.4512256 0.887288 0.095475644 
0.17561182 0.64642066 0.7424964 
0.5933665 -0.027720163 0.804455 
-0.059199348 0.14550671 0.98758453 
0.15965411 0.5365872 0.8286041 
-0.2507272 0.087346055 0.9641092 
-0.39812708 0.5391793 0.74214596 
-0.22035226 -0.24769472 0.94344705 
0.3847672 -0.35772654 0.8508736 
-0.63975847 -0.7377579 0.21545859 
-0.35579953 -0.8426131 0.40423992 
-0.08415125 -0.9925229 0.08841393 
0.26662806 -0.8386509 0.47494656 
-0.24207203 -0.21211672 0.94678813 
-0.52799404 0.36864126 0.76506597 
0.37904787 0.04489112 0.9242877 
0.4894033 0.37387112 0.7878483 
0.4322247 0.11557856 0.89432853 
0.039808888 0.30753732 0.9507029 
-0.43059015 0.10864017 0.89598525 
-0.6487574 0.2080634 0.73199975 
-0.76718706 -0.32098 0.5553339 
-0.7282295 -0.6326197 -0.2635797 
-0.6151935 -0.50786984 -0.60299695 
-0.7485319 -0.6120786 -0.25506836 
-0.4636592 -0.18203901 -0.8671113 
-0.2803354 -0.70946836 -0.6465809 
-0.7218068 -0.22480406 -0.65456706 
-0.5827857 -0.646201 0.49273232 
-0.2036856 -0.47636297 -0.8553307 
0.55291384 -0.7699584 -0.31851298 
0.31019217 -0.91531485 0.25686502 
0.8899407 -0.45296356 -0.053195108 
0.8132646 -0.5102892 0.27965266 
0.5090667 -0.76138014 0.40143698 
0.44200546 -0.13358086 0.88701034 
0.26801205 -0.74800617 0.6071708 
0.15050673 -0.7841633 0.6020263 
-0.3070264 -0.6296733 0.71361506 
0.7480947 -0.48549563 0.45238084 
0.0069738906 -0.3056264 0.952126 
-0.04186497 0.114092045 0.9925877 
-0.35907313 -0.91708684 0.17325757 
-0.33205515 -0.6551985 0.67856795 
-0.6323317 -0.63951695 0.43723541 
-0.5485835 -0.6839861 0.48085257 
-0.3185366 -0.5927394 0.73972595 
-0.5831525 -0.24274395 0.7752475 
-0.6513914 0.0010070109 0.7587413 
-0.6292916 0.37900525 0.67848885 
-0.15546975 0.9862048 0.056826696 
-0.13757609 0.990473 0.006013156 
-0.1764522 0.91250014 0.36906397 
-0.6874554 0.6258828 0.36834204 
-0.78494453 0.5085313 0.35391816 
-0.8137318 0.3365123 -0.47392 
-0.7200552 0.59428656 -0.35825136 
-0.42457926 0.83881485 -0.34076717 
-0.4976234 0.17472503 0.849613 
-0.5123251 -0.58637816 0.62744224 
-0.9720498 0.22163942 -0.07742887 
-0.6912051 0.6496957 -0.31643495 
-0.8854587 0.26969 -0.37845764 
-0.3889728 0.19068629 -0.9012985 
-0.7892915 0.3167311 -0.52602315 
-0.19880596 0.97350997 0.11293574 
-0.098818004 0.990964 -0.09069474 
0.58871496 0.8019628 0.10134311 
0.29896146 0.94915146 0.09865874 
0.08531651 0.39924315 0.912867 
0.5771333 0.7793904 0.24386002 
0.5823647 0.8067892 -0.099712275 
0.53777057 0.81158394 -0.2283293 
0.9177245 0.38580385 -0.09453663 
0.44734544 0.616314 0.6481043 
0.6369538 0.75876963 0.13622986 
0.5158693 0.39343137 0.76098 
0.36433876 0.15503384 0.9182711 
-0.32374716 0.775108 0.5425822 
0.52177703 0.4429927 0.7290448 
0.0068031023 0.6935049 0.7204198 
-0.060420133 0.5301068 0.8457756 
-0.008959693 0.5586766 0.8293372 
0.29868135 0.9284178 0.22097512 
-0.3957487 0.5575864 0.7297126 
-0.9920124 -0.12588403 0.008050278 
-0.97871375 0.1946773 0.06496225 
-0.7315407 -0.68137896 -0.023898272 
-0.5124832 -0.8583792 0.02337354 
-0.7951466 -0.59375745 -0.12326391 
0.087767474 -0.8143115 -0.57375413 
0.3325766 -0.49107182 -0.80513436 
0.94265574 -0.2166834 -0.25386718 
0.5829085 -0.39119568 -0.7121683 
0.6044809 -0.21630667 -0.76669043 
0.84928936 -0.1873802 -0.49355492 
0.97661006 0.15647139 0.14747746 
0.74861133 0.43297452 0.5021097 
0.77837163 -0.27379692 0.5649539 
0.6808411 -0.00061573175 0.732431 
-0.3408917 0.07351322 0.9372239 
-0.6330844 -0.3740023 0.67773634 
-0.39541432 -0.23524283 0.88786733 
-0.97787577 -0.06613958 0.19845594 
-0.92797244 -0.063954756 0.3671201 
-0.5455807 0.15193762 -0.8241704 
-0.09086962 0.03661779 -0.99518937 
0.029470924 0.482842 -0.8752115 
-0.3747517 0.18136773 -0.90921223 
-0.015578672 0.2998015 -0.95387447 
0.22491284 -0.43519595 -0.8717906 
0.57438767 0.40183726 -0.713166 
0.21870185 0.0041634785 -0.9757829 
0.55554825 0.8301248 -0.0475282 
0.9504239 -0.25395116 -0.17945236 
0.89788556 0.10827215 0.42670664 
0.43346792 -0.6867522 0.5835042 
0.3446133 -0.9237315 -0.1672176 
0.88628346 0.041280482 0.4613 
0.21487613 -0.26177165 0.9409059 
0.36355293 0.069694206 0.92896295 
-0.054475725 -0.430925 0.900742 
0.019711409 0.73176813 0.6812686 
0.5483213 0.40413702 0.73213184 
0.16424896 0.013752359 0.98632306 
-0.6581659 0.093600936 0.74703187 
-0.18024498 -0.3913511 0.9024168 
0.18284032 -0.563693 0.8054934 
0.55528665 -0.71140206 0.43077138 
0.2827746 0.23038228 0.9311083 
0.76093155 0.27249035 0.5888398 
0.06005052 0.37738273 0.92410845 
0.5274437 -0.29112178 0.7981549 
0.60269594 0.46424288 0.6490271 
0.13157973 0.6961759 0.7057096 
0.81065524 -0.3164968 0.49261352 
0.55812746 0.05696126 0.82779783 
-0.15864328 -0.43592885 0.8858885 
-0.43104705 0.3164523 0.84501857 
-0.5677907 -0.45171517 0.6881622 
-0.661254 -0.30917418 0.683487 
-0.8713346 0.19199155 0.45156989 
-0.84999245 -0.19216943 0.4904935 
-0.73429817 -0.6253466 -0.26409817 
0.13485354 -0.99074936 -0.015175158 
0.009113234 -0.48470917 0.874628 
-0.48767677 -0.51395243 0.7057084 
-0.25136226 0.2850689 0.9249609 
0.11592123 0.5046607 0.85549986 
0.21198522 0.4391342 0.8730541 
-0.47056916 0.34057173 0.81398755 
-0.029449822 0.78985804 0.61258227 
-0.6945511 0.5655259 0.44472393 
-0.48975733 0.48162448 0.72675693 
-0.274705 -0.05534064 0.9599348 
-0.38150162 0.28591523 0.87903863 
-0.98176646 0.18963751 0.013129447 
-0.9512143 0.30848294 0.005457406 
-0.5981258 0.53776896 -0.59418017 
-0.4383266 0.54717547 -0.71307003 
0.10825514 0.31910843 -0.94151515 
0.28884268 0.44815287 -0.8460076 
0.71958554 0.5632808 -0.40609282 
0.9003703 0.3733188 0.22353175 
0.21535543 -0.4832138 0.84860265 
-0.52506167 -0.38243642 0.7602978 
-0.5780472 0.41119358 0.7048272 
-0.7549355 0.6489808 0.094320945 
-0.18049653 0.4505264 -0.8743266 
-0.4299965 0.6605072 -0.6154944 
0.17984638 0.96391517 -0.1962726 
0.5365038 0.83043945 -0.1501138 
0.43285355 0.83623576 -0.33667144 
0.46519172 0.73416626 -0.4945671 
-0.049847737 0.90058863 -0.43180475 
0.68370664 0.66643375 0.29734048 
0.3251352 0.945617 0.009780079 
0.09992576 0.99155664 0.08264633 
0.6983684 0.66152716 0.2732461 
0.24660957 0.0959537 0.964353 
0.080432974 -0.40290973 0.91169864 
-0.3711624 -0.39647117 0.839672 
-0.92902577 -0.098455496 0.3566758 
-0.5896665 -0.6000963 0.5405349 
-0.65804064 -0.721571 -0.21521573 
-0.21652217 -0.91880846 -0.33001417 
-0.08966553 -0.94750375 -0.30691513 
-0.89973813 0.20279244 -0.38645375 
-0.9586604 0.11539381 -0.26010484 
-0.8841792 -0.38541162 -0.26397938 
-0.64761364 -0.008350047 -0.76192313 
0.40158942 0.34514883 -0.8482914 
0.9342858 0.3541975 -0.04067143 
0.87600327 0.48055917 -0.04100357 
0.7703354 0.17101805 0.61427706 
0.76372576 -0.091466725 0.6390281 
0.47464526 0.33049 0.8157747 
0.28944862 0.33253947 0.89757293 
-0.51022685 0.37035435 0.7762129 
-0.33358553 -0.32404467 0.8852772 
-0.6343395 0.25754753 0.7288915 
-0.6834859 0.5569115 0.4719074 
-0.19150476 0.5087139 0.83936656 
-0.40825295 0.912562 -0.023668466 
-0.6677274 0.51895875 0.5336871 
-0.41055733 0.8275585 -0.38287026 
-0.2680672 0.92729205 0.26128417 
-0.5087483 0.7966986 0.32626152 
0.03692865 0.9897104 -0.13823783 
0.80323404 -0.46655464 0.3703267 
0.858832 0.020403508 0.51185083 
0.54255706 0.3216789 0.77598625 
0.38120013 -0.001251936 0.9244917 
0.4778971 -0.11381672 0.87101096 
0.47628674 -0.3070759 0.82392687 
0.3433996 -0.15243033 0.9267371 
0.5280557 -0.10904564 0.8421794 
-0.4400755 -0.2787749 0.8535914 
-0.19949532 -0.14690955 0.9688237 
-0.6069246 -0.3507928 0.7131529 
-0.02195951 -0.8399259 0.5422569 
0.035379384 -0.8366371 0.5466139 
0.14565548 -0.92952406 0.33877647 
0.14475802 -0.8646451 0.4810759 
-0.5543786 -0.66015714 0.50681055 
-0.05054727 -0.9852603 -0.16342358 
-0.35531843 -0.037321035 -0.93399996 
0.6955393 -0.4019997 -0.59550095 
0.94572526 -0.056359835 -0.3200426 
0.827984 0.31631175 -0.46302202 
0.8214918 -0.2701194 0.5021821 
0.7786813 -0.3092951 0.5458866 
0.45177993 0.68173295 0.5754434 
0.36635026 0.28808478 0.88475686 
-0.29230422 0.36844882 0.8824987 
0.16952592 -0.3145943 0.93396544 
-0.7240197 0.22829868 0.65090334 
-0.8830163 0.4676629 0.03967122 
-0.8378021 -0.5284937 0.13704774 
-0.65654075 -0.65438956 0.37513822 
-0.36871698 -0.31004885 0.876309 
-0.67926407 0.30040416 0.6695951 
0.15872346 -0.28447416 0.945453 
-0.15366714 -0.7515522 0.64152616 
0.20229043 -0.35583964 0.91239077 
0.1954706 -0.8184556 0.5402978 
0.55152756 -0.7780763 0.30069053 
0.5117949 -0.7983046 -0.31745207 
0.5431269 -0.8383168 0.047309034 
0.45273545 -0.029646724 0.89115185 
0.5321917 0.60490113 0.59233993 
-0.47371483 0.5306965 0.7028197 
-0.1568874 0.7172899 0.67888254 
0.35878766 0.850027 0.38564953 
0.62430125 0.69269943 0.36113092 
0.81147337 0.46446025 0.3546657 
0.6631372 0.5241937 0.534294 
0.20135643 0.25459337 0.94585305 
0.17111409 0.38735244 0.9059128 
-0.41427675 0.2856294 0.86417043 
0.12557647 0.4551401 0.88152033 
-0.15733907 -0.39291662 0.9060138 
-0.40091008 -0.3436758 0.84921026 
0.08885288 -0.484994 0.86999196 
0.23792559 -0.7248364 0.646532 
-0.14796421 -0.40038335 0.9043228 
-0.4547581 -0.87545174 -0.16364418 
-0.20624304 -0.7775949 -0.59397817 
0.8167504 -0.4599235 -0.3484096 
0.78949666 -0.6049831 0.10339523 
0.39323527 0.18049136 0.901548 
0.7422247 -0.16116412 0.6504834 
0.09844929 0.41277984 0.90549475 
0.31946516 0.31541222 0.8935643 
-0.389084 -0.36245266 0.84690136 
-0.3082464 0.25623792 0.9161476 
-0.8867261 0.15529127 0.4354327 
-0.8461857 -0.3758184 -0.3777967 
-0.5611706 -0.42106095 -0.71259755 
-0.8854385 -0.01943047 -0.46435022 
-0.93106544 0.014319976 -0.36457118 
-0.6112129 0.27698156 -0.7414176 
-0.5922014 -0.554663 -0.5845054 
-0.7051567 -0.31575072 -0.6348666 
-0.35845843 -0.91222095 -0.19839491 
-0.1956507 -0.9341004 -0.29862568 
-0.12815659 -0.38952678 -0.9120553 
-0.19523065 -0.71122545 -0.67530996 
0.6236487 -0.7800553 -0.05075528 
0.97471416 -0.22012612 0.038430754 
0.5366772 -0.6161622 0.5764737 
-0.09778546 0.1403963 0.9852548 
0.6240178 -0.3737163 0.6862492 
-0.57741064 -0.33468935 0.74470127 
-0.31507704 -0.22221316 0.9226852 
-0.37609264 -0.48115984 0.7918583 
-0.7276655 0.13365446 0.6727848 
-0.5055554 0.08941059 0.85814893 
-0.7107786 -0.44634205 0.54366595 
-0.10856967 -0.96576786 0.2355951 
-0.41417536 -0.6031212 0.68169177 
0.079880536 -0.9945229 0.06740375 
-0.22477323 -0.6614021 0.7155587 
0.045671802 -0.22224826 0.97391987 