# OOMMF: rectangular mesh v1.0
# Segment count: 1
# Begin: Segment
# Begin: Header
# Desc: Time (s) :  2.799999999999997e-07
# Title: m
# meshtype: rectangular
# meshunit: m
# xbase: 2e-09
# ybase: 2e-09
# zbase: 5e-10
# xstepsize: 4e-09
# ystepsize: 4e-09
# zstepsize: 1e-09
# xmin: 0
# ymin: 0
# zmin: 0
# xmax: 1.024e-06
# ymax: 1.024e-06
# zmax: 1e-09
# xnodes: 256
# ynodes: 256
# znodes: 1
# ValueRangeMinMag: 1e-08
# ValueRangeMaxMag: 1
# valueunit: 
# valuemultiplier: 1
# End: Header
# Begin: Data Text
0.08147857 -0.54312223 0.83569115 
0.39553037 0.10693315 0.91220677 
0.45415568 -0.7142268 0.5325625 
-0.019980805 -0.45650166 0.8894982 
0.92242044 0.29238126 -0.25229692 
0.64585775 -0.7413741 0.1822976 
0.7580843 -0.074490815 -0.6478885 
0.846887 0.50712365 0.16002539 
0.9955033 -0.07222331 -0.06129522 
0.92757505 0.36313364 -0.08796858 
0.6904602 0.596258 0.40956223 
0.18580197 0.9825766 0.004564859 
-0.30891824 0.86862004 0.38738713 
-0.7188732 0.56724477 -0.4018144 
-0.24038577 0.1543194 -0.958332 
0.39789405 0.5504446 -0.7339558 
0.47697017 0.7825525 -0.40013903 
0.3041892 0.4229247 0.8535829 
0.16847125 -0.11351981 0.97914803 
-0.60651493 0.1629898 0.7781864 
-0.63337743 0.37121475 0.6789939 
-0.50690544 0.60024536 0.61867 
-0.4810572 0.86829007 0.12106324 
-0.26428625 0.7872003 0.557197 
0.45237872 0.7605612 0.4657255 
0.5291737 0.5938045 0.60611176 
0.4052891 0.58079296 0.7059889 
0.5108678 0.15502173 0.8455664 
0.09611713 0.7616323 0.6408415 
0.0478735 0.084038146 0.99531186 
0.022358885 0.07823635 0.9966841 
-0.13338569 0.7566317 0.64009136 
0.087496765 0.90114987 0.42458597 
0.33679488 0.8523625 0.40005928 
0.49602246 0.6551315 0.56988114 
-0.06402466 0.43747678 0.89694756 
-0.43892357 0.6355225 0.63518286 
-0.28184378 0.7009883 0.65511805 
-0.81731075 0.4437475 0.36754793 
-0.9995736 0.028115414 -0.007882914 
-0.92223334 -0.052237354 -0.38308874 
-0.85948306 -0.40487835 -0.31202978 
0.0008716361 -0.6713353 -0.74115336 
0.306244 -0.05936776 -0.9501001 
-0.03581746 0.039334226 -0.998584 
0.90665144 0.33973178 -0.25013095 
0.7136535 0.58368003 -0.38731942 
0.3836227 0.8140978 -0.43597993 
0.73905104 0.66304266 0.119071715 
0.61223567 0.6433038 -0.459704 
0.30355152 0.8904841 0.3389612 
0.3031997 0.63036466 0.71464 
-0.48143715 0.5570347 0.6767057 
-0.45359716 0.40806285 0.7922968 
-0.50051683 0.68907595 0.5240776 
0.6476529 0.63396513 0.42265102 
-0.5623195 0.4148187 0.7153477 
-0.06709507 0.95985407 -0.2723574 
0.06097593 0.7848677 -0.6166562 
-0.75752693 0.457557 0.46561226 
-0.78283817 0.55261445 0.28597495 
-0.7318063 0.61543643 -0.29274154 
-0.7093922 0.6835617 -0.17177355 
-0.5029967 0.86197424 -0.06320425 
-0.6937851 0.6193226 0.36756197 
-0.5144077 0.75846666 0.4001414 
-0.91691035 0.33200538 -0.2214677 
-0.27604076 0.40882617 -0.86986357 
0.19901758 0.89419025 0.4010184 
-0.98515904 -0.16935672 0.027928324 
-0.26825586 -0.13142039 -0.9543414 
-0.36006442 -0.5557088 -0.7493607 
0.14143918 -0.95161253 -0.272816 
-0.028727978 -0.87833583 -0.47718006 
-0.42424038 -0.554178 -0.71617514 
-0.69179904 -0.011011092 -0.72200614 
-0.61166626 -0.77180207 0.1737411 
-0.8523464 0.39608473 -0.34150043 
-0.7378548 0.4315723 -0.5189564 
-0.37487236 0.46344498 -0.8029257 
0.08253335 0.6718853 -0.7360424 
-0.53801495 0.8121542 -0.22571105 
0.2821534 0.10701553 -0.953382 
0.56245154 0.8056391 -0.18599413 
0.65880066 0.52556753 -0.5382941 
0.5946783 0.7215719 -0.35453033 
0.8063659 0.44484267 -0.38972944 
0.65466183 0.53959686 -0.52938956 
0.1590539 0.80653274 -0.56939155 
0.06513091 -0.017023794 -0.99773157 
0.54298174 0.6006239 -0.58687454 
0.7261382 0.6481293 0.22945985 
0.22203289 0.78899324 0.57287973 
0.13296555 0.6986883 -0.70296144 
-0.044236418 -0.05000068 -0.99776906 
0.7333627 0.18279707 -0.65480113 
0.7634088 -0.04235529 -0.6445255 
0.34306827 -0.50937426 0.7892035 
0.36928514 0.92864674 0.035269003 
0.5491706 0.8204194 -0.15913431 
0.35384664 0.60732293 -0.71130264 
0.70983326 0.33396572 -0.6201643 
0.73457366 0.6693854 0.11101765 
0.37908238 0.68242747 0.6249715 
0.8581908 0.50598663 0.08652232 
0.9714592 -0.1351541 0.19493733 
0.39840448 -0.16297205 0.90261513 
0.1302319 -0.07141906 0.988908 
0.21501642 0.32702923 0.9202282 
0.64403886 0.6268458 0.43849558 
-0.13693656 0.05503474 0.98904985 
-0.10161477 -0.06510882 0.9926909 
-0.63973343 0.42446506 0.6407578 
-0.071105994 0.9766491 -0.20273264 
-0.46499562 0.8382349 -0.284853 
-0.28688115 0.6702769 -0.6844181 
-0.46456003 0.5607863 -0.6853487 
-0.45506328 0.8840525 -0.106623724 
-0.2594912 0.89617264 0.35991523 
0.2902196 0.8913592 -0.34821177 
-0.3734114 0.8644843 -0.336498 
0.44184563 0.89266586 -0.08899499 
0.9826916 0.09979563 0.15607071 
0.9184692 0.38239446 -0.100939974 
0.3543629 -0.07135725 0.9323814 
0.45813742 0.5122903 0.7264081 
0.41715273 0.8559658 0.30546072 
0.88016653 0.31841058 0.352025 
0.09506432 0.3018672 0.9485985 
0.78544515 -0.17799932 0.5927834 
0.10894897 -0.0995693 0.98904806 
-0.20045952 -0.18300316 0.96245825 
0.12513395 0.18536384 0.9746701 
0.16373928 0.45020804 0.8777825 
-0.4369415 0.8950143 0.08961943 
-0.583226 0.81180894 0.028525524 
0.9961716 -0.008506077 -0.087004624 
0.8164054 0.37811077 0.4364798 
-0.017611936 0.3548335 0.93476367 
-0.26112568 0.882968 0.39010364 
-0.60151947 0.2989554 0.74081045 
-0.40842336 0.65884364 0.63175595 
0.10895715 0.5551985 0.8245503 
0.16222705 0.04355626 0.98579174 
-0.06976476 0.40822056 0.91021365 
-0.3223406 0.88249934 0.3424783 
0.47112504 0.1805129 0.8633982 
-0.1712569 0.76063794 0.6261797 
0.12904628 0.86988986 0.4760658 
-0.2952413 0.80371696 0.51659644 
0.38626972 0.7943799 0.46878198 
0.28134504 0.076764464 0.9565314 
-0.22655267 0.2979799 0.9272982 
0.20857872 0.6716833 0.71087027 
0.40210122 -0.14573187 0.90392303 
0.57583064 -0.40608552 0.70958704 
-0.44049463 0.032620613 0.8971625 
-0.49596944 0.59633726 0.63118637 
-0.6362208 0.7665061 -0.08770131 
-0.51738805 0.7190123 0.4640376 
-0.69013065 0.67256296 -0.2671683 
-0.3859746 0.40339288 -0.8296373 
0.5072593 0.728048 0.46112272 
0.22935164 0.9576412 0.17413025 
0.13607907 0.836533 -0.5307496 
0.35197133 0.77066326 0.5312196 
0.009098352 0.2770487 0.96081287 
0.81314695 0.35967302 0.45763248 
0.25141641 -0.7312772 0.63405323 
0.18786028 -0.8391707 0.51039314 
0.19803418 -0.9706329 -0.13658124 
0.10513893 -0.98733085 0.118843146 
-0.023569059 -0.9524664 0.30373076 
-0.06212216 -0.7364967 0.6735826 
-0.1426113 -0.67221045 0.7264951 
0.10340675 -0.31028318 0.9450034 
0.6033825 0.2793815 0.7469107 
0.35280052 0.88352877 0.3080725 
-0.27755976 0.37193838 0.88578916 
-0.7733262 0.45125294 0.44535106 
-0.17650765 0.9579952 0.22603185 
-0.12601066 0.5524575 0.8239612 
0.5269315 0.36708444 0.7665457 
-0.95768297 -0.18225981 0.2227663 
-0.9913993 0.12360221 0.043010544 
-0.91509926 0.36555782 0.17017888 
-0.6533952 0.59229594 -0.47144485 
-0.3626937 0.4222846 -0.83074015 
0.17034858 0.089916416 -0.9812729 
-0.025259994 0.6772689 -0.7353019 
0.42695665 0.5019132 -0.7521908 
0.8575645 0.32828373 0.39599633 
0.072737865 0.56618655 0.8210615 
0.7215963 0.56034184 0.40659052 
0.007504477 0.9583081 0.28563833 
-0.2120093 0.9557172 0.20410006 
-0.28564936 0.91628116 0.28077248 
-0.1918641 0.9513977 0.24089552 
-0.14107324 0.9369078 0.31984705 
0.43369803 0.20165685 0.87820303 
0.07961625 0.72968256 0.6791352 
-0.37343746 0.71092975 0.5959223 
0.3116651 0.7490742 0.5845963 
0.19214368 0.44723526 0.8735339 
0.3675338 0.6527954 0.6624025 
-0.26041663 0.27537838 0.92539185 
-0.3660955 -0.14873223 0.9186146 
0.123116076 -0.2765418 0.95308304 
0.32560322 0.7377823 0.59132046 
0.5923863 0.12195798 0.79636973 
0.48195115 -0.16907309 0.85973096 
0.2854869 0.13532738 0.9487802 
0.2840308 -0.4089753 0.86721724 
-0.39851266 0.58252025 0.70841926 
-0.83874077 0.045301087 0.5426434 
-0.93032277 0.25498825 -0.2635919 
-0.6139461 0.45995757 -0.6414899 
0.43229535 0.44040048 -0.7868723 
0.40779904 0.9105292 0.0680926 
0.14784218 0.92413527 0.35230199 
0.94649994 -0.069958 0.31502974 
0.15675344 0.6543531 0.7397638 
-0.18601628 0.16673423 0.9682963 
-0.06816597 0.9951845 0.070435904 
0.81226623 0.58103853 0.05116448 
0.46343324 0.8771632 -0.1257556 
0.5466515 0.82395947 -0.14920835 
0.17180167 0.36411813 -0.91537005 
-0.24403082 0.15070385 -0.95798606 
0.5396767 -0.45758146 -0.70666 
0.6572624 -0.43869498 -0.6128238 
0.18114172 -0.060726218 -0.98158044 
0.73593557 -0.5379678 -0.4110833 
0.7149766 0.42644274 -0.55403525 
0.757929 0.052319054 -0.65023565 
0.3762076 0.77782106 -0.50345033 
-0.5577537 0.80682915 0.19477572 
0.07761387 0.31243584 0.9467629 
-0.3992435 0.49163783 0.77388436 
0.38762352 0.9060413 0.16981512 
-0.018431887 0.7331778 0.6797872 
0.3054034 0.916596 0.25803217 
-0.017373944 0.93337125 0.35849163 
-0.15415831 0.8963006 0.41578895 
-0.22659259 0.96081495 -0.15965737 
-0.8065125 0.5412656 -0.2378428 
-0.8391501 0.5308943 0.11823063 
-0.8902527 0.45227268 0.05384782 
-0.40482697 0.56472605 -0.719166 
0.84691596 -0.039765533 -0.5302378 
0.054013126 0.70697975 -0.70516825 
-0.50410545 0.68366086 -0.5277174 
-0.33553216 0.8857793 0.32064492 
-0.43878174 0.52274066 -0.7308987 
-0.4678183 -0.046764605 -0.8825867 
-0.19148004 0.11701031 -0.9744968 
0.033651095 -0.97370815 0.22530036 
0.27503362 -0.29704368 0.9143968 
0.8802635 -0.45436284 -0.1367142 
0.5390621 -0.8391527 -0.07235401 
0.9209688 -0.19525556 -0.3371822 
0.9390431 -0.225932 0.25913852 
0.84176135 -0.32798138 -0.4287961 
0.8562034 0.40013877 0.32681024 
0.5178447 0.4324721 0.73810893 
0.6223968 0.77963954 0.06917 
0.24772592 0.92535836 0.2869565 
0.26623058 0.63313925 0.72681224 
-0.62506247 0.5549938 0.5488887 
-0.7202134 0.4987602 -0.48221463 
-0.12092798 0.51851654 -0.8464733 
0.4527696 0.82354146 -0.3417299 
0.8222024 0.5383846 -0.18473056 
0.70129174 0.59884846 0.3867435 
0.6050946 0.5594905 0.5664195 
0.30526683 0.11845277 0.94487095 
-0.43236402 0.42666718 0.7943655 
-0.6118404 0.44538206 0.65367126 
-0.11078427 0.98260444 0.14904843 
-0.0771513 0.99244225 0.095425986 
0.09118667 0.849375 0.51985306 
0.17548646 0.59684485 0.7829309 
0.18174748 0.8384261 0.51381874 
0.7297518 0.2556931 0.63410044 
0.35974112 -0.31524965 0.87818223 
0.4141591 -0.4245802 0.80511117 
0.13016428 0.11095936 0.98526406 
0.32202652 0.45702258 0.82911354 
-0.076725625 0.50571996 0.85927916 
-0.04414049 -0.2792131 0.95921415 
0.40443358 0.593333 0.695981 
-0.2588196 -0.25071108 0.9328218 
-0.10336258 0.19753407 0.9748316 
-0.11184867 -0.28281328 0.95263135 
-0.6305251 -0.45704746 0.6273323 
-0.77318317 0.6236947 0.114859074 
-0.90120274 0.27388725 -0.33588597 
-0.26751226 0.34809333 -0.89848113 
-0.45542812 -0.5947644 -0.66245043 
0.17707415 -0.85866916 -0.48096994 
0.5799778 0.41916928 -0.69851476 
0.8257589 -0.4853495 -0.28732944 
0.8493865 0.48046774 0.21838836 
0.41328093 0.7502918 -0.51600504 
0.851048 0.43527803 0.2936844 
0.8138843 0.52686983 0.24495037 
0.23893462 0.58493537 0.7750876 
-0.80979824 0.31628564 0.49415624 
-0.1277013 -0.08951001 0.9877654 
-0.7729913 -0.1581365 0.6143918 
-0.51162297 0.54443324 0.66470623 
0.21338607 0.97079283 0.109670386 
0.27862647 0.9344144 0.22189428 
0.7603644 0.6484611 -0.03666323 
-0.025751356 0.9591595 -0.28169125 
-0.5585327 0.70645994 -0.4346903 
-0.9366773 0.34649196 0.05078601 
-0.92366546 0.33435184 0.18721904 
-0.6869506 0.67598957 0.2667152 
-0.5180526 0.8553194 -0.00708659 
-0.29162517 0.78439766 0.547426 
-0.32008016 0.64504576 0.69387656 
-0.7656728 0.14807402 0.6259546 
-0.94136304 0.18716158 -0.28072456 
-0.46024668 0.87656826 0.14071625 
-0.959948 0.24753268 0.1312535 
-0.5726175 -0.37915453 -0.7268777 
-0.5391743 -0.5523862 -0.6357362 
-0.7900228 -0.6130672 -0.0035548788 
-0.05510069 -0.98629624 0.1555112 
-0.9058204 -0.22235976 -0.3606183 
-0.4250721 -0.66950434 -0.6091615 
0.0055638934 -0.7082773 -0.7059125 
-0.28867328 0.6459792 -0.7066673 
0.38680074 0.11851738 -0.9145157 
0.5077432 0.57526374 -0.64130235 
-0.031560548 0.9294332 -0.3676384 
0.3644654 0.875601 -0.31699854 
0.69442374 0.58270305 0.42217636 
0.61899674 0.6673818 -0.41405872 
0.8784052 0.46524724 -0.109312505 
0.3630253 0.92648584 -0.09918073 
-0.03946306 0.95092565 -0.30689266 
-0.17646609 0.8858535 -0.429096 
0.08168131 0.859602 -0.5043934 
-0.16360147 0.006256193 -0.98650676 
0.23646244 0.57301426 -0.7846913 
-0.04322286 0.7205969 -0.6920058 
-0.04861855 0.97020406 0.23736149 
-0.31589726 0.67328775 -0.6685003 
0.06566581 0.76582855 -0.63968325 
0.9452957 -0.062269524 -0.32021654 
0.3902008 -0.39620423 -0.8311231 
0.9779647 -0.14718722 0.14805777 
0.91288847 0.2717543 0.30460498 
0.7050222 0.6515472 0.28005362 
0.22891802 0.91001433 -0.3456452 
0.5942125 0.6453761 0.4800014 
0.8478522 0.25161305 0.46673083 
0.93083256 0.18866882 0.31297755 
0.9797481 0.15604681 0.12547182 
0.3533986 0.24906641 0.9017069 
0.43086132 0.45366582 0.7800935 
0.6746179 -0.5029948 0.54026574 
0.5650998 -0.09249141 0.8198218 
0.6682166 0.07011215 0.7406557 
0.07430009 0.057985704 0.99554867 
0.32046083 0.0814515 0.9437534 
-0.2246996 0.7610173 0.60857445 
-0.6835996 0.70214605 0.19920485 
-0.40986708 0.89747816 0.16291705 
0.15938859 0.986912 -0.024496062 
-0.8638591 0.50048983 0.05707374 
-0.8981231 0.43527454 0.06253858 
-0.948719 0.29183528 0.12150939 
-0.6549016 0.75528747 0.025393983 
0.063807204 0.94820875 0.3111732 
0.2176859 0.90248746 0.37165746 
0.6868584 0.71319526 0.13992205 
0.62183696 0.7823963 0.034277722 
0.7366337 0.23218645 0.63518524 
0.0394661 -0.13261776 0.9903813 
0.33687115 0.20906675 0.9180463 
0.44239473 0.42240268 0.791115 
0.3294195 0.69838506 0.6354064 
0.10716247 -0.6445816 0.7569879 
0.32198104 -0.21906114 0.921054 
0.21913677 0.15917431 0.96262276 
-0.30063808 -0.17184345 0.93812937 
0.109583534 -0.061843637 0.99205184 
-0.6150166 0.38718888 0.68690574 
-0.36245862 0.66350806 0.6545082 
-0.6839436 -0.3326573 0.64927673 
-0.12199599 0.05126733 0.9912057 
-0.19580269 0.84799606 0.49250782 
-0.024851011 0.7187664 0.6948075 
-0.77895063 0.61898583 0.10046116 
-0.8692932 -0.0960436 0.48487622 
-0.43192092 0.26243895 0.8628849 
-0.40166768 -0.20817342 0.891811 
0.26992038 -0.11803612 0.9556205 
-0.03592591 0.179719 0.98306185 
-0.46563414 0.3447677 0.81505847 
-0.58362854 0.43967697 0.6826873 
-0.250108 0.8713046 0.42222548 
-0.5005677 0.80229783 0.32519266 
-0.27166754 0.76552963 0.5832335 
-0.2654135 0.43666425 0.8595813 
-0.6570649 0.3791305 0.65155643 
0.018055113 0.81274194 0.5823441 
0.59940976 0.3161926 0.73534364 
0.19932176 0.61151385 0.76571655 
0.20402423 0.5563388 0.8055193 
0.54358804 0.64011663 0.5429206 
0.029134426 0.90077543 0.43330684 
-0.5964045 0.3386608 0.72774345 
-0.766489 0.21441446 0.6054099 
-0.9625811 0.053940885 -0.26557145 
-0.42173362 0.8204441 0.38602087 
-0.02738309 0.98014647 0.19637522 
0.039838806 0.9154154 0.40053424 
-0.27391592 0.9077173 0.3178356 
-0.23017107 0.5533134 0.80054086 
0.09196574 0.118897006 0.98863834 
0.33576575 -0.61233974 0.7157524 
0.5560732 -0.6448916 0.5243067 
0.6060951 -0.79475397 0.031857286 
0.2578401 -0.9199596 -0.2952844 
-0.5134027 -0.79409486 0.32531697 
-0.035483472 -0.78754854 0.6152302 
-0.63527715 -0.7712862 0.039250374 
-0.39895016 -0.41796744 0.8161752 
0.376324 -0.42786655 0.8217728 
-0.013536076 0.44361264 0.89611644 
-0.009210651 0.4664013 0.8845254 
-0.40334284 0.7695608 0.49506631 
-0.37937292 0.912316 0.15412931 
-0.05103937 0.6967631 0.71548325 
0.14357424 0.44549447 0.8836974 
-0.24146256 0.86095476 0.44771957 
-0.9706112 -0.08567275 0.22488672 
-0.7954672 0.3872334 -0.4661356 
0.02634677 0.59991324 -0.7996311 
0.1289487 0.95903826 -0.25222573 
0.6303774 0.64540726 -0.43136284 
0.07770242 0.8726414 0.48214042 
0.53301895 0.8386504 -0.1120552 
0.48683608 0.82909685 0.27493486 
0.7428661 0.20373447 0.6376851 
0.20238307 0.5206646 0.8294272 
0.42387086 0.60268086 0.67609864 
0.28364128 0.7532029 0.5934923 
-0.10372216 0.91489595 0.39013737 
0.42401713 0.87526214 -0.23264922 
0.30068955 0.77457845 -0.55642974 
0.9150397 0.36019993 0.18154426 
0.09873629 0.8843457 0.45627162 
-0.41210023 0.8470264 0.3357374 
0.0662216 0.79182416 0.6071484 
0.39068198 0.915828 -0.092880085 
0.824268 0.31966555 0.46732885 
-0.09437334 0.49842864 0.8617787 
-0.7550297 -0.12501213 0.64366305 
0.3532593 0.6233676 0.697582 
0.46082458 0.29570338 0.8367797 
0.44962472 0.17149544 0.8765997 
-0.2453916 0.14286804 0.9588388 
-0.36707258 0.06476648 0.9279348 
0.014611394 0.1342926 0.99083406 
-0.33816698 0.45733592 0.82248825 
-0.9765927 0.18833855 0.10390045 
-0.60569006 0.5109548 0.6099711 
0.0893958 0.9885335 0.12169654 
0.6515319 0.7059583 0.27772143 
0.90501505 0.33570817 0.26124278 
0.7959903 0.4914915 0.35332066 
0.99043363 -0.022869512 0.13608174 
0.43411446 -0.06103367 0.8987878 
0.2651221 0.65316176 0.7092884 
-0.14025158 0.98210806 0.12567174 
0.11427746 0.9932692 -0.0188979 
-0.20723632 0.88527024 -0.41635305 
0.20352812 0.9111836 -0.35821903 
0.42546183 0.5831474 -0.6920415 
0.39082512 0.29915908 -0.87049395 
0.68714106 -0.02122759 -0.72621393 
0.49863443 -0.32010123 -0.8055426 
0.64813495 -0.08331468 -0.75695425 
0.746399 -0.640581 -0.18040095 
0.7519586 0.57907915 -0.315001 
0.40499154 0.7008779 -0.5871559 
0.747877 0.5650552 -0.34841445 
0.24320915 0.9589208 0.1460146 
-0.03587663 0.33533734 0.94141483 
0.038665857 0.8153319 0.5777015 
-0.1564748 0.7559655 0.63563514 
0.81555194 0.39249074 0.4252364 
0.70567155 0.6960241 0.13258262 
0.4035045 0.9005321 -0.16194491 
0.26552883 0.7764042 0.5715689 
-0.12970959 0.8644655 0.48566973 
-0.14160548 0.97065777 0.19434863 
-0.6705797 0.7188216 0.18335314 
-0.8950394 0.20381902 0.3966892 
-0.46447212 0.87742144 -0.11998817 
0.53037006 0.7283068 0.43390885 
-0.49824145 0.786624 0.36466178 
-0.35618123 0.9164539 0.18233855 
-0.6964687 0.7098529 -0.10507294 
-0.92192125 -0.12973893 -0.3650055 
-0.7562993 0.25959384 -0.60051847 
-0.8543221 0.17545198 -0.48923448 
0.20281245 -0.9363953 -0.28641033 
0.7474625 -0.5115755 -0.42378104 
0.8693685 -0.48545426 0.09237201 
0.9023976 -0.02467645 -0.4301973 
0.97357243 0.100641504 0.20500763 
0.76140875 0.6197195 -0.19027498 
0.7837884 0.55636775 0.27591795 
0.97841704 0.12200778 0.16677588 
0.92059135 0.11867155 0.37205994 
0.6515647 0.75703675 0.04856862 
0.59858245 0.7494859 0.2827896 
-0.42281702 0.056233734 0.90446866 
-0.2669901 0.92505217 -0.2701757 
-0.11063028 0.973508 0.20010784 
0.10493083 0.97053635 -0.21690728 
0.8056083 0.48250538 -0.34377885 
0.9782825 0.017711837 0.20651838 
0.8457883 0.20750132 0.49151346 
0.6796153 0.30995396 0.66486967 
0.4889696 0.19907835 0.84928006 
-0.25652933 0.341188 0.90431386 
0.42474148 0.4823141 0.76613826 
0.09219717 -0.27911144 0.95582247 
0.35870627 0.01489047 0.9333317 
-0.003321041 0.28155616 0.95953906 
0.23074141 0.09510425 0.9683562 
0.21618602 0.37392724 0.9019102 
-0.09021925 0.49166802 0.86609656 
0.15836993 0.06986886 0.98490477 
0.27289912 0.2010817 0.9407934 
0.42159998 0.21439818 0.88107157 
-0.1564771 0.36989057 0.91580343 
-0.031909842 -0.49833673 0.8663961 
-0.22163066 -0.06871566 0.9727066 
-0.20852928 -0.13183548 0.96908975 
0.7310869 -0.62681013 0.26948288 
0.5946911 0.083438955 0.7996127 
-0.53177416 0.8172531 0.22206676 
-0.5186807 0.66814065 0.5334403 
-0.1622496 0.8886628 0.42889804 
-0.8916092 0.27761734 0.35771742 
-0.7254485 0.5827181 -0.3662845 
-0.26166737 0.085862845 -0.9613313 
0.6883126 0.051025055 -0.7236175 
0.62908006 0.561079 -0.5380044 
0.47800338 -0.7089199 -0.51859945 
0.6338606 0.74351305 0.21309446 
0.21569285 0.97626895 -0.01937977 
0.7086277 0.36136448 -0.60602194 
0.39078665 0.90855116 0.14771876 
0.48187166 0.8402227 0.24864711 
-0.8040171 -0.12048393 0.5822715 
-0.16100538 -0.19513722 0.96747035 
-0.54112756 0.2964232 0.7869653 
-0.21946092 0.602003 0.76774305 
0.0120931715 0.9192996 0.39337254 
0.006155102 0.69710845 0.71693933 
-0.019404175 0.12939711 0.99140304 
-0.1243721 0.2588566 0.95787525 
-0.54872304 0.683591 0.4812551 
-0.38992015 0.74084735 0.5469073 
-0.3595284 0.18384443 0.9148446 
-0.2522243 0.09376731 0.96311516 
-0.12815443 0.83491117 0.53525686 
-0.47484764 0.80601525 0.35335416 
-0.8045574 0.46249774 0.37253618 
-0.7800791 0.49351308 0.3846055 
-0.8015102 0.34913132 -0.48547783 
-0.7180181 0.5540949 -0.4212232 
-0.92583776 0.07422085 -0.37056154 
-0.772123 0.25346404 -0.58273673 
-0.75773436 -0.59563595 -0.26656428 
-0.6690041 -0.73721504 -0.0945912 
-0.6273212 -0.24449088 -0.7393865 
-0.6170879 0.004521576 -0.78688127 
-0.65999013 0.09476228 -0.7452739 
0.20306869 0.3461713 -0.91593045 
0.33178455 0.83616984 -0.4367368 
0.4297436 0.5430248 -0.7214185 
0.4111927 0.87694216 -0.24878326 
0.42930162 0.8695527 -0.24408673 
0.30870852 0.94658893 0.09310578 
0.62102395 0.71181333 0.32810232 
0.7104674 0.5342579 0.45804426 
0.58099073 0.18482393 0.7926474 
-0.28918207 0.28804654 0.91290915 
-0.7155602 0.6210092 0.3198769 
-0.16291583 0.8000922 0.57733077 
-0.30644783 0.9352452 0.17721784 
0.29930294 0.8561198 0.4212798 
0.26916602 0.8488673 0.454944 
-0.4254302 0.8950942 -0.13347505 
0.12903774 0.9700707 -0.20569915 
-0.60156167 0.677883 -0.4226087 
-0.59288234 0.7056557 -0.38799566 
0.21262616 -0.118080504 -0.9699728 
0.4703157 -0.30752307 -0.8271837 
0.83809936 -0.23767786 -0.49101794 
0.8393399 0.031712543 0.54268134 
0.90562147 0.21588346 0.36502615 
0.45706576 0.18654911 0.86964965 
0.6114971 0.030190188 0.79067063 
0.84032243 0.092048444 0.53421485 
0.67349833 0.13051721 0.72757494 
0.020178303 -0.14826402 0.98874193 
0.3012341 -0.16500899 0.93916464 
0.80349946 -0.29502922 0.51705563 
0.615903 -0.29991227 0.72850275 
0.40031075 -0.19633807 0.89509934 
0.4749821 -0.13342483 0.86982167 
-0.051789325 0.35547933 0.9332483 
0.11233324 -0.033743102 0.9930975 
-0.5974183 0.5759294 0.55802935 
-0.43240812 0.87080795 0.23391612 
-0.58825076 0.803722 -0.08939784 
-0.36908236 0.927324 0.062035 
-0.86442167 0.13120452 -0.48534578 
-0.8923818 -0.060232177 -0.44724357 
-0.8022264 0.55425936 -0.2218768 
-0.16445898 0.9715044 0.17068261 
0.07235864 0.9854548 0.15376322 
-0.31855765 0.75981075 0.5667528 
0.8003418 0.54950875 0.23977752 
0.7470199 -0.35697058 0.5608327 
0.34464458 0.05719987 0.936989 
0.618753 0.27151987 0.7371714 
0.41127208 0.15825686 0.89766926 
-0.053420495 0.30560547 0.9506585 
0.26343316 -0.32235816 0.9092239 
0.43023273 -0.07852244 0.8992964 
0.43489066 -0.87825 0.19886456 
-0.02552032 -0.22291028 0.97450495 
-0.017779483 -0.22885554 0.9732981 
-0.47505575 -0.025818013 0.87957686 
-0.72814894 -0.29126373 0.62045527 
-0.6064356 -0.22319289 0.76316494 
-0.42792454 -0.76320237 0.48415148 
-0.47466612 -0.0987832 0.87460506 
-0.28923187 0.59800285 0.7474875 
-0.6605329 0.45331696 0.5984982 
0.19156876 0.8701102 0.45410323 
-0.25311548 0.53917545 0.80325735 
-0.21915883 0.5100722 0.8317427 
-0.34677103 -0.06872203 0.9354289 
-0.5560263 -0.18038224 0.81135505 
-0.47258437 -0.19394569 0.8596797 
-0.13509654 0.5439683 0.82815903 
-0.9251834 0.25465614 0.28140002 
-0.52733725 0.70337933 0.47662657 
-0.4782356 0.856774 0.19294855 
-0.4699674 0.6423352 0.6054223 
-0.4976716 0.06279339 0.8650896 
-0.88863516 0.21542038 0.4048726 
-0.36714414 0.3447696 0.8639093 
-0.4352181 0.27737784 0.8565319 
-0.07489853 0.25260568 0.9646661 
-0.24837068 -0.008593394 0.968627 
-0.3983733 0.43200195 0.8091186 
0.22914287 0.5530257 0.8010344 
-0.92447424 0.33282867 0.1859368 
-0.94596416 0.2372821 0.2210184 
-0.7015289 0.711712 0.036376502 
-0.3543703 0.7554652 0.55108434 
-0.7121131 0.53532696 0.45422465 
0.18532467 0.5468905 0.8164347 
0.26268172 0.41310596 0.8719758 
-0.4466151 0.8490118 0.28233644 
-0.16439934 -0.39586136 0.90347475 
0.24363357 -0.82531834 0.509404 
0.14938055 -0.9441997 -0.29355142 
-0.36847118 -0.92478454 0.0948818 
0.52058285 -0.5248639 -0.67343265 
0.012255056 -0.98777825 -0.1553834 
0.59806085 -0.71071297 -0.37041914 
0.6328759 -0.5542692 0.540605 
0.8166593 -0.004320527 0.5771039 
0.21920645 -0.08811202 0.9716918 
-0.15343334 -0.29514372 0.9430527 
0.08078655 -0.06176698 0.9948158 
-0.16880733 0.58481187 0.79340994 
-0.65606356 0.077031195 0.7507642 
-0.39252713 -0.6508186 0.64989054 
0.13523321 0.6022908 0.7867387 
-0.15024844 0.73383033 0.6625092 
-0.65485996 0.75499487 0.03378211 
-0.71714664 0.34416872 -0.60601044 
-0.06560633 0.723829 -0.6868533 
0.7455377 0.46768376 -0.47481102 
0.6224288 0.6713878 0.40226963 
0.22086634 0.09035537 0.9711097 
-0.7785059 0.3019801 0.5502151 
0.8365064 0.37018478 0.40400544 
-0.010201243 0.6853428 0.7281492 
-0.07941054 0.7935193 0.6033416 
0.9708131 -0.027848095 0.2382151 
0.6570574 0.6962393 0.28900948 
0.044221725 0.92719096 0.3719697 
0.40315983 0.76779485 0.49794903 
0.42733562 0.83506775 0.34647682 
0.37529972 0.9008744 0.21811832 
0.62746364 0.75656766 0.18410519 
-0.13536702 0.49745935 0.85686064 
-0.18103881 0.5452984 0.8184587 
0.56280696 0.7088323 0.42521185 
0.6284945 0.3588511 0.6900874 
0.7418946 -0.16979945 0.64866066 
0.2680978 -0.2783164 0.9223143 
0.40693307 -0.15955406 0.8994153 
0.3046609 -0.45141587 0.8386927 
-0.08961935 -0.42829043 0.8991862 
-0.35344884 -0.008531865 0.935415 
-0.21529856 0.021240918 0.9763172 
-0.18040471 0.6286321 0.75648916 
0.028799362 0.0442385 0.9986058 
-0.5409506 0.16389547 0.82493085 
-0.055088583 0.45532912 0.8886173 
0.40914285 0.55031776 0.727841 
0.52127475 0.40917972 0.74889565 
0.97653055 0.08589862 0.19750845 
0.5366992 0.6800626 0.4994687 
0.7717115 0.099693045 0.62811035 
0.9710114 0.14422362 0.19062147 
0.92766005 0.37230983 0.028848449 
0.5744554 0.7664088 0.28743476 
-0.41215068 0.6909695 0.5938797 
-0.07508315 0.9921383 0.100120716 
0.9140957 0.24332151 -0.32438213 
0.16116339 0.76287246 -0.62614053 
0.21201703 0.1479381 -0.9660037 
0.46428302 -0.17774506 -0.86766815 
0.45661435 -0.27833378 -0.8450052 
0.694135 0.50244343 -0.5154874 
0.8829985 0.36661243 -0.2931023 
0.99889266 0.011108713 -0.045718357 
0.5917454 0.3587425 0.7219012 
0.41126934 0.8530897 -0.32108498 
0.8410017 0.54101574 0.004262291 
0.866624 0.4962555 0.051897366 
0.8753222 0.48269567 -0.028566932 
0.9436807 0.26194683 0.20211522 
0.5203352 0.6312599 0.5751194 
0.17203532 0.39601153 0.901986 
0.36335263 0.58660656 0.723787 
0.47405902 0.0038430418 0.8804847 
-0.26360458 0.3879522 0.8831794 
-0.37386525 0.88363963 0.28179032 
-0.38140836 0.7249859 0.5735182 
-0.6525283 0.51326954 0.55745965 
-0.36722505 0.9238156 0.10821553 
0.040091436 0.9449407 0.3247768 
-0.4163193 0.795078 0.4410546 
-0.70926905 0.59113437 0.38405424 
-0.927898 0.28351998 0.24211946 
-0.5470392 0.3241986 -0.7717794 
-0.6434592 0.15423982 -0.74978024 
-0.7457213 -0.5196985 -0.41690934 
-0.14558953 0.16099063 -0.9761587 
-0.3219759 -0.91949844 -0.22550866 
0.80659366 -0.31762782 -0.4985172 
0.93683976 0.1387774 -0.32104868 
0.79908496 0.57374555 -0.1796647 
0.87723863 0.16853939 0.4494964 
0.33575565 0.8447834 0.41666424 
0.67007655 0.2924419 0.6822575 
0.04383094 0.5161252 0.85539097 
0.5382366 0.39184058 0.7461651 
0.5259374 -0.18614842 0.8299028 
0.41353306 -0.025305653 0.9101375 
0.15021196 0.875342 0.4595789 
0.43949047 0.7513203 0.49230662 
-0.111380704 0.5260836 0.84310764 
0.48112223 0.8313915 0.27804634 
0.8098189 0.47249594 0.3477657 
0.49207383 0.26328254 0.82978654 
0.15103428 -0.21482049 0.96490455 
0.750307 -0.012006722 0.6609806 
0.2161412 -0.008398204 0.976326 
0.33381313 -0.065565586 0.9403563 
-0.59514123 -0.36227447 0.71733135 
-0.83559394 0.18627717 0.5168013 
0.35109013 -0.8879901 0.2970005 
-0.045947358 0.0025806173 0.9989406 
-0.4925439 -0.25936186 0.8307418 
0.044633754 0.4046973 0.91336083 
-0.21560018 -0.12129781 0.96891874 
-0.1990905 0.022380404 0.9797256 
0.0758768 -0.24877296 0.96558523 
0.06176755 0.045071308 0.9970724 
0.10707736 -0.74142665 0.66243565 
-0.0018547549 -0.16296372 0.9866303 
-0.14453886 -0.17680651 0.9735749 
0.5552795 -0.7736831 0.30508903 
0.24574684 -0.88812333 0.38838822 
-0.2904386 0.6672344 0.68588907 
-0.6919022 0.4428748 0.5702046 
-0.45664364 0.5885383 0.6671577 
-0.78507847 0.35984895 0.5041433 
-0.8621452 0.42986795 -0.26817808 
-0.029126499 -0.2925922 -0.9557936 
0.3781425 0.15490389 -0.9126956 
0.8644337 0.07130279 -0.49766505 
0.7312212 0.21874496 -0.6461163 
0.7815824 0.326928 -0.5312694 
0.98978513 0.097643115 0.10388099 
0.5898872 0.7491472 -0.3013498 
0.731221 0.6821393 0.0014108779 
-0.30003133 0.87386787 0.3825392 
-0.62036955 0.23179832 0.74927384 
-0.7902163 -0.022526262 0.6124139 
-0.5626536 0.4717069 0.67890626 
-0.11664347 0.5830253 0.80403733 
-0.3608936 0.45357656 0.8148768 
-0.20647983 0.12363951 0.97060776 
0.0077037257 0.30235404 0.9531646 
-0.29951763 -0.14194907 0.9434721 
-0.046433598 0.25336328 0.9662562 
-0.1635316 0.377886 0.9112956 
-0.20307502 0.4488602 0.87022126 
-0.9317182 0.33574262 0.13848539 
-0.22342259 0.6596437 0.71760195 
-0.3627795 0.5960694 0.7163047 
-0.4871292 0.6237287 0.61128366 
-0.10594746 0.79029304 0.6034999 
-0.87610036 0.37281248 0.3057109 
-0.934654 0.3185376 -0.1579741 
-0.92240494 -0.21961445 0.3177083 
-0.9399434 -0.29094177 -0.17849231 
-0.84091896 -0.5262512 -0.12615474 
-0.84873325 -0.16569129 -0.5021934 
-0.9981127 -0.0610537 -0.006595499 
-0.564203 0.42813316 -0.7059583 
-0.16241904 -0.11491391 -0.98000765 
0.31620654 0.7432664 -0.5895494 
0.0061639883 0.61918765 -0.78521883 
0.9359055 0.23886353 -0.25889203 
0.78771913 0.6104548 -0.08272629 
0.3808237 0.76840276 -0.51432526 
0.32287163 0.86289626 0.38879824 
0.8542404 0.3551018 0.37970534 
0.70378214 0.6312518 0.32590172 
0.46988288 0.074168265 0.87960744 
-0.32526484 0.036141634 0.94493204 
-0.52124566 0.5289656 0.6697003 
0.30833036 0.7738162 0.55329996 
-0.36772144 0.10018055 0.9245241 
-0.12836376 -0.040719233 0.9908909 
-0.2570161 0.16541389 0.95214546 
-0.2635463 0.8721088 0.4122738 
0.34211862 0.9315594 -0.12309334 
-0.172781 0.92648846 0.33431423 
-0.654072 0.5974746 0.46391162 
0.30859178 0.46959272 -0.8271965 
-0.12343843 0.58738476 -0.7998389 
0.7212584 0.57632524 -0.38423377 
0.9021419 0.27884707 0.32921773 
0.897751 0.18553105 0.39952657 
0.6151346 0.5700241 0.54468536 
0.90634316 -0.12788011 0.40272668 