# OOMMF: rectangular mesh v1.0
# Segment count: 1
# Begin: Segment
# Begin: Header
# Desc: Time (s) :  2.8599999999999973e-07
# Title: m
# meshtype: rectangular
# meshunit: m
# xbase: 2e-09
# ybase: 2e-09
# zbase: 5e-10
# xstepsize: 4e-09
# ystepsize: 4e-09
# zstepsize: 1e-09
# xmin: 0
# ymin: 0
# zmin: 0
# xmax: 1.024e-06
# ymax: 1.024e-06
# zmax: 1e-09
# xnodes: 256
# ynodes: 256
# znodes: 1
# ValueRangeMinMag: 1e-08
# ValueRangeMaxMag: 1
# valueunit: 
# valuemultiplier: 1
# End: Header
# Begin: Data Text
-0.7661725 -0.62082326 0.16600683 
-0.27454337 0.24868345 -0.92886096 
-0.44785333 0.86458886 -0.22784546 
-0.42600125 0.87238955 -0.23970705 
-0.5094916 0.85783917 0.0673076 
-0.88357663 0.41170862 0.22313328 
-0.060252078 0.47160938 0.8797467 
-0.7552494 0.65522665 -0.016625702 
0.29717126 0.61155856 -0.73327035 
-0.23576109 0.42666358 -0.87314093 
0.43372884 0.68068755 -0.5903761 
0.05051041 0.9842419 -0.16945998 
-0.17449346 0.7504163 0.6375166 
-0.060480747 0.6279139 0.7759293 
-0.098196276 0.5895755 0.80172205 
-0.26301444 0.86464727 0.4280286 
-0.3813396 0.9058779 -0.18429707 
-0.4024879 0.90245956 -0.15352651 
0.67258114 0.4357302 -0.59814197 
0.30226293 0.95315444 0.011566388 
0.13767572 0.9840917 0.11229028 
0.22361414 0.72219485 0.6545467 
0.013952546 0.03327201 0.99934894 
-0.25103623 0.5708998 0.7816996 
-0.97457594 -0.01815093 0.22332107 
0.3585432 0.6874899 -0.63150966 
-0.45892632 0.78442997 -0.41720036 
-0.66019887 0.69880146 0.27534357 
-0.067060545 0.61791664 0.7833785 
0.49597806 0.30702364 0.81224525 
-0.89922076 0.20020969 0.38899645 
-0.56342655 0.25713256 0.78513277 
-0.81259966 0.1318498 0.5677125 
-0.46096316 0.53653276 -0.70685613 
-0.16640915 -0.18415616 -0.9687076 
-0.1728037 -0.5980298 -0.7826233 
-0.0974088 -0.68410194 -0.72285277 
-0.67231596 -0.72265965 -0.16048196 
-0.2506737 -0.8240049 -0.50811297 
0.71016794 -0.5960072 -0.37474924 
0.80936104 -0.32635465 -0.48829025 
0.8832855 0.0679262 -0.46388888 
0.9291213 -0.18036173 0.32280514 
0.77068 -0.25955588 0.5819649 
0.18504386 0.14646426 0.97175467 
0.20185345 -0.08934043 0.9753325 
-0.10561717 0.26043493 0.95969725 
0.14801948 0.4120667 0.8990503 
-0.5689118 0.05807535 0.82034546 
-0.8105757 0.18040468 0.5571544 
-0.61483586 -0.17457277 0.76909125 
-0.2198488 0.010004527 0.97548264 
-0.6119896 -0.19063886 0.7675453 
-0.5023502 -0.024726516 0.86431074 
-0.23658654 -0.94413435 -0.22942789 
0.3257144 -0.84022224 0.4335166 
0.71941626 -0.68790394 0.09606508 
0.4469951 -0.8671023 -0.21983856 
0.6646672 -0.16122043 0.7295379 
0.33906737 -0.48183635 0.8080019 
0.49797928 0.4453756 0.74408144 
0.4127394 0.8417458 0.34800887 
-0.2593736 0.71442384 0.64986455 
0.5127136 0.8559898 -0.06637999 
0.5537516 0.76605684 0.3263683 
0.96656585 -0.07381441 0.24556473 
0.9267258 -0.27192363 -0.25930083 
0.92086214 0.12011713 0.37092447 
0.07111644 0.99319977 -0.09217819 
-0.28481424 0.9527907 0.10521723 
0.22753336 0.94214773 -0.24614298 
-0.110666655 0.090178154 0.98975796 
-0.64531755 0.45694548 0.6121815 
-0.96629494 0.24296851 -0.08508992 
-0.98841274 0.13635355 0.06669338 
-0.79151165 -0.6094024 0.046240415 
-0.8790581 -0.4546372 0.14339466 
-0.87672174 -0.29873648 -0.376982 
-0.72704303 -0.016917197 -0.6863835 
-0.6558588 -0.6570183 -0.37172058 
-0.28542605 -0.18822615 -0.9397356 
-0.097252965 -0.80752474 -0.58176094 
-0.28864908 -0.7805663 -0.554435 
-0.7064966 0.08345282 -0.70277894 
-0.51781625 0.7536166 -0.40488082 
0.77298087 0.5587534 -0.30049166 
0.7968634 0.60128284 0.05888841 
0.89977133 0.42930475 -0.07816075 
0.19577698 0.96907437 -0.15022084 
0.10272089 0.9680046 -0.22894478 
-0.50315946 0.74133825 0.44412634 
0.04583049 0.9763316 0.2113678 
0.5778494 0.7238499 0.3770034 
-0.21581766 0.8864217 0.40948686 
-0.23344608 0.7499713 -0.6189072 
-0.41211098 0.12697324 -0.902243 
-0.4808889 0.83862764 -0.25583127 
0.8018598 0.43167827 -0.41312802 
0.712227 0.6967194 0.085527286 
0.012427244 0.86650795 0.4990087 
-0.10672478 0.67413217 0.7308596 
-0.5074394 0.85214806 0.1278637 
-0.694413 0.49493286 0.5223334 
-0.9637802 0.26621628 -0.016017742 
-0.2512049 -0.34459567 -0.90451646 
-0.13872713 0.16571571 -0.97636735 
0.8152815 0.578273 -0.030273374 
-0.22470821 0.86002195 0.45811394 
-0.39309767 0.7444554 0.53968555 
-0.45261297 0.8595065 0.23746632 
0.6215261 0.0013673337 0.7833923 
-0.23890008 -0.10873994 0.96493655 
-0.5561697 0.514171 0.6529193 
-0.49203506 0.033335418 0.869937 
-0.8314989 -0.27878308 0.48050967 
-0.7289856 -0.023349265 0.6841307 
-0.74863225 0.5451509 0.37730682 
-0.8000003 0.48378572 0.35489583 
-0.79231995 0.510673 -0.33382964 
-0.30050078 0.2864887 -0.9097382 
-0.19605637 -0.20843114 -0.958185 
0.25794336 0.68762636 -0.67870116 
0.06746471 0.97790015 0.19788864 
0.28675187 0.9006682 0.32645103 
-0.54127526 0.48170814 -0.6891868 
0.18550028 0.9755002 0.11827531 
0.15799561 0.6824977 -0.71360654 
-0.30434322 0.9516185 0.04239669 
0.245739 0.96711487 -0.06558394 
-0.6405045 0.5126595 -0.5717817 
-0.90708154 -0.42024282 0.024479508 
-0.9093481 0.05016891 0.4130003 
-0.23944509 0.8966883 0.3723121 
-0.40700507 0.85714966 -0.31566003 
-0.47341773 0.87226206 -0.12261561 
-0.6187369 0.69944525 -0.35768852 
0.4826459 0.3540045 -0.80108297 
0.75273466 0.5677202 -0.33329323 
0.77917427 0.2927544 -0.55424035 
0.97133523 0.023302797 -0.2365691 
0.9198074 0.36999032 -0.13061985 
0.8707494 0.100805655 -0.48128334 
0.83019286 0.27834854 0.48301336 
0.9717624 0.19997993 0.1252432 
0.53113246 0.7528603 0.38871557 
0.8075637 0.0058512925 0.58975136 
-0.23842382 0.33003828 0.9133613 
0.3620287 0.3202048 0.8754452 
0.06020986 0.8798181 0.4714817 
-0.18700615 0.37150463 0.90940255 
-0.834856 -0.4657885 0.29335406 
-0.7487866 -0.5721974 0.33452785 
-0.95311266 0.28732342 -0.09498262 
-0.92632157 -0.36962935 -0.07281861 
-0.46968922 -0.8736269 0.12715401 
0.0056496784 -0.9897351 0.1428022 
0.6968085 -0.07813265 -0.712989 
0.8517151 0.10530713 -0.51331466 
0.8710431 -0.2658311 0.41305932 
0.6054323 -0.7387673 0.29609913 
0.37074852 -0.6493848 0.6639616 
0.6698749 -0.4082327 0.6201724 
0.6722579 -0.22428265 0.7055258 
0.8987367 0.099244624 0.42710996 
0.26726606 0.4124792 0.8708788 
0.3195683 0.81509924 0.48320752 
0.48446605 0.8399336 0.24454936 
-0.2554308 0.842305 0.47463405 
-0.18561108 0.6713528 0.7175193 
-0.15727043 0.87833625 0.4514329 
-0.16195099 0.8265085 0.53912497 
0.10796334 0.9488195 0.2967919 
0.056746677 0.89070535 0.4510253 
-0.15179284 0.22075994 0.9634439 
-0.20632711 0.11976716 0.97112566 
-0.35006094 0.93586516 -0.04017315 
-0.3541964 0.9010412 -0.25033927 
-0.23104362 0.60165906 0.76460797 
0.017794847 0.2382513 0.9710405 
-0.028989745 0.39643618 0.91760445 
-0.9717535 -0.20513934 0.11667583 
-0.6606162 -0.39362523 -0.63925385 
-0.62427115 0.06671352 -0.7783539 
0.25555575 -0.68405646 -0.683197 
0.4179791 -0.6235443 -0.66067094 
0.9253771 -0.34362474 -0.15999818 
0.989098 0.013797587 -0.14661098 
0.8256025 0.27438885 0.49304295 
-0.6153714 0.63346815 0.4690802 
-0.50878286 0.82060367 0.26028755 
-0.33493447 0.6422181 -0.6894743 
0.07564572 0.9552858 -0.28584418 
-0.06829722 0.9741132 0.21549705 
0.36560112 0.8996676 -0.23860873 
0.15382075 0.83540714 0.5276687 
0.5084111 0.85656345 0.08841526 
0.4875956 0.80586344 -0.3359087 
0.7601142 -0.40226477 -0.5103034 
0.9789375 -0.07027287 -0.19168526 
-0.03508507 0.85191137 0.52250934 
-0.90264827 0.35159793 0.24820344 
-0.9125327 0.37741438 -0.15761547 
-0.91162634 0.3812177 0.15365753 
-0.89062256 0.290772 0.3496327 
-0.71325105 0.54579586 0.43974987 
0.14351158 0.4570025 0.87781155 
0.2987895 0.9436181 0.14251234 
0.7048587 0.6150004 0.35348082 
0.7262009 0.25442722 0.6386698 
0.65454537 0.5502318 0.5184741 
0.40287358 0.8024666 -0.44015944 
0.22766604 -0.25463715 -0.93985534 
0.8115188 0.58417326 0.013377824 
-0.20274718 0.9362119 0.28705597 
0.19433267 0.9053509 -0.37759066 
0.12161552 0.81179416 0.5711391 
0.8083932 0.23985028 0.5375615 
0.5514961 0.42850772 0.7157048 
0.0107292645 0.76666236 0.64196086 
0.0016229716 0.9995506 0.0299343 
0.35075113 0.9360248 -0.028833594 
0.54754794 0.814925 0.18996982 
0.01640303 -0.0929826 0.9955327 
-0.1393099 0.43366024 0.89024246 
0.12081791 0.24968937 0.9607592 
0.12508322 0.2550278 0.9588092 
-0.1554421 0.73477614 0.66025895 
0.46611652 -0.13964823 0.87363255 
-0.6009531 -0.55369157 0.57643837 
-0.72447705 -0.04967387 0.6875068 
-0.35160947 -0.8511422 0.38977906 
-0.39406082 -0.2958414 0.8701689 
-0.47538805 -0.8363124 0.27310768 
-0.5119725 -0.85499233 0.08290016 
-0.2106971 -0.45958927 0.8627772 
-0.6078642 0.43053743 0.66718715 
0.23974164 0.70482 0.6676472 
0.23984034 0.06878319 0.96837264 
0.62748665 -0.042648796 0.77745855 
0.1218999 -0.6137661 0.7800203 
0.7420487 0.18802482 0.64343643 
0.34771413 -0.4321299 0.832081 
0.6030281 -0.25638247 0.7553974 
0.030387774 -0.09633771 0.9948847 
-0.03073124 -0.6168096 0.78651226 
0.39030716 -0.7480311 0.53675866 
0.40458822 -0.47025222 0.7843285 
9.0138215e-05 0.39770967 0.91751134 
-0.3103547 0.6430317 0.7001359 
0.005616201 0.5498708 0.8352309 
0.06457672 0.6860877 0.72464716 
-0.7425452 0.46176416 -0.4851809 
-0.8442527 0.25324634 -0.47233856 
-0.4086189 0.844357 -0.3465427 
-0.9873152 0.15876263 -0.0018348632 
-0.7398431 0.2080095 -0.63981587 
-0.89651364 -0.16708097 -0.41030148 
-0.3976057 0.14738612 -0.9056418 
-0.48800167 0.87017846 -0.068146706 
-0.07413501 0.89565945 0.43851814 
-0.394326 0.83411133 0.38570106 
-0.31065208 0.016715284 0.9503768 
0.23216851 0.18934579 0.9540682 
-0.5811156 0.63853 0.5045633 
-0.3904727 0.88002205 0.27035594 
-0.1282609 0.73011386 -0.6711802 
0.3122912 0.9337241 -0.17502439 
0.18659995 0.9448552 -0.26912677 
0.22475103 0.13715571 0.96471524 
-0.26366764 0.5569833 0.787559 
-0.3153995 -0.09088665 0.94459665 
-0.36333832 0.44975838 0.8159061 
0.010331249 0.99364686 -0.11206783 
0.75934345 0.6445168 0.08941768 
0.66385585 0.64496976 0.37856233 
0.6295357 0.47857863 0.6120845 
0.38382167 0.47205502 0.7936278 
-0.22593829 -0.14722158 0.9629527 
0.49591485 0.20649002 0.8434633 
0.43271208 0.19287685 0.88065815 
-0.42188966 0.084679656 0.90268415 
-0.7447525 0.66730136 0.0072529675 
-0.52598137 0.84799635 0.06515915 
-0.5769704 -0.11457612 0.8086889 
-0.10565483 0.029283652 0.9939716 
-0.23379123 0.07168941 0.9696403 
-0.75897914 -0.20940946 0.61652124 
-0.5410666 -0.27473134 0.79483944 
-0.88635147 -0.3895001 0.2503414 
-0.9462929 0.32214656 -0.027413206 
0.043079372 -0.24671277 -0.96813065 
-0.46809688 -0.7810729 -0.4132922 
-0.346539 0.50811553 -0.78849816 
-0.29812792 0.11737248 -0.94728214 
0.3364891 -0.45893797 -0.82228416 
0.4404994 -0.4637542 -0.76869524 
0.88816965 -0.24953711 -0.38585734 
0.98452747 0.030590933 -0.17253955 
0.835228 -0.4473081 0.31985894 
0.8279068 -0.24083537 0.5065261 
0.30246308 0.023764584 0.95286477 
0.21206716 0.24033232 0.9472423 
0.6568552 -0.110863045 0.74582213 
-0.09755004 0.007759952 0.9952004 
0.06886654 0.3314962 0.9409398 
-0.8160531 0.2270685 0.53150475 
-0.595079 -0.65741414 0.4622636 
-0.3821616 -0.8053093 0.45324355 
-0.51113796 -0.7882049 0.34274065 
-0.051685877 -0.9508982 0.30515778 
-0.19708386 -0.95889854 0.20413633 
-0.21504657 -0.96906936 0.12107687 
-0.68327326 -0.5611511 -0.46716928 
0.30002275 -0.93196577 -0.20353433 
0.40377247 -0.8520452 0.33314696 
0.78832906 -0.4952046 0.36511612 
0.5434157 0.073051065 0.8362792 
0.5169451 0.48318905 0.7066089 
-0.37093836 0.4374428 0.81917554 
-0.5827037 0.09312218 0.80733186 
-0.6048718 0.6907024 -0.39630848 
0.07754238 0.08021474 -0.99375695 
0.8001494 0.3103674 0.5132573 
-0.28208658 0.52684474 0.8017867 
-0.15926966 0.9377666 0.30858856 
0.4484083 0.8199093 0.35591978 
-0.048974916 0.82509923 0.5628612 
-0.5692433 0.7249619 0.38780457 
-0.95137006 -0.3049498 0.043596018 
-0.89997125 -0.26593181 0.3454448 
-0.9937038 -0.08518272 -0.07277868 
-0.91622573 0.0834682 -0.3918717 
-0.9417342 -0.05731703 -0.33143875 
-0.35465035 0.44614464 -0.8216923 
-0.43107092 0.29834515 -0.8515681 
-0.5312526 -0.40563002 -0.7437977 
-0.6448093 0.16764559 -0.7457319 
-0.54282457 -0.4314491 -0.72055066 
-0.5425246 -0.4404398 -0.7153181 
-0.13673423 0.13733333 -0.98104197 
0.24010451 0.82005876 -0.5194743 
0.5597747 0.5367242 -0.6313315 
0.7116278 0.38272804 0.5891563 
0.17579028 0.73518616 0.6546749 
-0.28188983 0.6269596 0.7262643 
0.20768395 0.9702957 -0.124071375 
-0.42052498 0.7689064 0.4816032 
-0.0011707821 0.9910037 -0.13382962 
0.54958296 0.8079188 -0.21266367 
0.94778943 0.2992775 0.110128574 
0.23101269 0.76043373 -0.6069381 
0.4338712 0.900275 0.0355084 
0.5336317 0.6442413 -0.54789644 
0.91384417 0.1714165 0.36811048 
0.7738082 0.62801003 0.0826097 
-0.31850398 0.9372854 0.14160271 
-0.25723952 0.23150444 0.9382076 
-0.06675702 0.9593424 0.27423653 
-0.3437058 0.9382876 0.038507283 
-0.5716922 0.57892686 -0.58138776 
-0.55587506 0.5282235 -0.64185894 
-0.12899706 0.6386269 -0.7586274 
0.2607104 0.955991 0.13457814 
-0.05667164 0.22183791 0.9734353 
-0.39188138 0.541213 0.7439876 
-0.76790386 0.19537179 0.61004394 
-0.24152768 0.05844255 0.96863246 
-0.15340309 0.8362221 0.526498 
-0.3893495 0.6538061 0.64880246 
-0.8547138 0.30150905 0.42255977 
-0.6074372 -0.5471747 0.5758646 
-0.93846714 0.015601381 0.34501612 
-0.5095141 0.6579273 0.55455136 
-0.48562345 0.75036764 -0.44846225 
-0.4241361 0.32712483 -0.8444513 
0.5430206 -0.07047948 -0.83675647 
0.28206223 0.3985872 -0.8726794 
0.48040602 0.83572626 -0.2660295 
0.5205418 0.8072647 -0.27813673 
0.052479383 0.72653574 0.6851217 
-0.5806534 0.5429766 -0.6066449 
-0.46775168 0.8081941 -0.3578137 
-0.020491276 0.93450785 -0.35535246 
0.41702896 0.904739 0.08679918 
0.46170363 0.7581385 -0.46049514 
-0.7473897 0.6534898 0.11983242 
-0.2759784 0.9269036 -0.25433415 
-0.7566691 0.6525081 -0.041051794 
-0.64995134 0.7164402 0.25352862 
-0.69320786 0.58516866 0.42076203 
-0.5562791 0.79794186 -0.2320398 
-0.29518837 0.6323812 -0.71621084 
0.7118837 0.6498203 -0.26637408 
0.5932052 0.54896 -0.5888554 
0.7383079 0.49543494 -0.45765248 
0.65741307 0.3156447 -0.68423426 
0.54546136 0.300272 -0.7825016 
0.24236932 0.82303107 -0.5136897 
0.60889417 0.76243126 -0.21896681 
0.96533215 -0.13303979 -0.2245757 
0.97121125 0.1554352 0.18052354 
0.42087206 0.52959496 0.7364754 
-0.13074005 0.2535371 0.9584498 
0.38084415 0.33651704 0.86122835 
0.33558077 0.0060515357 0.941992 
-0.71577144 -0.27573824 0.64159167 
-0.9185707 -0.1621211 0.36047843 
-0.6133333 -0.5035281 0.60850775 
-0.4100483 -0.3923199 0.82337445 
-0.9342394 -0.2756966 0.22624849 
-0.67420506 -0.6860433 0.2734814 
-0.23251034 -0.31605667 -0.9198082 
-0.036152855 0.08277318 -0.9959125 
0.74911 -0.59600383 -0.28916034 
0.9152723 -0.40177527 0.02921315 
0.58936065 -0.65122765 0.478076 
0.77675486 -0.49253786 0.3925028 
0.38550928 0.017825428 0.92253184 
0.8474577 -0.024045145 0.53031826 
0.8173237 -0.21323448 0.53526914 
-0.26893955 -0.036960945 0.96244764 
0.091972224 0.3489109 0.932632 
-0.6359034 0.767304 0.08289454 
-0.26713434 0.17672245 0.94731647 
0.07725613 0.29598987 0.9520618 
0.7054531 0.66778433 -0.23748717 
0.5067493 0.8562382 -0.100307144 
0.24748565 0.5841023 0.7730301 
-0.27108392 0.6579688 0.70256007 
-0.10392376 0.9768638 0.18691444 
-0.64910984 0.50011903 0.57318187 
-0.35323194 0.75019246 0.55896205 
-0.32202315 0.63079673 0.7059722 
-0.32100078 0.9469847 0.013360603 
-0.49819353 0.7418619 0.44882527 
-0.5070903 0.83297884 0.22137234 
-0.8982012 0.40539667 0.16996506 
-0.44983315 -0.6195741 -0.64325583 
-0.13098988 0.02344282 -0.99110657 
0.65556914 -0.361472 -0.6629987 
0.34041068 -0.4757367 -0.8110457 
0.858863 0.44541478 -0.25290328 
0.7421336 -0.61182266 -0.27369845 
0.41860276 -0.8239106 0.38202512 
-0.24413396 0.7678361 0.5923059 
-0.33641598 0.53376085 0.7758374 
-0.2814494 0.8163192 -0.5043899 
0.18359497 0.6894612 -0.70066845 
0.36011255 0.92242473 0.13946915 
-0.049348954 0.8696501 0.49119577 
0.49638316 0.8071516 0.31954655 
0.611831 0.78244096 -0.115970194 
0.5519986 0.80397564 -0.2211806 
0.01906212 0.9931167 0.115568064 
0.44241 0.8348467 0.32757384 
0.17192559 0.82322097 0.54106265 
-0.5660841 0.7154547 0.40947944 
-0.24074008 0.6421661 0.72778225 
-0.37652546 0.32594037 0.86717445 
-0.38449466 0.31019658 0.8694493 
-0.33963406 0.27417547 0.8997091 
0.049774405 0.44270328 0.89528567 
-0.43586585 0.78076625 0.44768846 
0.21875697 0.95154494 0.21611981 
-0.36176455 0.8345785 0.4154578 
-0.1780292 0.6676782 0.7228496 
-0.01240286 0.8255537 -0.56418717 
0.6131635 0.7205934 -0.32369086 
0.55127156 0.6828208 -0.47943243 
0.30058834 0.938198 0.1715559 
0.73070717 0.62975234 -0.2635889 
0.6729442 0.66615844 0.32152614 
0.8969685 0.312186 -0.31302953 
0.121055596 0.8258199 0.5507877 
-0.39919925 0.48825318 0.77604693 
-0.5135406 0.4833533 0.7089751 
-0.5594502 0.8103629 0.17414837 
-0.15491529 0.83825314 0.5228127 
0.43439043 -0.25805598 0.862967 
0.36563763 -0.19978558 0.9090627 
0.48407906 0.5547658 0.6766848 
0.17245743 0.41863814 0.89162815 
-0.072049394 0.13434847 0.98831147 
-0.53613675 -0.44685382 0.71615577 
-0.8026112 -0.59274787 0.06682284 
-0.65085024 -0.6234166 0.43329632 
-0.907078 -0.31704414 0.27693403 
-0.90084916 -0.13823777 0.41153497 
-0.9710396 -0.23635471 0.034909066 
-0.24938518 -0.8821739 -0.3994702 
0.12434073 -0.9724572 0.19714628 
0.32137942 -0.944008 0.074594125 
0.4702099 0.18422079 0.86311376 
0.642618 -0.21545742 0.73526883 
0.11443843 -0.67514175 0.7287575 
-0.053047117 -0.431206 0.9006928 
-0.5619295 -0.19147655 0.8047187 
0.07609329 0.12611723 0.98909265 
0.3487027 0.048619214 0.93597156 
0.4090308 -0.8302978 0.37854922 
0.42811143 -0.27925584 0.85949796 
0.72181934 -0.5814135 0.37541333 
0.9067323 -0.3780568 0.1868414 
0.30834395 0.02403423 0.95097136 
0.17115669 0.21005014 0.9625925 
0.2569698 0.54209214 0.80006427 
-0.39916077 0.6285467 0.66753256 
-0.9108025 0.28086293 -0.3025805 
-0.8324396 0.21398292 -0.5111318 
-0.8379638 0.5318468 0.122293934 
-0.7343771 0.66903013 0.11440755 
-0.78523386 0.6139906 -0.08014543 
-0.026522167 -0.04661045 -0.99856097 
0.41475192 0.55833095 -0.7185036 
-0.03433282 0.9768446 0.21117777 
-0.1773466 0.938105 -0.29750174 
-0.48435003 0.68210125 0.54785305 
0.22949895 -0.11934055 0.9659649 
0.52374697 0.0068761054 0.8518461 
-0.33745027 0.82141334 0.4597908 
0.27491197 0.41485673 0.8673624 
-0.33488584 0.9406885 0.0543745 
0.1487265 0.5535915 0.8194004 
-0.1806673 0.86821145 0.46213454 
0.52438205 0.6106088 0.59344786 
0.12196146 0.06048097 0.99069047 
-0.20958698 0.11903716 0.9705171 
-0.5651956 -0.13042788 0.8145813 
0.3225077 0.4760663 0.81813794 
0.8926602 0.4134637 0.179459 
0.5323884 0.78287095 0.32198706 
0.26277223 0.90331566 0.33907455 
0.10618463 0.025254318 0.99402577 
-0.113350324 -0.13914466 0.9837635 
-0.28320137 0.22849767 0.9314429 
-0.3617214 0.5272957 0.7688413 
-0.92711765 0.20897584 0.31109816 
-0.37244433 0.89659005 0.23960721 
-0.81347734 0.5721808 -0.104229346 
-0.90888715 0.32239783 0.26454443 
-0.6800391 0.7331144 -0.009498897 
-0.2657225 0.6630794 0.69979805 
-0.08404983 -0.18364696 0.97939247 
-0.41765088 -0.38395792 0.8234951 
-0.91580325 -0.13220555 0.37924427 
-0.9890742 0.06485777 -0.1323849 
-0.82800746 -0.21256308 -0.51886475 
-0.9282942 0.008306254 -0.37175384 
-0.12561017 0.6190087 -0.7752744 
0.07105752 -0.098469235 -0.9926 
0.3079446 0.2516428 -0.91752166 
0.25371385 -0.44134176 -0.8607247 
0.9053977 -0.4139977 0.0941318 
0.5199986 -0.05181799 -0.8525939 
0.8694753 0.11966557 -0.47926277 
0.97260994 -0.19931 -0.119605705 
0.9240946 -0.3335817 -0.1864736 
0.67002505 0.5240727 0.52575123 
0.7908842 0.23776677 0.5638876 
0.01977181 0.1671961 0.9857254 
0.28760374 0.19731916 0.9372029 
-0.45345724 0.50025535 0.7376457 
0.011709411 -0.8624179 0.50606173 
0.028695699 -0.67375886 0.738394 
-0.6364807 -0.66505486 0.3906335 
-0.6273927 -0.7694397 -0.119753696 
-0.83934 -0.49867502 0.2164064 
-0.1816181 -0.74452585 -0.6424144 
0.04235317 -0.7042372 -0.70870036 
0.6929271 -0.7187944 -0.056450617 
0.6761336 -0.555023 -0.48455426 
0.7224399 -0.62843853 -0.28834996 
0.9786863 0.08885023 -0.18514568 
0.106580324 0.91598123 0.38680625 
0.20752965 0.66490793 0.7175158 
-0.51213276 0.5328996 0.6736009 
-0.6045348 0.6945485 0.39005134 
-0.011509556 0.887916 0.45986181 
0.427003 0.7096244 0.5604478 
0.24434112 0.393023 0.88647074 
0.17346719 0.51115847 0.8417994 
0.13664716 0.67240644 0.72745943 
-0.31865835 0.10950908 0.94152254 
-0.45665643 0.5553021 0.6950573 
-0.8513623 0.18074949 0.4924551 
-0.08742493 -0.055292472 0.9946355 
-0.6328466 -0.3168211 0.7064911 
-0.9159237 0.015139185 -0.40106672 
-0.5636762 0.21674773 -0.79705054 
-0.53334284 0.2613937 -0.8044991 
0.35858014 -0.05806469 -0.9316914 
0.14291453 0.103787266 -0.9842782 
-0.45742595 0.3857836 -0.80120695 
-0.62803584 0.29631895 -0.7195596 
-0.43458873 -0.05657507 -0.8988503 
0.63679093 0.10194039 -0.7642679 
0.78287435 0.13317044 -0.607761 
0.81487083 0.44311917 0.3736722 
0.5789204 0.14458263 0.8024632 
0.14816327 0.06875688 0.98656994 
-0.13454433 0.5693184 0.81103295 
0.2766191 0.7836504 0.5562139 
-0.2822948 0.7143551 0.6403175 
-0.14377889 0.85073614 0.505545 
0.3576648 0.9286754 -0.09817357 
0.5641689 0.8114454 -0.15254451 
0.4479952 0.8928105 -0.04679474 
0.5932288 0.44751105 0.6691887 
0.3732006 0.9262208 -0.053257737 
0.38004515 0.5390794 0.7516377 
-0.083921336 0.6079897 0.7894972 
-0.39331216 0.8264353 0.40287754 
-0.4774879 0.48718062 0.73120475 
-0.526534 0.8053792 0.2722616 
0.24384381 0.9653329 -0.093126714 
0.09640961 0.9870178 -0.1284564 
-0.22516826 0.95748067 0.18036075 
0.04539722 0.97896177 -0.19893007 
0.65250075 0.67491907 0.34456787 
0.32718018 0.34518597 0.87965894 
-0.4323192 0.66572094 0.608207 
-0.86789316 -0.026860632 0.49602407 
-0.41074672 -0.5196281 0.74918205 
-0.99494445 0.045435786 -0.08956125 
-0.80961883 0.26423305 0.52411664 
-0.805284 -0.58081996 0.11902016 
-0.75937784 0.58463687 -0.28556097 
-0.77222955 0.6345233 -0.032275967 
-0.7952465 0.53073275 -0.29309717 
-0.11479414 -0.05161236 -0.9920476 
-0.09947399 0.24162138 -0.9652586 
0.826271 0.47223234 -0.3070389 
0.25466695 0.42894346 -0.86669046 
0.2929074 0.95529884 -0.040118977 
0.7852082 0.5757032 -0.2280654 
0.04170185 0.9775267 -0.20664604 
-0.03709385 0.97065115 -0.23761393 
0.48636347 0.85925287 0.15854111 
-0.1146043 0.30302766 0.9460656 
-0.42423013 0.10571973 0.8993622 
-0.24971803 0.9592576 -0.1321583 
0.08669743 0.99615604 0.012519134 
-0.54399914 0.79978776 0.25378066 
-0.6169708 0.5994913 0.50986 
-0.2451649 0.93016344 0.27329525 
-0.46596938 0.7702912 0.43534365 
-0.35382566 0.86164075 -0.36384422 
-0.44294357 0.89641666 0.015434082 
0.33434105 0.8376967 0.43183374 
0.69553363 0.70166785 0.15458094 
0.6504951 -0.07378813 -0.7559176 
0.5692133 0.41661248 -0.7088232 
0.4856405 0.68481296 -0.5433089 
0.615003 0.6085711 -0.5014107 
0.56972975 0.79158556 -0.2209082 
0.89897233 0.0068372157 0.4379522 
0.55393404 0.12446975 0.82320374 
0.54550034 0.51004183 0.6650464 
-0.5878347 0.39084557 0.7083008 
-0.22616924 0.4991546 0.836476 
0.33459467 0.27347594 0.9018079 
-0.11952147 -0.30442667 0.94500744 
-0.8117662 0.048092283 0.58199894 
-0.57968557 -0.54341334 0.6071793 
-0.67235607 -0.67179334 -0.31085545 
-0.48422295 -0.6584019 -0.57622486 
-0.3888913 -0.9197001 0.053993568 
-0.38463193 -0.75333565 -0.5334264 
0.1608009 -0.27363542 -0.94829684 
0.40943792 -0.09481267 -0.907398 
0.75817204 -0.57549393 0.30656505 
0.513854 -0.857102 0.036475085 
0.15777917 -0.3209195 0.93387175 
0.17482378 -0.96162516 0.21145646 
0.26693568 -0.11882548 0.9563608 
0.6386819 -0.17129935 0.7501613 
0.8358597 0.22359008 0.50134414 
0.25687143 -0.33123618 0.9079096 
-0.07757196 0.4765552 0.8757157 
0.3815876 0.62083197 0.6848055 
0.4768999 0.7185646 0.50619304 
0.5282269 0.26383975 0.80707186 
0.551279 0.6272767 0.5501049 
-0.08499639 0.66081005 0.745725 
-0.21334745 0.80831146 0.54873997 
-0.020686261 0.21441747 0.9765231 
-0.42499003 0.29019913 0.8574194 
0.3166324 0.02878953 0.9481113 
0.10030105 0.4534723 0.8856087 
-0.6651961 0.54084176 0.5147857 
-0.88009447 0.18903668 0.4355445 
-0.51979023 0.49204037 0.69836557 
-0.39835018 0.6767229 -0.6191635 
-0.35871252 0.37305716 -0.8556599 
-0.011386773 0.46170703 -0.88695943 
-0.5025215 0.05362783 -0.86289996 
-0.7715469 0.013553216 -0.6360281 
0.14551896 -0.3343391 -0.9311508 
0.80506414 -0.08503036 -0.58706194 
0.5309633 -0.44447252 0.7214723 
0.23210655 0.044656526 0.9716647 
0.002763942 0.54097897 0.8410317 
0.17636763 0.77380514 0.608375 
0.13799682 0.91894495 0.36945507 
0.11751589 0.68701756 0.7170753 
0.12640463 0.76944953 0.6260746 
0.20412742 0.7699809 0.60453415 
-0.55661285 0.7934672 0.2461547 
-0.1529781 0.95065475 0.26991346 
0.16821684 0.94276875 0.28790656 
0.52118725 0.8472022 0.1030164 
0.4854227 0.8617579 0.1474384 
0.59893423 0.56930494 0.5631783 
-0.03651921 0.5120836 0.8581589 
-0.6633548 0.3458363 0.66359454 
-0.58322376 0.47239578 0.6608271 
-0.021333642 0.4542817 0.89060265 
-0.034128107 0.72982 0.682787 
-0.15650928 0.31562883 0.9358864 
-0.30767298 0.6681987 0.67738307 
0.055829283 0.7728389 0.6321418 
-0.076407805 0.84419703 0.5305595 
0.45325994 0.6988065 -0.55337596 
0.04577057 0.59981656 -0.7988274 
0.83505756 0.3646338 -0.41197228 
0.752008 0.64407074 -0.14020312 
0.3199221 0.42943877 0.8445308 
0.08764476 0.90629196 0.41346523 
0.38011703 0.91140467 -0.15764728 
-0.0015193826 0.73844564 0.67431134 
-0.30817083 0.72967273 0.61041665 
-0.43931532 0.8620408 0.2527603 
-0.28952253 0.92080665 -0.26132733 
0.07641063 0.81173253 0.5790093 
0.38617933 -0.024187816 0.92210656 
0.23623729 0.36156386 0.9019222 
0.5020424 0.6331154 0.5891675 
0.3640091 0.6826408 0.63363945 
-0.29830816 -0.30258307 0.90523803 
-0.24202709 0.59058726 0.76982445 
-0.919231 0.33705178 0.20349564 
-0.33294842 -0.15813893 0.9295899 
-0.8869757 -0.35148346 0.29955575 
-0.95992196 -0.16558208 0.22612508 
-0.87255317 -0.3784863 0.3088674 
-0.4467025 -0.8792905 0.16524284 
-0.18129246 -0.8368567 0.51653063 
0.76221305 -0.46221393 0.45319948 
0.46917453 -0.75592524 0.45656586 
0.50707936 -0.1697135 0.8450255 
-0.10635552 -0.24204533 0.9644183 
-0.20568217 0.2983858 0.93201977 
-0.18377116 0.24419555 0.9521538 
0.45771646 -0.29236096 0.8396551 
0.24830103 0.17702857 0.95236945 
0.32578626 0.053762976 0.94391364 
0.46948695 -0.30362326 0.8290928 
0.4510205 -0.015284728 0.8923827 
0.44119158 0.117758036 0.8896533 
-0.5205416 -0.3182132 0.79232377 
-0.35643354 -0.040329054 0.93345 
-0.3746045 0.3687326 0.8507102 
-0.73942375 -0.41111943 0.53313553 
-0.9401718 -0.06892847 0.3336555 
-0.958002 -0.05803168 0.28082836 
-0.8173119 0.57618654 -0.0032509107 
-0.84486103 0.50521 0.17599076 
-0.51372 0.80616814 0.29357255 
-0.40991637 0.8815923 -0.23401624 
0.6461689 0.6851418 -0.3362239 
0.3481207 0.9012977 0.25782648 
0.4209025 0.90709513 0.004433987 
-0.4329228 0.8407682 0.32509482 
-0.05357083 0.12255323 0.99101514 
0.3550115 0.56354433 0.745912 
-0.2555238 0.052261014 0.9653893 
0.19544914 0.24086784 0.9506747 
-0.454693 0.74644625 0.48587283 
-0.20962566 0.60843235 0.76541954 
-0.37510857 0.4074473 0.8326345 
0.2521207 0.56392646 0.7863983 
0.13581759 0.13026342 0.9821329 
-0.3869928 0.12148783 0.9140445 
-0.2601247 0.14030182 0.95532745 
-0.15824315 0.85412836 0.49540263 
0.012413013 0.7560423 0.6544051 
0.05373797 0.90854675 0.41431275 
0.19854918 0.24241443 0.9496386 
-0.09997396 -0.43641892 0.8941722 
-0.65212506 -0.16352022 0.74026626 
-0.7248172 0.40922895 0.55423087 
-0.61441445 0.16050489 0.772485 
-0.43626451 0.89475024 -0.095369376 
-0.6345787 0.74618554 0.20128845 
-0.7666515 0.44357464 0.46420592 
-0.7534994 -0.3173209 0.5758004 
-0.2175157 0.39084232 0.8943877 
0.025060099 0.016703112 0.99954647 
-0.179325 0.02941694 0.98335 
-0.71988946 -0.48516554 0.49636045 
-0.32720447 -0.42467523 0.8441494 
-0.96516603 -0.24908306 -0.08007676 
-0.9664649 0.22069623 -0.13129705 
-0.71480525 0.62791723 -0.30785307 
-0.5932905 0.106050044 -0.7979723 
-0.08157245 0.14420484 -0.98617995 
0.49946427 -0.093657136 -0.86125714 
0.56997484 -0.55137414 -0.6091923 
0.9093518 -0.4129696 0.05035435 
0.7395996 -0.37257224 -0.5605198 
0.54348624 0.7787407 -0.31334588 
0.74290836 -0.0292631 -0.66875327 
0.71430683 0.69410294 0.089369915 
0.80367225 0.51026815 0.30616564 
0.4087965 0.5669839 0.7151327 
-0.3717167 0.0033348112 0.9283403 
-0.7486965 -0.1931344 0.63415515 
-0.7896033 -0.09702754 0.605898 
-0.42680487 -0.790398 0.43944108 
-0.4910195 -0.8178264 0.30010006 
-0.039074242 -0.98285955 -0.18016809 
-0.6592884 -0.69412994 0.28900266 
-0.67262334 -0.40925744 -0.61651134 
0.7367731 -0.6327222 -0.23838648 
0.27273577 -0.9063507 -0.3227131 
0.51782054 -0.11312907 -0.8479762 
0.6735328 -0.613755 -0.41189614 
0.76442814 -0.13284455 -0.630874 
0.9029102 0.4049942 0.14398912 
0.49682626 0.5913006 0.635238 
-0.12797181 0.57567513 0.8076023 
0.37661585 0.13662206 0.91623956 
0.48189256 0.5899844 0.64784116 
-0.01666894 0.5226874 0.85236156 
0.36894628 0.7356449 0.56807166 
-0.0195147 0.6790152 0.73386484 
0.3612633 0.2673102 0.89332753 
0.68024266 -0.40771434 0.6091298 
0.29660043 0.14118876 0.9445073 
-0.2688635 0.21591596 0.93866545 
-0.8312 -0.5514503 0.070775256 
-0.91780186 -0.0030294408 0.39702746 
-0.73562646 0.13330643 0.66414094 
-0.9298898 0.35419908 0.09923709 
-0.8914655 0.06419731 -0.4485176 
-0.7905501 -0.039751064 -0.611106 
0.03210244 0.28865293 -0.9568955 
0.7882195 0.14369884 -0.5983818 
0.12865986 0.20265815 -0.97076076 
0.25901756 -0.27817717 -0.92494726 
0.79462624 0.0019350718 -0.6070961 
0.803461 0.5659693 0.18474105 
0.9437497 0.24147356 -0.22589196 
0.91009 0.39552593 -0.12367489 
-0.32271317 0.5470343 0.7724052 
-0.7132304 0.29574242 0.63548326 
0.19748281 0.41393775 0.888626 
-0.1124375 0.42444253 0.8984467 
-0.53412914 0.11890689 0.83699906 
0.38477647 0.78295875 0.48879734 
0.41024247 0.8909665 -0.19462766 
0.6372606 0.73829937 -0.22093678 
0.55033576 0.7042802 0.44846398 
0.7410484 0.643575 0.19146432 
0.45073396 0.8920708 0.03238381 
0.07453862 0.15968369 0.9843501 