# OOMMF: rectangular mesh v1.0
# Segment count: 1
# Begin: Segment
# Begin: Header
# Desc: Time (s) :  3.279999999999999e-07
# Title: m
# meshtype: rectangular
# meshunit: m
# xbase: 2e-09
# ybase: 2e-09
# zbase: 5e-10
# xstepsize: 4e-09
# ystepsize: 4e-09
# zstepsize: 1e-09
# xmin: 0
# ymin: 0
# zmin: 0
# xmax: 1.024e-06
# ymax: 1.024e-06
# zmax: 1e-09
# xnodes: 256
# ynodes: 256
# znodes: 1
# ValueRangeMinMag: 1e-08
# ValueRangeMaxMag: 1
# valueunit: 
# valuemultiplier: 1
# End: Header
# Begin: Data Text
0.22473581 0.9706576 0.085544325 
-0.12562485 0.9584068 -0.25627133 
0.29703918 0.82824296 0.47516468 
0.69223464 0.62747514 0.35649168 
-0.5912352 0.4752874 0.6515695 
-0.62726814 0.57947224 0.52033323 
-0.7690652 0.54662997 0.3312618 
-0.71954364 0.69068646 -0.07217544 
-0.95286906 -0.21780087 0.21119525 
-0.6555233 0.0909353 -0.74968 
-0.85365367 -0.48451594 0.19110201 
-0.33820626 -0.8616317 -0.3784275 
-0.81413406 -0.52626824 -0.245413 
-0.6874223 -0.55281866 -0.4710014 
0.47771212 -0.6638732 -0.57538134 
0.5171358 0.8378312 -0.17495579 
0.7429514 0.48993054 0.45606074 
0.99736583 0.037681136 0.061980464 
0.952199 0.27348185 -0.13610612 
0.7465874 -0.54333365 0.38392174 
0.85230505 -0.4932076 0.17413354 
0.21242112 0.4436287 0.87067264 
-0.33849517 0.6085362 0.717708 
0.46689242 0.32226413 0.82350314 
0.03972823 -0.25452065 0.966251 
0.25795624 0.41109145 0.87433547 
0.51674354 0.37128156 0.7714443 
0.040402856 -0.7392151 0.6722565 
0.229234 -0.36177605 0.9036426 
0.04148375 -0.63817406 0.76877373 
0.004279427 0.4291321 0.90323156 
-0.86361265 -0.16056547 0.4779036 
-0.6028168 0.35835534 0.71287686 
-0.85905457 0.066211276 0.5075838 
-0.54842055 0.20488685 -0.81071347 
-0.41631737 0.33928588 -0.8435432 
0.1248576 -0.48549294 -0.86527866 
-0.40075386 0.24143523 -0.88380176 
-0.053961944 0.024066882 -0.998253 
-0.11759448 0.11199118 -0.9867267 
0.060871385 0.23743087 -0.96949536 
0.04879147 0.24195668 -0.9690596 
-0.6227331 -0.522544 -0.5823669 
-0.7514297 -0.6235211 0.21581267 
-0.14882672 -0.9795875 0.13512573 
0.9015481 -0.37852904 -0.20958754 
0.48439243 -0.8396906 -0.2455273 
0.27587664 -0.6312912 -0.7248197 
0.43986866 -0.52962875 0.72526485 
0.27223855 -0.6638612 0.69654477 
0.7661372 -0.2927777 0.57211465 
0.7091272 -0.24536857 0.66100913 
0.618361 -0.6042167 0.50254554 
0.39044774 -0.13063312 0.9113099 
-0.06330583 0.7381494 0.6716606 
0.16174735 0.833406 0.52846223 
0.9207193 0.24025817 0.30749303 
-0.5277835 0.69911253 0.4823757 
0.26100916 0.9228146 0.2833504 
0.25637046 0.9620496 0.09346001 
0.19116476 0.9412154 0.27851355 
0.536273 0.70972997 0.4568311 
0.118788145 0.50572026 0.85448015 
-0.79049045 0.10884075 0.6027259 
-0.32422802 0.6779044 0.6597893 
-0.4762135 -0.36581153 0.79962665 
0.009955929 -0.5481274 0.8363357 
-0.8722474 0.48709407 0.043863524 
-0.62926805 0.74034035 -0.2364697 
0.6296552 0.7450762 -0.21999066 
0.63863534 0.7517848 -0.16420883 
0.5669188 0.7218859 -0.39684233 
0.35107994 0.8303228 0.4327897 
-0.63307416 0.26641354 0.7268019 
-0.87737143 0.47717598 0.050225347 
-0.40060502 -0.35343674 -0.84533906 
-0.283379 -0.45378265 -0.84485364 
-0.06862651 0.04708416 -0.9965307 
-0.1794934 0.00063926436 -0.983759 
-0.16594943 -0.07754325 -0.98308086 
0.7519835 -0.3132879 -0.5799755 
0.84462506 0.4225142 0.32877094 
0.48496255 0.2239304 0.8453796 
-0.28119546 -0.26475096 0.92240775 
-0.5125038 -0.09501755 0.8534118 
-0.12170993 0.9665049 0.22595358 
-0.8454302 0.5121858 0.1513727 
0.30862176 0.94901747 0.064176396 
0.32355338 0.6958831 -0.6411396 
0.53939885 0.8006107 0.2609051 
-0.37207043 0.65048194 0.66214585 
-0.031127956 0.24095486 0.9700371 
0.65729535 0.5454972 0.51999587 
-0.14266546 0.9867277 -0.07755649 
0.48880574 0.4071683 -0.77154595 
-0.2890594 0.60263056 -0.7438287 
-0.22982047 0.65594196 -0.71897334 
0.17602038 0.8864095 -0.4281295 
0.8029996 0.48737952 -0.34300578 
-0.70371515 0.058302302 -0.7080861 
0.053844888 -0.17783448 -0.9825862 
-0.01478424 0.027296603 -0.9995181 
0.071488015 0.8908744 -0.4485893 
0.5046833 0.41922042 -0.75468475 
0.48218998 -0.15455794 -0.86232513 
0.9255712 -0.34313828 -0.15991937 
0.43590587 -0.64736754 -0.62522113 
0.9996291 -0.024014302 -0.012851504 
0.49040505 0.4029303 0.7727548 
0.09881274 0.18808182 0.97717005 
0.48496252 0.16399598 0.85902077 
0.28251863 -0.17056671 0.9439758 
-0.4637557 0.090619504 0.88131654 
-0.46621743 0.67268336 0.5745768 
-0.7916276 0.60309386 0.09799759 
-0.42798477 0.2467793 0.8694418 
-0.80921555 0.41114667 0.41967684 
-0.9010574 -0.28676805 0.32536077 
-0.7835302 -0.5992181 0.16437274 
-0.7035701 -0.6241091 0.33981898 
-0.83181095 -0.4612335 0.30879465 
-0.15541029 -0.43077087 -0.8889793 
-0.33135322 -0.08171865 -0.93996125 
0.59550846 0.08961291 -0.79833525 
0.8958552 0.05234929 -0.44125158 
0.9122943 0.28329194 0.2957446 
0.8798321 -0.10894104 -0.46263114 
0.9903237 0.053047493 -0.12823793 
0.75226104 0.6110017 0.24653663 
0.8560017 0.4272576 0.29105374 
0.77918047 -0.04427211 0.6252343 
0.8066688 0.32293445 0.49497366 
0.5473813 0.19173974 0.81462246 
0.7569528 0.2694933 0.59531164 
-0.50583005 0.08014014 0.8589026 
-0.11660208 0.84787065 0.5172228 
-0.30369362 0.49765942 0.81246865 
-0.9429152 0.24049976 0.23037131 
-0.8698091 -0.47966743 0.11554801 
-0.6145848 0.099613294 -0.7825362 
-0.4549773 -0.27474898 -0.8470588 
-0.31857863 0.020195384 -0.94768137 
-0.11963503 0.04938294 -0.99158907 
0.27844635 -0.959558 0.04142428 
0.5704031 -0.7077585 -0.41679537 
0.7261651 0.09747029 -0.6805761 
0.40596664 -0.5950468 -0.69362134 
0.7470999 -0.20107919 0.6335684 
-0.54002506 -0.6367003 0.5504415 
0.3160497 -0.5281467 -0.78814584 
0.32344988 -0.7754231 -0.5423091 
0.6003774 -0.79958993 -0.014242294 
0.9454661 -0.21839033 0.24166022 
0.48088437 0.8563164 -0.18834135 
-0.35025087 0.93665075 -0.0031390958 
-0.8317509 0.5493789 0.07983217 
-0.77085686 0.4879685 -0.4094708 
-0.6430957 0.4786681 -0.59774977 
-0.23201488 -0.032343376 -0.9721744 
0.0075389487 -0.16816653 -0.9857299 
0.6500849 0.061985224 -0.75732917 
0.9159291 0.39354524 0.078714944 
-0.24050851 0.5544088 0.79673487 
-0.3740044 -0.1566761 0.9140971 
-0.6068782 0.7023968 -0.37193772 
-0.37926254 0.917924 -0.11651463 
-0.087448984 0.9961351 -0.008222 
-0.06714917 0.604292 -0.7939284 
0.47807738 0.29581934 -0.82700235 
-0.31523547 0.03685802 -0.9482975 
-0.3616041 0.59460735 -0.71811193 
-0.61078906 0.5998255 -0.51686186 
0.074827604 0.08907625 -0.99321014 
0.97510487 -0.145792 -0.16707893 
0.62248033 0.43345904 -0.6516376 
0.9871802 -0.05934781 -0.14816582 
0.524119 0.1276614 0.84202254 
0.4727244 0.32464665 0.819229 
0.24472845 0.013892125 0.9694922 
-0.06588834 -0.02902112 0.9974049 
-0.44047722 -0.01028694 0.8977049 
-0.808536 -0.02802761 0.58777887 
-0.88607883 -0.0990023 -0.45283878 
-0.40224737 0.013261233 -0.915435 
0.27196828 -0.56542575 -0.77866995 
0.9191792 -0.39288142 0.027457817 
0.71232504 -0.4049804 -0.57322246 
0.9313961 -0.35479388 0.08137934 
0.47804826 -0.62158865 0.6205622 
-0.16128567 -0.21856011 0.96240246 
-0.19078048 0.015087571 0.98151684 
0.34936637 0.70436627 0.6179089 
0.45899215 0.67228436 0.58082706 
-0.47869468 0.8330161 -0.27737287 
0.35010457 0.20894513 0.91310936 
0.45919156 0.74561065 0.48291612 
0.26581457 0.7443804 0.61256874 
-0.02017046 0.3444479 0.9385888 
-0.128599 0.9037437 0.408301 
0.30716205 0.6974707 0.6474458 
-0.31591335 0.9463697 0.06769985 
0.5515915 0.531021 0.6432445 
0.08538574 0.5296118 0.8439317 
0.48943946 0.0036241761 0.8720298 
0.24041332 0.49289468 0.83621556 
-0.4689156 0.38562006 0.7946165 
-0.6945937 -0.1761487 0.6975035 
-0.76216406 0.23995575 0.60127145 
-0.35025617 0.5040497 0.7894648 
0.124839045 0.7448846 0.65541 
-0.48542705 0.15642543 0.86016953 
-0.9638975 0.2656794 0.01777672 
-0.88060904 -0.33533567 -0.33478034 
-0.9249902 0.21517594 -0.31319723 
-0.24900055 0.26794216 -0.93070173 
0.4976294 -0.1753626 -0.8494781 
0.620828 -0.25091124 -0.74270874 
0.30853993 -0.72360027 -0.61741865 
0.7184156 -0.66491926 -0.2043562 
0.1860692 -0.5278074 -0.8287325 
0.24216317 -0.8019721 -0.54607487 
0.9216673 -0.38645872 0.03433978 
0.6149375 -0.40125847 -0.67885464 
0.6066477 -0.7861001 0.11842892 
-0.0058448273 0.6394186 0.7688367 
0.3597761 0.88957965 0.28144115 
0.18012594 0.9466543 0.26720825 
0.6553455 0.5592347 0.5077194 
0.40520066 0.5262577 0.74757296 
0.7645376 0.60656756 -0.21807803 
0.9020804 0.4314761 0.008909422 
0.539642 0.5265862 0.65688175 
-0.2806532 0.7332392 0.6193498 
-0.575396 0.77196294 0.27017182 
0.23533493 0.39895976 0.8862554 
0.4064902 0.3157924 0.8573452 
0.33441502 0.69477135 0.63675696 
0.5224547 0.38763794 0.7594591 
-0.35715735 0.6275499 0.6918236 
-0.24635416 0.8604476 0.4460263 
-0.20974644 0.9525206 0.22070546 
-0.13938 0.9892596 -0.044032175 
0.62021405 0.6522854 -0.43572736 
0.67477846 0.6242669 -0.39365587 
0.35093644 0.93568236 0.03663673 
0.7170161 0.34340382 0.6065985 
0.13066226 0.7979476 0.5883936 
-0.24197349 0.23985225 0.9401701 
-0.41156366 0.011811135 0.9113045 
-0.8372971 -0.4463376 0.31577882 
-0.9362872 0.019028947 0.35071978 
-0.37820143 -0.92428446 0.051594175 
-0.17420152 -0.68438077 -0.7080091 
-0.7229683 0.1258792 -0.6793168 
-0.04081573 0.28026196 -0.9590554 
0.58435637 -0.099580765 -0.80536413 
0.30463943 0.95246494 -0.0023280676 
0.17088716 0.9725228 0.15810503 
0.51798207 0.73693645 0.43430325 
0.7425189 0.1118749 0.66041636 
0.2747594 -0.3588624 0.8920343 
-0.26784593 0.6809235 0.6816171 
-0.6834475 0.2523092 0.68501073 
-0.9780481 0.20678212 -0.025751103 
-0.9635454 0.2456144 -0.106084734 
-0.7787165 -0.17642008 -0.6020604 
-0.79781836 -0.58399373 -0.14979017 
-0.30445674 -0.91878855 -0.25126463 
0.23650505 -0.97139174 0.021529024 
0.14760606 -0.9514001 -0.2702783 
0.7344846 -0.6479092 -0.20185646 
0.843491 0.29071164 0.45167425 
0.6964082 0.36101627 0.6202282 
0.95127094 -0.30807716 -0.013121224 
0.87130654 -0.48631617 -0.06573772 
0.80555403 -0.589781 -0.05693113 
0.70638925 -0.610786 0.3577076 
0.5556687 0.021668391 0.83112144 
0.32337052 0.032634277 0.9457095 
0.18634082 -0.047063068 0.9813574 
0.58254415 -0.17009 0.79480296 
0.3099792 -0.26302308 0.91363657 
0.05705939 -0.30586717 0.9503629 
0.46809852 -0.46422026 0.7519199 
-0.14865921 -0.26870194 0.9516826 
-0.1198491 -0.71754485 0.6861236 
0.2456771 -0.1279704 0.9608675 
0.0067128334 0.09298321 0.9956451 
-0.5623589 -0.22462252 0.7957997 
-0.5538451 0.11488822 0.82465535 
-0.9285145 -0.20109968 -0.31212148 
-0.9271222 0.36891434 -0.06592933 
-0.8764408 -0.20293729 0.43665528 
-0.32377273 0.36361393 -0.87347364 
-0.18652466 -0.009118275 -0.982408 
0.2927428 -0.36285207 -0.88466954 
-0.24013872 -0.38225445 -0.89230883 
0.048771378 0.6242063 -0.77973586 
0.1955444 0.30760664 -0.9312038 
0.3007036 -0.41059494 -0.86080724 
0.44353864 -0.19967914 -0.87372875 
-0.0551674 -0.52996784 -0.8462214 
0.7057556 -0.16325845 -0.689388 
-0.37717897 -0.9236862 0.067377806 
0.59215254 -0.5649718 0.5745975 
0.3152897 -0.33010805 0.8897309 
0.70407856 0.0773502 0.70589685 
0.8203991 -0.2589922 0.5097729 
0.9475126 0.021033857 0.3190259 
0.42939767 0.4473585 0.7845305 
-0.19172162 0.61745155 0.7628869 
0.24510227 0.5663505 0.7868749 
0.72345835 0.014971628 0.6902057 
0.19580232 -0.10323535 0.9751944 
0.35466433 0.8598076 0.36734742 
0.1808315 0.907139 0.37999845 
-0.20415664 0.9275551 0.31298828 
0.23382132 0.37370375 0.89759296 
0.46041062 -0.38454902 0.80009013 
-0.05826484 -0.020063594 0.99809957 
-0.13974366 -0.3416666 0.92937386 
-0.4099786 -0.38127813 0.8285799 
-0.411692 -0.52490675 0.74497163 
-0.14743917 0.056651402 0.98744744 
-0.43331593 0.59463274 0.67723656 
0.45803523 0.6595104 0.5960284 
0.36164603 0.44414446 0.8197244 
0.34589225 0.8533421 0.39008436 
0.32979223 0.48460874 0.81017995 
-0.72939384 0.2604353 0.6325805 
-0.69524235 0.7081449 -0.12316222 
-0.711288 0.31451204 -0.62861085 
-0.11305341 -0.3301029 -0.93715054 
0.4098745 0.36147484 -0.83745986 
-0.42689157 -0.082655385 -0.90051746 
0.3061952 -0.15894651 -0.9386056 
0.79326826 0.29454255 -0.5328886 
0.777067 0.62941575 -0.0016658687 
0.5267413 0.7547489 0.39102155 
0.46983498 -0.25279665 0.84578305 
0.20879148 -0.24430692 0.9469532 
0.044848524 0.68822724 0.7241077 
0.5051064 0.76979333 0.39023829 
0.88827854 0.43158332 0.15715297 
0.20337069 0.9707626 -0.1275165 
0.18047357 0.89427567 0.40951222 
0.46702707 0.61312884 0.63714904 
0.4234034 0.46191704 0.77933455 
-0.0012662997 0.976965 0.21339574 
0.10830311 0.98277706 0.14973249 
-0.050950006 0.9654696 -0.25548527 
0.13248767 0.71339715 -0.6881218 
-0.46314955 0.8853292 0.04104671 
-0.22949095 0.8044645 -0.5478783 
0.047739066 0.89964974 -0.43399474 
-0.1900425 0.3907859 -0.90064996 
0.6582179 -0.08478748 -0.74803764 
0.6417768 0.5346183 -0.5498235 
-0.49184242 0.69137126 -0.5292418 
0.31162676 0.45895794 -0.83201355 
-0.24274243 0.19257422 -0.95078456 
0.17114194 -0.47250935 -0.8645493 
0.61821204 -0.50625265 -0.60126716 
0.5361531 -0.12219172 0.83522993 
-0.07774819 -0.33467814 0.93911976 
-0.1351183 -0.32029673 0.93763167 
0.42452064 0.68928295 0.5870871 
0.17082997 0.83098084 0.5294224 
0.49158683 0.5349394 0.68715525 
-0.18545166 0.785792 0.5900329 
-0.8747831 0.04891476 0.4820392 
-0.77246034 -0.5692234 0.28158432 
-0.79251325 0.309578 0.52543736 
-0.8868756 0.329078 -0.32428274 
-0.6624271 -0.48669305 -0.5694913 
-0.87854314 -0.47644925 0.034032814 
-0.98757553 -0.15225422 0.03890103 
-0.29949677 -0.38565817 -0.8726796 
-0.027791966 0.119395606 -0.99245775 
0.71332073 0.13331848 -0.68804055 
0.95868707 -0.13332808 -0.25128222 
0.95899165 0.25042906 -0.13274156 
0.948796 0.019483639 0.3152882 
0.9668527 -0.16032457 0.19872555 
0.8472262 0.27214724 0.45622778 
0.91144276 0.10336047 0.398232 
0.26946566 0.01929027 0.9628168 
0.20061135 0.62811977 0.7518115 
0.19695814 -0.035866275 0.9797557 
-0.2777161 0.30816275 0.90989536 
0.076600395 -0.63774186 0.7664318 
-0.496633 0.25524068 0.8295829 
-0.74976736 -0.35966662 0.5554178 
-0.7242791 -0.688043 0.04490709 
-0.97258717 0.03395125 0.23004729 
-0.8766416 -0.20410882 0.43570533 
-0.77575654 -0.5932055 -0.21519548 
-0.24929668 -0.034905225 -0.96779794 
-0.10537248 -0.21040517 -0.9719189 
0.4112896 -0.8336106 -0.3686928 
0.32920933 -0.7713897 -0.5445908 
0.57907236 -0.08694317 -0.8106271 
0.66684705 -0.49716085 -0.55510914 
0.4936254 -0.81856596 -0.29374096 
0.45234418 -0.7843866 -0.42440838 
0.40409726 -0.3232186 -0.85570747 
0.25947925 0.0015603771 -0.9657474 
0.9512166 -0.120444745 -0.28404254 
0.7129593 -0.6029628 0.35794556 
0.55260295 0.43631646 0.71011126 
0.53720385 0.41603616 0.733707 
-0.15562338 0.6158997 0.7723011 
-0.70318174 0.6356925 0.31848177 
-0.68083 0.72572106 -0.098992415 
0.3150419 0.83912873 -0.44340917 
0.3094832 0.93160677 -0.19060177 
0.27658767 0.7813341 0.5594787 
-0.010488188 0.55161077 0.83403575 
0.74701107 0.4963506 0.44227898 
0.35165033 0.9311217 0.096718706 
0.09568547 0.9896025 -0.10738386 
-0.10032968 0.94605654 0.30807635 
-0.64220554 0.7313701 0.22949922 
-0.598231 0.3092315 -0.7392534 
-0.24232596 0.30440882 -0.92120224 
-0.6130776 0.041264102 -0.7889444 
-0.13680135 0.39728642 -0.9074409 
-0.10787751 0.3310755 -0.93741745 
0.103764676 0.7410286 -0.6634075 
0.67505515 0.19502959 -0.71152234 
0.52697146 0.54320604 -0.65362704 
0.9255437 0.32859614 0.18813138 
0.081336215 0.15050887 0.9852571 
0.37379244 -0.28421974 0.8828921 
0.64133847 -0.35439223 0.6805081 
0.04380258 -0.12756053 0.99086314 
-0.63816184 -0.692606 0.33622372 
-0.70942205 0.022872947 0.70441264 
-0.6734989 0.6396714 -0.370432 
-0.7368579 -0.10594427 -0.66769475 
0.016057927 -0.05054449 -0.9985928 
0.87863684 -0.058566008 -0.47388554 
0.56900567 -0.75098187 -0.33505034 
0.80732656 -0.5387185 -0.24084462 
0.8270554 -0.51170784 0.23266815 
0.5493411 -0.11436688 0.82773465 
0.34711605 -0.14012082 0.9272953 
0.4773212 -0.06282093 0.8764805 
-0.31915516 0.06320335 0.94559264 
-0.34985188 0.3003263 0.88736004 
-0.055728864 -0.44215748 0.89520454 
-0.08758973 -0.19103356 0.97766775 
0.16733155 0.7990945 0.57744986 
0.019648658 0.18864582 0.98184866 
-0.47867614 0.18104509 0.8591227 
0.61330986 0.231073 0.7552856 
0.06636365 0.769832 0.63478714 
0.68648255 -0.40967193 0.6007584 
0.6129554 -0.27690238 0.74000734 
0.3688615 0.32948273 0.86912733 
0.33361554 0.24702214 0.90976965 
-0.4381296 -0.34794578 0.8288403 
-0.06354387 -0.83725303 0.543111 
-0.35583475 -0.2537388 0.8994433 
-0.39449036 -0.50982785 0.7644952 
-0.20510818 -0.1920786 0.9597065 
-0.60007936 0.2094996 0.77202 
-0.9770163 0.017929008 -0.21240902 
-0.9582251 0.10087035 -0.26763758 
-0.8653875 0.4750802 -0.15938468 
-0.70150024 0.34358165 -0.62437904 
0.23463942 0.020412264 -0.97186816 
0.18293768 0.4541651 -0.87193346 
-0.0295502 0.4126762 -0.9103984 
0.46987352 -0.5142838 -0.71744764 
0.4059752 0.6023819 -0.6872556 
0.94713134 -0.14225292 -0.28758729 
0.9264528 -0.17651024 -0.3324597 
0.6268133 -0.61421156 0.4794261 
0.9984587 0.050059944 0.023965996 
0.17629647 0.4133449 0.8933452 
0.32703337 0.5251294 0.785677 
0.7083293 0.6559903 0.26066512 
0.9248334 0.2818865 0.2553884 
0.7562973 0.24359722 0.60718596 
0.70562196 0.0018357222 0.70858616 
0.23160657 0.41225198 0.8811394 
-0.056785263 0.28191298 0.95775807 
0.16166772 0.022797858 0.9865819 
0.04858263 0.7488516 0.66095465 
0.23270775 0.12375727 0.9646405 
0.27572048 -0.26046732 0.9252757 
0.700253 0.1369445 0.70063686 
0.49928418 0.7877556 0.36077198 
-0.47258303 0.751972 0.4595687 
-0.22708589 0.7935528 0.5645405 
0.254915 0.44586074 -0.8580366 
0.15421948 0.7390224 -0.65579146 
0.1529156 0.6662608 -0.7298723 
0.549226 0.74892014 -0.37076867 
-0.474298 0.6677313 0.573739 
-0.25607428 0.4070304 0.8767853 
-0.19226131 -0.2794137 0.940725 
-0.37015364 0.044901673 0.9278848 
-0.93568474 0.064172536 0.34695253 
-0.86303115 0.31420195 0.3955431 
-0.92806745 -0.3722056 -0.012409069 
-0.94834256 -0.11588415 -0.29532582 
-0.8769908 -0.21656449 -0.42893708 
-0.911358 0.2435686 -0.33181468 
-0.055760164 0.37786543 -0.9241799 
0.8055605 -0.04447519 -0.59084207 
0.553106 0.5454788 -0.6297037 
0.6667178 0.6728774 -0.32050496 
0.96501267 0.14225829 0.220257 
0.606791 0.11523233 0.7864644 
0.50451785 -0.19424944 0.84126633 
0.020310454 -0.10153935 0.99462426 
-0.6820551 -0.4507293 0.5758853 
-0.8019743 -0.47053668 0.3680116 
-0.9146798 -0.33627272 0.2242357 
-0.8689317 -0.42336485 -0.256359 
-0.8554207 -0.2028206 -0.47657037 
-0.26281714 -0.2875657 -0.9209958 
0.29723686 -0.21091464 -0.9312171 
0.40737626 -0.70802104 -0.5768457 
0.46326694 -0.7308065 -0.501304 
0.2403533 -0.72459424 0.6459052 
0.49604923 -0.77483475 0.39187557 
0.35456842 -0.79806346 0.48721245 
0.5562809 -0.8306372 -0.024358556 
0.15425983 -0.9546329 -0.25471568 
-0.21646564 -0.9376541 -0.27193284 
0.16326137 -0.97405964 0.15669599 
0.75712466 -0.33124372 -0.563063 
0.6029535 0.2325545 0.76312876 
0.8080476 -0.08916458 0.5823304 
-0.17318763 -0.52169293 0.83536977 
0.026843728 0.13821593 0.9900383 
-0.4809553 -0.6456519 0.5931405 
-0.4585794 -0.12078441 0.88040674 
-0.251198 -0.4399271 0.86218554 
-0.52481157 -0.76191014 0.37955996 
-0.92191625 -0.14643225 0.3586477 
-0.0926794 0.40415496 0.9099831 
-0.45100114 0.27052316 0.8505382 
-0.7773495 0.041030306 -0.62772954 
-0.83510894 -0.28652015 -0.4695735 
-0.5092335 -0.72300196 -0.4668506 
-0.53182673 -0.38261288 -0.7554918 
-0.5311707 0.33998385 -0.7760596 
0.27321264 -0.11919078 -0.95454097 
0.048021555 0.2552025 -0.96569437 
0.28634548 0.38794655 -0.87607294 
0.30793658 0.021407928 -0.9511661 
0.4949138 0.39788845 -0.7724928 
0.2560606 0.30046913 -0.91877705 
-0.14107077 -0.28504455 -0.94807637 
0.3656337 -0.36988035 -0.85410804 
0.65863806 -0.26363277 -0.70476496 
0.5320591 -0.6415011 0.5526206 
0.9779256 -0.17414138 0.115483575 
0.7104187 -0.33821473 0.61718404 
0.82692355 0.30095115 0.47500104 
0.92642933 -0.15865977 0.34140277 
0.5848978 -0.038836766 0.81017673 
0.6736543 -0.402751 0.6196624 
0.6930646 -0.14564583 0.70600915 
0.76041913 0.0073157833 0.64939153 
0.08187412 0.24222599 0.96675915 
0.24496531 0.7601531 0.60179675 
0.05194388 0.036536798 0.9979814 
0.021518456 0.14608675 0.9890378 
-0.40423033 -0.14198188 0.9035702 
0.28321916 -0.24448137 0.9273704 
0.18965162 -0.8519568 0.48805943 
-0.08154107 -0.550026 0.8311574 
-0.49092707 -0.5734716 0.65583605 
-0.5977006 -0.4577681 0.6581812 
0.07986795 -0.5752891 0.8140415 
0.0116520645 0.49099764 0.871083 
-0.32736224 0.7599272 0.56155556 
0.45031473 0.2637963 0.85301137 
0.28492227 0.0027193853 0.9585468 
-0.021709803 0.30098423 0.95338196 
-0.3875083 0.33217287 0.859941 
-0.7722911 0.4500114 0.44839293 
-0.124094084 0.9804962 0.15240659 
-0.44741568 0.43335629 -0.7823181 
0.108778566 0.7457578 -0.6572767 
0.18367478 -0.5490985 -0.8153248 
0.046897873 0.90564495 -0.42143553 
0.8612892 0.4764358 0.17660673 
0.8402088 -0.20047401 0.5038445 
0.41393074 0.558445 0.71888846 
0.09680379 -0.49658546 0.8625729 
0.26401207 -0.54117346 0.79839146 
0.35848147 0.13323303 0.92398053 
0.26854077 0.3234159 0.9073522 
0.5758102 0.46485195 0.6725736 
0.25575873 0.6131609 0.7474097 
-0.5521714 0.8320346 0.05315429 
0.4019549 0.715019 0.5719966 
0.09578359 0.48810148 0.86751515 
-0.6367469 0.62109876 0.45693532 
-0.3306299 0.84382033 0.42267153 
0.39138353 0.91648096 0.08295595 
0.57782215 0.80240506 -0.1492236 
0.20884079 0.6789562 -0.70384943 
0.23342238 0.97235507 -0.006291347 
0.49557534 0.77447885 -0.39317644 
0.37345266 0.77546537 -0.5091037 
0.43479553 0.87666756 -0.20592901 
0.74032724 0.64631104 -0.18492606 
0.3533676 0.8871708 0.2967482 
-0.16042876 0.9768708 -0.14137231 
-0.16555092 0.8188096 -0.54967606 
-0.17048688 -0.022655377 -0.98509943 
0.6914972 0.0063116434 -0.7223517 
0.9425908 -0.30359805 0.13910776 
0.8310219 -0.25484958 0.49442327 
-0.09086641 -0.50409114 0.85885704 
0.42594373 0.4811546 0.7662 
0.06967761 0.087148495 0.9937556 
-0.42265382 -0.41429645 0.8060535 
-0.41093346 0.28606492 0.86562145 
-0.6658925 -0.65294003 0.36091083 
-0.60955185 -0.6106815 0.50548476 
-0.91561407 -0.20208664 0.34758002 
-0.9426978 0.048563022 -0.33009487 
-0.6394555 -0.6288535 -0.4423121 
-0.910592 -0.23312843 -0.3412819 
-0.9492441 -0.27707815 -0.14887439 
-0.9362364 -0.2529698 -0.24385996 
-0.66160935 -0.31268093 -0.68154514 
0.5157296 -0.5979891 -0.6135407 
0.34533828 -0.4694843 -0.8126044 
0.4790409 -0.8775438 0.020899883 
0.75532395 -0.6245717 0.1984839 
0.97508997 0.19643292 0.10302282 
0.49770093 0.8640231 0.07588124 
0.5693712 -0.4358398 0.6970367 
0.11404556 0.11686852 0.9865777 
0.5747761 0.0577978 0.81626713 
0.43617213 0.019988088 0.8996413 
0.11635416 0.17585528 0.9775155 
-0.32679743 -0.17022999 0.9296372 
-0.655013 0.22854818 0.7202248 
-0.90257704 0.0598292 0.42635095 
-0.98058337 -0.19509815 -0.019824792 
-0.89508206 -0.19048794 -0.40316555 
-0.9951191 -0.0053364644 -0.09853703 
-0.5997283 -0.22186847 -0.76883054 
-0.46348104 0.868015 -0.17814472 
-0.6359132 0.37291944 -0.67568153 
0.44599766 0.037408248 -0.89425206 
0.49565157 0.16993552 -0.85173446 
0.42030686 -0.056238662 -0.9056376 
0.75960153 -0.19351086 -0.62093407 
0.4923722 0.34472382 -0.79920906 
0.9183372 0.33423862 -0.21199363 
0.70603013 0.54731345 -0.44941008 
0.5351857 0.37154233 -0.75863874 
0.64514667 -0.275766 -0.71255803 
0.9041473 0.2874883 0.31601915 
0.8929685 0.43456376 0.11730989 
0.52205634 0.7473486 0.4110076 
-0.6704928 0.5828765 0.45901462 
-0.4682751 0.7692266 0.43475154 
-0.5801573 0.8078074 0.10423495 
0.09737793 0.9734845 0.20699178 
0.65191525 0.75815886 -0.0142035475 
0.07930298 0.93508196 0.34544593 
0.3840109 0.8229572 0.4186611 
-0.049732663 0.8411004 0.5385878 
0.54074955 0.84103376 -0.015880255 
0.46286133 0.8837979 -0.06826868 
-0.41964874 0.88159263 -0.21607704 
-0.45507345 0.8666929 0.20433247 
-0.73330915 0.4949448 -0.46614087 
-0.6126253 0.3820477 -0.6919031 
-0.5825502 0.6279397 -0.5160688 
-0.22964422 -0.30709335 -0.92355686 
-0.12430155 -0.13394192 -0.9831627 
-0.5321831 0.45443892 -0.7143294 
-0.004020336 0.3248444 -0.94575894 
0.6889458 0.69578975 -0.20305276 
0.58802 0.51252663 0.6257388 
0.3864478 0.04054407 0.9214198 
0.23473516 -0.63277215 0.7379016 
0.7385419 -0.6528395 -0.16839397 
-0.5505087 -0.5856998 0.5948916 
-0.63909584 -0.75707525 0.135623 
-0.9324189 -0.31920075 0.16942847 
-0.8468511 0.28882527 -0.4465683 
-0.46749982 0.23132265 -0.8531904 
-0.45286444 -0.06747852 -0.8890223 
0.5746071 -0.047765337 -0.8170344 
0.98742944 -0.1580584 -0.0008974663 
0.88089556 -0.45984834 -0.11208304 
0.87579805 0.47902003 0.059310254 
0.5385488 0.08686552 0.8381048 
0.8859081 -0.08227498 0.4565059 
0.3007549 -0.37570032 0.87658197 
-0.041394036 0.60415554 0.79579055 
-0.78263354 0.4108057 0.46767884 
0.012945948 -0.13258363 0.9910874 
-0.23306362 -0.49759752 0.8355107 
-0.26922822 -0.3178452 0.9091154 
-0.3527862 -0.5125203 0.7828569 
-0.69931793 -0.3556856 0.6200341 
-0.83640313 -0.52373624 -0.16164897 
0.04553656 -0.15201032 0.98732936 
0.58094704 -0.45748255 0.673209 
0.78756005 -0.14301474 0.59941316 
0.3633143 -0.6186279 0.6966364 
0.08963682 -0.43655458 0.89520127 
-0.34153458 -0.29511574 0.8923346 
0.0841074 -0.7087051 0.7004734 
0.11288072 -0.832033 0.5431198 
-0.16668077 -0.43352383 0.8855928 
-0.34264958 0.25517038 0.9041457 
-0.61348194 -0.4964586 0.61414075 
-0.97110635 0.23834012 -0.012105783 
-0.20961331 0.6258241 -0.75126994 
-0.9223217 0.099062756 -0.37350953 
-0.4241822 0.20784336 -0.8814026 
-0.22549288 -0.23229516 -0.94614583 
0.27882144 -0.36748242 -0.8872516 
0.21408959 -0.37170607 -0.9033274 
0.5616767 -0.10566771 -0.8205813 
0.69835967 0.39134943 -0.59928244 
0.8270717 -0.5308583 -0.18477532 
0.9078881 0.018273588 -0.4188142 
0.9255022 -0.20324054 0.31959206 
0.8944163 0.1216575 0.43037096 
0.58173573 0.5201782 0.62529856 
0.77442044 0.41722703 0.47559938 
0.87867266 0.38395938 0.28374204 
0.6709711 -0.053398956 0.7395583 
0.8362202 0.052779537 0.5458482 
0.7720717 0.62508875 0.11475768 
0.44097492 0.5277544 0.72595894 
-0.06593401 -0.34044844 0.9379487 
-0.29168952 0.05729621 0.9547955 
0.8106278 -0.0028676372 0.5855549 
0.57098126 -0.27418634 0.77382314 
0.24238834 0.08639095 0.96632534 
0.7748255 0.21507654 0.59446424 
-0.21968222 0.9238398 0.3134642 
-0.28556827 0.9560482 0.06650332 
0.484209 0.87488323 0.010998427 
0.44499967 0.8926411 -0.071883105 
0.23398209 0.95258766 0.19449702 
0.1710805 0.8865743 -0.42978778 
0.26511922 0.80398214 -0.53228253 
-0.24735695 0.95296586 -0.17513023 
-0.25667682 0.8694613 0.42208317 
-0.65039146 0.50250363 0.56963235 
-0.8042818 -0.001730467 0.5942456 
-0.7772083 -0.42597497 0.4631334 
-0.69537973 -0.079890944 0.71418804 
-0.88279563 0.373097 0.28543025 
-0.9704204 0.018055217 0.24074537 
-0.76698154 -0.41917723 -0.48582903 
-0.6512582 -0.40097484 -0.64426863 
-0.003788389 0.0052324506 -0.9999792 
0.23198801 -0.50164384 -0.8333878 
0.4661645 0.87603277 0.12352017 
0.5832582 0.60133827 -0.546079 
0.8702012 0.24628744 0.42672294 
0.77388966 0.22230615 0.59302175 
0.3908484 -0.4648778 0.7944345 
0.03043186 0.3635028 0.9310959 
-0.40194455 0.03891054 0.91483694 
-0.7838318 -0.41466203 0.46223724 
-0.90813017 -0.38419983 -0.16640338 
-0.94501376 -0.20204175 -0.25715393 
-0.46545058 0.098624356 -0.8795619 
-0.91019815 -0.14289069 -0.38874385 
-0.09132269 0.31088847 -0.9460489 
0.19042668 -0.19309442 -0.962524 
0.9870923 -0.10362031 -0.12211348 
0.79333365 -0.6087444 0.00720804 
0.92534804 -0.113604404 0.36169738 
0.51362604 -0.35578665 -0.78077155 
0.5675654 -0.58606625 -0.5782697 
0.21856464 -0.94484484 -0.24392173 
0.52866596 -0.8334551 -0.1608261 
0.3103546 -0.6259237 -0.71547157 
0.78893715 -0.6143484 -0.012421514 
0.6629731 -0.5791166 0.47443727 
0.09454873 -0.5171317 0.8506676 
0.3662849 -0.8231381 0.4339112 
-0.56322455 -0.71375376 0.4163338 
0.33994636 -0.88125694 0.32836357 
0.37966648 -0.91675144 0.12417828 
-0.26702648 -0.86287874 0.4291123 
-0.11960272 -0.39815584 0.90948737 
-0.2661575 0.15477908 0.9514219 
-0.44741166 0.52205116 0.7261442 
-0.8257198 0.004795547 0.5640603 
-0.9121504 -0.36594623 0.18456708 
-0.9008745 -0.38789016 0.19484976 
-0.87460023 -0.4629917 -0.14392062 
-0.7595955 -0.21678081 -0.6132054 
-0.9884055 0.07801438 -0.1302623 
-0.23213534 -0.018225294 -0.9725128 
0.4821028 0.1751612 -0.85842615 
0.82304853 0.3874032 -0.41534328 
0.7313955 0.27828634 -0.62258923 
0.36756128 0.35296923 -0.86041355 
0.2544206 0.25132835 -0.93386525 
-0.27447495 0.20569213 -0.9393372 
0.5621749 -0.2087007 -0.80025214 
0.8978735 0.16908498 -0.40648913 
0.7217723 0.19445212 0.66425383 
0.9735039 -0.208864 -0.09309175 
0.65388465 -0.5215137 0.54814094 
0.9286455 -0.2278447 0.29275298 
0.911899 -0.14098369 0.3854397 
0.5363443 -0.5757646 0.6171142 
0.3025202 -0.7595893 0.5757653 
0.49054536 -0.7753904 0.39766204 
0.90320206 0.03314421 0.42793402 
0.5659371 0.48387134 0.66752064 
0.7002396 0.4225501 0.57542676 
0.3063903 0.25627986 0.9167583 
-0.6652766 0.053632434 0.7446682 
-0.44424012 -0.56483096 0.6954256 
0.21896237 -0.2927224 0.93078953 
0.22441982 -0.43948412 0.86976403 
-0.038571607 -0.5268678 0.8490716 
-0.33993638 -0.44763818 0.82708126 
-0.29389355 -0.43961197 0.848745 
0.20078322 -0.31200776 0.9286212 
0.38483596 -0.10120443 0.91741985 
-0.031520728 0.10413128 0.994064 
0.24229926 0.76967114 0.5906756 
0.013972772 0.9074604 0.41990545 
0.09896417 0.8056125 0.5841188 
-0.13218449 0.9908389 0.027670136 
-0.34892434 0.9048002 0.24410747 
0.028665863 0.98694974 -0.15845673 
-0.114846714 0.9008053 0.41876 
-0.17755835 0.9647177 -0.19440359 
-0.32885242 0.5026955 0.79947066 
-0.060175724 0.58683187 -0.80746967 
0.45658293 0.888801 0.03955855 
0.7391488 0.31703892 0.5942604 
-0.16789176 -0.58795196 0.7912805 
-0.09779123 -0.7729736 0.6268563 
0.23575889 -0.6797746 0.69449574 
-0.39031515 -0.42126068 0.8186535 
-0.0966839 0.4995867 0.8608516 
0.054552354 -0.08146058 0.9951825 
-0.15161087 0.71673566 0.68066454 
0.19851446 0.2415773 0.9498592 
0.058273543 0.3473402 0.93592685 
0.45128685 0.28123096 0.84690577 
-0.016438453 0.6448376 0.7641429 
-0.20717168 0.9665546 0.15116946 