# OOMMF: rectangular mesh v1.0
# Segment count: 1
# Begin: Segment
# Begin: Header
# Desc: Time (s) :  3.3099999999999993e-07
# Title: m
# meshtype: rectangular
# meshunit: m
# xbase: 2e-09
# ybase: 2e-09
# zbase: 5e-10
# xstepsize: 4e-09
# ystepsize: 4e-09
# zstepsize: 1e-09
# xmin: 0
# ymin: 0
# zmin: 0
# xmax: 1.024e-06
# ymax: 1.024e-06
# zmax: 1e-09
# xnodes: 256
# ynodes: 256
# znodes: 1
# ValueRangeMinMag: 1e-08
# ValueRangeMaxMag: 1
# valueunit: 
# valuemultiplier: 1
# End: Header
# Begin: Data Text
0.1826152 0.2324033 -0.9553222 
0.09324898 0.48293692 -0.870676 
0.6277017 0.5427545 -0.5580397 
0.44518894 0.46586415 -0.7647075 
0.83230585 -0.35749868 -0.4236292 
0.52079934 -0.8105898 -0.26779166 
0.088191286 -0.11567334 -0.98936445 
0.9251891 -0.10911024 -0.36348352 
0.9717598 -0.07427467 -0.22397836 
0.90854055 0.27701464 -0.31275722 
0.45006698 0.24478015 -0.8587913 
-0.12275205 0.9744199 -0.1882493 
-0.111745216 0.9144247 -0.3890251 
-0.14355724 0.98959774 0.009362455 
-0.88924766 0.31985995 0.3269989 
-0.810289 0.17560644 0.5591012 
-0.83604515 0.5477079 -0.032321636 
-0.9537291 -0.0056373896 0.3006147 
-0.991705 0.09015267 0.0916182 
-0.54223853 0.58314735 0.6049104 
-0.09430388 0.5016051 0.8599415 
-0.8663927 -0.083536565 -0.4923267 
-0.656648 0.16337249 -0.7362899 
-0.8307328 -0.5282612 -0.17556542 
0.092312455 -0.21868655 -0.9714189 
0.6758037 -0.22380792 -0.7022816 
0.41308042 -0.8805868 -0.23223156 
-0.15551619 -0.8834775 -0.44190747 
0.99568987 -0.088474266 -0.027821926 
0.9312248 -0.18536392 0.31378427 
0.8699286 0.31456718 0.37983128 
0.70137763 0.41838774 -0.5770799 
0.56481016 0.7375466 0.3701549 
0.8568279 0.4968675 -0.1377267 
0.6363315 0.11253153 0.76316375 
0.3305202 -0.027149439 0.9434084 
0.12963592 -0.17324235 0.9763103 
-0.19698766 -0.28647897 0.937617 
-0.5724208 0.11833414 0.8113764 
-0.4455743 0.16365938 0.88015854 
-0.6635252 -0.66005814 0.3522181 
-0.47741795 -0.7778476 0.40868735 
-0.31077474 -0.95047414 -0.004228769 
-0.073092535 -0.99196374 -0.10327399 
0.18132633 0.010733088 0.98336446 
0.5038722 0.06253715 0.86151147 
0.2068855 -0.09798557 0.97344613 
0.43291458 0.23723501 0.86965775 
0.121775165 -0.28390655 0.9510878 
0.3814541 0.23173445 0.8948698 
-0.22264616 0.62501776 0.7481856 
-0.4952925 0.5853141 0.6419446 
0.0041329195 0.9475779 -0.31949815 
0.42030504 0.89140475 -0.16953266 
0.56367695 0.72174 -0.40169615 
0.24104002 0.9365726 0.25442383 
-0.20843711 0.97764045 -0.027808288 
0.4541569 0.890236 0.034949705 
0.4207564 0.79405725 -0.43867669 
0.42962354 0.902341 -0.03470524 
-0.0352647 0.98955625 0.13976768 
-0.5363874 -0.21908982 -0.81503874 
-0.21341178 0.40172485 -0.8905462 
0.36216912 0.7513499 -0.5516403 
-0.20170252 0.9766079 -0.074518725 
0.47091228 0.8068203 0.35676706 
-0.13820808 0.95502096 0.26236165 
0.26729733 0.9439467 0.1936927 
-0.46183142 0.7044136 0.5389929 
-0.081261225 0.86898893 0.4881136 
0.4549264 0.86744183 -0.20146172 
0.20724148 0.7413797 -0.6382846 
-0.86357105 0.3677275 -0.34499493 
0.52227235 0.82463515 -0.21727538 
-0.097393 0.88948894 -0.44645727 
0.4497151 0.6070154 0.6552013 
0.7977427 0.5608598 -0.22145633 
-0.8187846 0.56023836 -0.12539925 
-0.04669882 0.7788867 -0.6254237 
-0.47175917 0.8145089 -0.3376664 
-0.6688429 0.28191337 0.6878765 
-0.98727316 0.1308056 -0.09045315 
-0.20282196 0.5455375 -0.8131741 
-0.30617028 0.25051323 -0.9184241 
0.20616066 -0.065597974 -0.976317 
0.65216625 0.57789564 -0.49062794 
0.9965936 -0.07789764 -0.02707718 
0.6859351 0.5806995 -0.43849885 
0.47669736 0.8750358 -0.084095456 
0.9335135 0.34984347 -0.07849975 
0.21935341 0.89259917 0.39389202 
0.09557772 0.9836257 0.15279171 
0.07364681 0.8104465 0.5811651 
-0.1319731 0.20129834 0.9705989 
0.2777087 0.8114488 0.5142265 
-0.11499154 0.36281165 0.9247403 
0.13609543 0.54926664 0.8244903 
-0.3626767 0.041818205 0.93097633 
0.24642333 -0.08885183 0.96508086 
0.098053105 0.4370771 0.89406335 
0.93030596 -0.15309462 0.33330587 
0.95834106 0.17758045 0.2237135 
0.52152 -0.26614887 0.81066746 
0.78000736 0.030352362 0.6250339 
0.6311542 0.7145207 0.30183548 
0.97505134 0.15587802 0.1580415 
0.095133014 -0.08823058 0.99154687 
0.08693162 0.072937235 0.99354076 
0.22138591 0.22332723 0.94926995 
0.20959231 0.6385818 0.74046224 
0.44712934 0.45016903 0.7729316 
0.33719876 0.24789192 0.9082107 
0.38133225 0.89036345 0.24867395 
0.40644407 0.31322467 -0.85830855 
0.10613292 0.014449553 -0.99424696 
0.19479193 -0.06397015 -0.9787563 
0.41447183 0.1061845 -0.90384626 
0.51664907 0.3792948 -0.7675996 
0.6990009 0.12652735 -0.7038385 
0.8106787 0.58431536 -0.037089895 
0.68447 0.69807374 -0.2102236 
0.8727059 -0.38884214 0.29527313 
0.76233083 0.5600067 0.32441393 
0.99058765 0.13678661 0.0050708083 
-0.26340812 0.7238926 0.63764864 
0.3439099 0.3636364 0.8657335 
0.26606196 0.4716688 0.84067804 
-0.1144307 0.27896112 0.9534602 
0.43610054 -0.30152893 0.84787774 
0.52780294 0.13382424 0.83875823 
0.48467875 0.7448425 0.45858076 
0.44607833 0.85570157 0.2622766 
-0.5850627 0.8015524 0.12335133 
-0.70828253 0.7055457 -0.023264889 
-0.7229319 0.19218552 -0.6636521 
-0.09161172 0.8687441 -0.4867147 
-0.22211425 -0.26354566 -0.9387274 
0.050481897 -0.8950641 -0.443071 
-0.31217596 0.041106988 -0.9491346 
-0.6623868 0.39653412 -0.63561344 
-0.14868121 -0.9756668 0.16114612 
0.6646953 -0.16092001 -0.7295787 
0.97206974 -0.19353211 -0.13276228 
0.27670896 -0.9596748 -0.049563214 
0.6834666 -0.40492108 0.6073816 
0.57609916 -0.35138738 0.7379951 
0.95042014 0.1863909 0.24891749 
0.5548512 0.6804201 0.47871575 
-0.0062147942 0.4053791 0.91412765 
-0.51404303 0.18256585 0.83811074 
-0.4406121 -0.17138572 0.88118553 
-0.8787565 0.32174867 0.3525122 
-0.98054403 -0.19512567 -0.021435812 
-0.48822114 0.023837633 -0.87239444 
-0.060173918 0.764374 -0.6419592 
-0.5342641 0.41566566 0.73605984 
-0.3826087 0.9211145 -0.07182405 
-0.6038475 0.6748754 -0.42415982 
-0.004249303 0.8645633 -0.50250614 
0.79778683 0.5795387 -0.16634668 
0.5551258 0.72191685 0.41312417 
0.22636785 0.41795596 0.8798127 
-0.37405673 0.5400492 0.75394195 
-0.1247055 0.068311125 0.98983943 
0.08048358 0.31673712 0.94509256 
-0.7374054 -0.10131565 0.66780865 
-0.92414486 0.07608966 -0.37438858 
0.04205182 0.99726695 -0.060748678 
0.084638774 0.9884109 0.126017 
-0.40205613 0.8695384 0.2867993 
-0.7854466 0.59772676 -0.1606129 
-0.6629678 0.74817634 0.026569331 
-0.54126763 0.5063787 0.67127496 
0.30852512 0.92703754 0.2131053 
-0.48038703 0.8762961 0.036516506 
-0.58850926 0.7313752 -0.34459704 
0.058555134 0.9961392 -0.06540659 
-0.42707494 0.5583239 -0.7112535 
-0.9446692 0.32204807 -0.06233109 
0.7683458 0.5795468 0.2716068 
0.41298172 -0.046529174 0.9095501 
-0.34004876 -0.40886554 0.84687424 
-0.648537 0.07160164 0.75780797 
-0.66104084 0.3545529 0.6612997 
-0.9202266 0.3034754 0.24715507 
-0.98516536 0.040050846 -0.16686884 
-0.560034 0.39964998 0.725701 
-0.34723204 0.2080291 0.91441447 
-0.8267701 -0.1117993 0.5513185 
-0.13514824 -0.93615973 -0.32456112 
-0.31008798 -0.9484806 -0.065038756 
-0.5733935 0.03257368 0.8186323 
-0.8178472 -0.028551554 0.5747269 
-0.8301701 -0.23652588 -0.5048497 
-0.20195925 -0.36362422 -0.90938985 
-0.2529051 -0.40014693 -0.880864 
0.6335791 -0.75387657 -0.17391892 
0.9639798 -0.2643313 0.029531406 
0.65895724 0.43141362 0.61616373 
0.5998508 0.52037305 0.6077754 
0.23721391 0.45942786 0.85595316 
-0.7693651 0.31526995 0.5555919 
-0.9986655 0.0015301178 -0.05162332 
-0.49117297 -0.43133295 0.7567701 
-0.79592985 -0.5590919 0.23218974 
-0.5419694 -0.81985575 0.1846775 
-0.24706861 -0.87949795 0.40674368 
-0.39739257 -0.6847074 0.610946 
-0.24935572 -0.8742009 0.41664708 
-0.09055963 -0.4706273 -0.8776725 
-0.010144197 -0.4408906 -0.8975035 
-0.13615733 -0.859866 -0.4920281 
-0.14200771 0.08516501 -0.9861951 
0.8544536 0.34012768 -0.39271122 
0.9986862 0.019790813 -0.047266915 
0.5468667 0.5972429 -0.5867179 
0.5520685 0.34220642 -0.76033884 
0.9988662 -0.014053556 0.045486264 
0.98156935 0.13631573 -0.13393924 
0.54104114 -0.06806788 0.8382371 
0.8584008 0.2880575 0.4244655 
0.4529046 0.16477792 0.8761996 
0.17662029 0.7831539 0.5962175 
-0.3183612 0.9177524 0.2374382 
-0.18167084 0.962202 -0.20288698 
0.008384421 0.17199844 0.9850615 
0.26727515 0.6387948 0.7214605 
0.6691531 -0.16909619 0.7236302 
0.18966359 -0.08315124 0.97832185 
-0.6635922 0.6723775 0.32795405 
-0.5408222 0.37940747 -0.75070727 
-0.7070457 0.6428421 -0.29468712 
-0.36868685 -0.88693887 -0.27822566 
0.04935036 -0.7334045 -0.67799884 
0.34417298 -0.81920797 -0.45874095 
0.42148083 -0.6463914 0.63602835 
0.5867319 -0.14697634 0.7963314 
0.86538506 -0.465554 0.18538684 
0.20266733 -0.28878254 0.9356979 
-0.0876754 -0.42095128 0.9028362 
-0.4379584 0.87168056 0.21992157 
-0.9461418 0.30983752 0.09389573 
-0.47757292 0.8330525 -0.2791912 
-0.93494266 0.27367783 -0.22579336 
0.15889436 -0.7548267 -0.6363878 
-0.07008193 -0.22051094 -0.9728636 
-0.2427862 0.8966722 -0.37018105 
-0.26262602 0.6374629 -0.7243402 
0.35546213 0.31552714 -0.8798235 
0.11763059 -0.9928544 0.020080306 
-0.17648366 -0.9177466 -0.35580167 
-0.5070515 -0.841783 0.18520296 
0.15008247 -0.6466874 0.7478441 
-0.115773626 -0.6313717 0.76678973 
-0.8374923 -0.53998035 0.083833076 
-0.6281701 -0.5995232 0.49595797 
-0.19785672 0.80144304 -0.56439525 
0.45232934 -0.09583137 -0.88668746 
0.72872216 0.30083704 -0.61519206 
-0.05332463 0.24172164 -0.96887934 
0.61252445 -0.36114722 -0.70312625 
0.7158174 -0.62789226 -0.30554357 
0.6948796 -0.5080516 -0.508946 
0.97763413 0.028970828 0.20830828 
0.908134 -0.046101004 -0.4161339 
0.76401895 0.58683455 0.26814255 
0.016526494 0.5876603 0.808939 
-0.10822854 0.51940095 0.84764934 
-0.08468527 0.9645376 0.24999103 
-0.3371565 0.87117934 0.35689235 
-0.9154279 0.3692334 0.16018242 
-0.86739296 0.1981365 0.45647717 
-0.807182 0.36394477 -0.46475956 
-0.89737225 0.43515745 -0.07321881 
-0.74991924 -0.022265084 -0.6611547 
-0.91306853 0.3955417 0.09926032 
-0.99674046 0.014308031 0.07939705 
-0.7864243 0.06485533 -0.6142726 
-0.68925256 0.4477186 -0.5696306 
-0.7184309 0.08710118 -0.6901236 
0.34051102 -0.4101232 -0.8460799 
0.42582086 -0.30958545 -0.8501962 
0.016042434 -0.88176984 -0.47140694 
-0.40217942 -0.8186779 -0.40990016 
0.7875779 -0.61470133 0.043165106 
0.6155884 -0.75637686 0.22123544 
0.7454201 -0.0368457 -0.665576 
0.5630625 0.0993368 -0.8204223 
0.9979608 0.063790634 -0.0022496132 
0.8852252 0.04930313 0.46254268 
0.4904527 -0.20457779 0.8471153 
-0.13186924 0.1908803 0.9727154 
0.05037309 -0.25958735 0.96440506 
-0.40630233 -0.34869558 0.84458864 
-0.6284784 0.33831918 0.70039636 
-0.60881704 -0.7471368 0.26669922 
-0.48034894 -0.6524606 0.5861401 
-0.72254384 -0.47926033 -0.4982368 
-0.26898515 -0.92536 0.26712537 
-0.041597232 -0.73870665 0.6727423 
0.11172309 -0.5982074 0.7935149 
0.3643527 -0.5558656 0.74716836 
-0.14301847 -0.8068799 0.57314104 
0.18427217 -0.30710143 0.93366617 
0.35902482 -0.8578654 0.3676525 
0.5307406 -0.30101565 0.79227775 
0.023603655 0.28673643 0.9577188 
-0.063615955 0.41198918 0.9089654 
0.53237927 0.56856596 0.62714046 
0.4422004 0.86278015 -0.24509047 
0.34414458 0.8175717 0.46167213 
0.038599502 0.9991778 -0.0124025885 
0.2151205 0.93207127 -0.29148993 
0.44418424 0.6669253 -0.59825665 
-0.08501316 0.9356886 0.34243187 
0.0025895434 0.9494728 0.31383863 
0.15978685 0.94194406 0.29531276 
-0.75614095 0.6522896 0.05262224 
-0.36380127 0.729494 -0.57921267 
0.2819456 0.8299146 -0.48140258 
0.20243602 0.9792852 0.004496592 
0.55340594 0.7823171 0.2858704 
0.20437516 0.58120865 0.78767204 
0.28142092 0.8122249 0.51097256 
-0.46062317 0.25999433 0.8486632 
-0.56808585 0.44882518 0.6898076 
-0.24438211 0.93018764 0.27391323 
-0.5797788 0.7110822 0.39776707 
-0.30371764 0.88772416 0.3459789 
-0.14615303 0.4522291 0.87984556 
0.18542567 0.5355125 0.8239197 
0.322055 0.9054623 0.27643907 
0.8053928 0.44342253 -0.39334324 
0.017502768 0.91641164 0.39985418 
-0.02013483 0.6877644 0.7256547 
-0.0982487 0.8932385 0.43871662 
-0.4800634 0.80562216 0.34714854 
-0.34230113 0.9321627 -0.11791031 
0.17846489 -0.09947028 -0.97890556 
-0.7274559 0.3833459 -0.5690816 
-0.01662281 0.47747743 -0.8784868 
0.6476586 0.15345325 -0.746318 
0.868876 0.3543435 -0.34568074 
0.98732334 -0.008026828 -0.15851885 
0.9004537 0.33924228 -0.27220944 
0.9357814 0.21211116 0.28164178 
0.0001383427 -0.09176513 0.9957807 
0.116946585 -0.25311944 0.9603407 
0.3220002 0.5104365 0.7973522 
-0.065181874 -0.09404518 0.99343187 
0.7102949 0.22261995 0.66777354 
-0.049973384 -0.23358046 0.9710524 
0.374891 0.24729979 0.8934762 
0.16450514 0.12519546 0.97839886 
0.09152795 -0.15038243 0.9843819 
-0.05054451 0.48925754 0.8706736 
-0.07064347 -0.58795977 0.8057995 
0.23198573 0.16686404 0.95830005 
0.44340757 -0.2619925 0.8571754 
0.3731658 0.086296864 0.9237425 
0.18020064 0.7839955 0.59403616 
0.39513934 -0.6281076 0.6703327 
0.20714378 -0.344654 0.9155901 
-0.216222 -0.63620937 0.7405982 
0.30574575 0.053730603 0.950596 
-0.154669 0.58708984 0.79460883 
-0.43421662 0.57155854 0.69625914 
0.23079337 0.74375325 0.627348 
-0.36472294 0.77621365 0.51426613 
-0.20234649 0.9374223 0.28336456 
-0.7347134 0.55281323 -0.39318416 
-0.0004884256 0.4274103 -0.9040577 
0.7420299 0.31527865 -0.5916004 
0.54360425 0.24916865 -0.80150455 
0.8804763 0.46979594 -0.06366687 
0.9890665 0.107757896 -0.10067691 
0.8099961 0.17300674 0.56033474 
0.8175533 0.56322867 -0.11991682 
0.84611577 0.19343671 0.49665913 
0.912212 -0.37895042 -0.15577525 
0.35857648 0.5907619 0.7227886 
0.32080412 0.31490442 0.8932637 
0.3167175 0.29741403 0.9006858 
-0.28682226 0.55041844 0.7840743 
0.443513 0.6342284 0.6332855 
0.15891418 0.076032676 0.98436046 
-0.43288845 0.9000939 -0.049381018 
-0.37543848 0.690752 0.61798674 
-0.7167217 0.6470729 -0.26001295 
-0.52424973 0.23584647 -0.8182534 
-0.30025202 0.21877234 -0.92843276 
-0.9062125 -0.1593961 -0.391627 
-0.6279287 -0.014123403 -0.77814287 
-0.3068135 -0.573516 -0.7595689 
-0.057073634 0.040032208 -0.9975671 
0.15383403 -0.22042716 -0.9631963 
-0.45816514 -0.41400996 -0.7865624 
0.56528115 -0.1697404 -0.8072457 
0.90120816 0.4226166 0.09601581 
0.8983177 -0.37271225 0.23261775 
0.3270783 -0.57459295 0.7502418 
0.93597996 -0.11632141 0.33228144 
0.6630361 0.19211987 0.72351444 
0.7626361 0.5754087 0.2954507 
0.1756356 0.9363596 0.30394578 
0.007686748 0.24677272 0.9690429 
-0.5533053 0.33991984 0.76046544 
-0.90757686 0.41970918 -0.012181011 
-0.8212617 0.485732 -0.29932192 
-0.6535694 0.53012496 -0.54019874 
-0.24394056 0.87883055 0.4100608 
-0.5580214 0.829817 -0.003990263 
-0.83296376 0.5165128 0.19845887 
-0.62998366 0.54911005 -0.5491801 
0.19156887 0.6854414 -0.70247537 
0.63832915 0.7346646 -0.22979085 
0.25163475 0.63048697 0.73427945 
0.3261894 0.45238003 0.83003175 
0.15574156 0.6699187 0.7259157 
0.3854665 -0.21377684 0.8976163 
0.35426536 -0.3575396 0.86409575 
0.0805707 0.03360105 0.99618244 
-0.4927816 0.8298558 0.26173592 
0.38976648 0.8688554 0.3052416 
0.24048986 0.94765174 0.21004985 
-0.0914493 0.91347134 0.3964937 
-0.8664245 0.43666923 0.24213341 
-0.5678807 0.6150956 0.5469635 
-0.3822885 -0.3882589 0.8385169 
-0.60332876 0.4944897 0.6256792 
-0.7645164 0.40123102 0.5045082 
0.115828924 0.82582015 0.55191004 
0.32768336 0.94359547 -0.047449283 
0.0858394 0.92498463 0.37018245 
-0.019945228 0.5338014 0.84537476 
0.8591644 0.12325051 0.49663442 
0.13236786 -0.44306952 0.88666123 
-0.5732303 -0.17712043 0.8000221 
-0.9369607 -0.05039338 0.34578207 
-0.18092501 -0.31383726 0.9320796 
-0.8084255 -0.4486735 0.38097298 
-0.92444885 -0.30264813 0.23194486 
-0.7556664 -0.09824834 0.6475458 
-0.5743401 -0.16465224 0.80188733 
-0.6512957 -0.74771535 0.12936686 
-0.6517989 -0.5927005 -0.4731431 
-0.46959457 -0.85675144 0.2132089 
-0.7981481 -0.60226595 -0.015343169 
-0.92634505 -0.13703044 -0.35086688 
-0.16758755 0.38613638 -0.9070905 
0.08549419 -0.18203709 -0.97956795 
0.4257065 0.05024657 -0.9034652 
0.89761955 -0.41660625 -0.14393905 
0.89251184 -0.22800437 -0.38914847 
0.97846484 0.18206973 -0.09724808 
0.8098101 -0.1896112 0.5552074 
0.46875626 0.1906474 0.86250865 
-0.4258016 -0.5553692 0.7143236 
-0.793399 -0.4128555 0.44729006 
-0.4965932 -0.84623706 0.19307566 
-0.6925746 -0.5450454 -0.47251034 
-0.633191 -0.76818806 -0.09463817 
-0.3856628 -0.90312564 0.18875454 
-0.5887267 -0.68396753 0.43080083 
0.091610946 -0.93155605 -0.35186782 
0.37525824 -0.4801311 -0.7928779 
0.20643318 -0.4691983 -0.8586259 
0.5533126 -0.23325597 -0.7996479 
0.14495254 0.347189 -0.92652506 
0.9123042 0.37253487 -0.17005572 
0.964784 0.18265574 0.18928483 
0.94350165 -0.14329451 0.29878315 
0.86808777 -0.19641918 -0.4558982 
0.91380996 0.18530901 -0.36140293 
0.9223371 0.30696675 0.2346607 
0.46353725 0.25011307 0.8500452 
0.84081274 0.34133 0.4201521 
0.4002805 0.38485435 0.83166254 
0.13866036 0.86395365 0.48410502 
0.4917709 0.6306642 0.6003533 
0.07390059 0.07370133 0.9945385 
-0.4434773 -0.36551684 0.8183674 
0.09931214 -0.095219925 0.9904899 
-0.58695257 -0.19504668 0.7857758 
-0.4759994 0.29180443 0.8296233 
-0.44046775 0.25217867 0.861623 
-0.9165514 0.36094284 -0.172203 
-0.7903034 0.057548724 -0.6100072 
-0.38973624 -0.73541814 -0.55431575 
-0.34049994 -0.5539205 -0.75975776 
0.5150136 -0.69367754 -0.5035599 
0.54276913 -0.73299223 0.4100293 
0.6816997 -0.354008 0.64028424 
0.6709234 -0.26169723 0.6938129 
0.38015062 -0.39718714 0.8353012 
0.15635514 -0.2171983 0.96352375 
-0.5338147 0.8443078 -0.046756957 
-0.43184447 0.8722963 0.22936805 
-0.5957108 0.7990062 -0.081962265 
-0.8479867 0.52682436 0.0580928 
-0.3680032 0.3866663 -0.8456139 
-0.37959155 0.80147165 -0.4621183 
-0.18187319 0.975861 -0.12090319 
-0.12849729 0.5896979 -0.79733616 
0.032884 0.028966544 -0.9990394 
-0.4467977 0.03190283 -0.89406604 
-0.19389102 -0.8377563 -0.51046133 
-0.55072165 -0.8309816 0.078583375 
-0.27815974 -0.57802856 0.7671442 
-0.622674 -0.72248006 -0.3004992 
-0.35113153 -0.66307026 -0.6610934 
-0.43146598 -0.7663322 -0.47599593 
-0.64612496 -0.621021 -0.44368416 
-0.06015528 0.1644836 -0.9845438 
0.5323084 -0.02910655 -0.84604996 
0.15268885 0.32988793 -0.9315901 
0.97469246 0.051143013 -0.21762128 
0.83903307 -0.32699862 -0.4348512 
0.8869968 -0.2961792 -0.35428038 
0.8774701 -0.46343523 -0.123588935 
0.7889346 0.42556494 -0.44325688 
0.09093428 -0.0472944 0.99473333 
0.10666952 0.70152676 0.7046147 
-0.12962309 0.7608955 0.6357956 
-0.30554864 0.44190073 0.8434239 
-0.35130507 0.5951748 0.7227391 
-0.8025368 0.37380987 0.46497425 
-0.6034036 0.021493807 0.7971463 
-0.0845923 0.49402148 0.86532485 
-0.98758966 -0.15064381 -0.044420708 
-0.9943513 0.031098505 -0.10148068 
-0.7226866 0.6414471 0.25742912 
-0.5878832 0.08988632 -0.80393654 
-0.90198386 0.11424548 -0.41638097 
-0.48253283 -0.38132477 -0.7885135 
0.4300142 -0.112020046 -0.8958456 
-0.50548524 -0.10680362 -0.8561996 
-0.48416856 -0.5248614 -0.7000724 
-0.088719144 -0.93477756 -0.34397656 
0.41582167 -0.71256423 -0.5651058 
0.6554911 -0.6845175 -0.31900966 
0.27957505 0.3906245 -0.87706923 
0.69514596 0.2792901 -0.6623965 
0.70471656 0.14781174 -0.693921 
0.9654002 0.22307995 0.13504778 
0.8843874 0.4290359 0.18381265 
0.33947313 0.09927602 0.9353621 
0.09550935 -0.5261198 0.8450301 
0.20502913 -0.05354526 0.97729015 
-0.78309065 -0.439333 0.44017684 
-0.69388515 -0.2619421 0.6707532 
-0.37769076 -0.81235087 0.44433773 
-0.36858857 -0.42009398 0.8292549 
-0.3558809 -0.68650705 0.6340796 
0.089720935 -0.57230407 0.81511855 
0.18701787 -0.5072036 0.84129006 
-0.6170263 -0.4509773 0.64490163 
-0.46269298 -0.86467063 -0.1956017 
-0.45389846 -0.827342 0.33088008 
-0.6742957 -0.5127198 0.53145427 
0.34828776 -0.77090603 0.53329116 
-0.29985595 -0.82229704 0.48364663 
0.45652756 0.15255588 0.8765325 
0.12550128 -0.07832167 0.9889971 
-0.1019791 0.1177387 0.9877945 
-0.1561922 0.5204933 0.8394587 
0.3653971 0.927462 0.079367466 
0.51187915 0.8368551 -0.19404472 
0.060192402 0.99259555 0.105503716 
0.7770793 0.6292225 -0.015061088 
-0.044761386 0.34981903 0.9357473 
-0.1766133 0.782976 0.59645337 
0.061477803 0.08306481 0.994646 
-0.121897236 0.73581845 0.6661173 
0.18326543 0.95648295 -0.22705567 
0.6229057 0.68993175 0.3687585 
-0.15605654 0.96814185 0.19582613 
0.045982126 0.89159423 0.45049462 
-0.6136875 0.73440367 0.28989467 
-0.047786232 0.6489281 0.75934774 
-0.5440767 0.4851234 0.6845699 
-0.40303117 -0.03594095 0.91448027 
-0.5592689 0.31676063 0.76608175 
-0.80733144 0.20257476 0.5542377 
-0.0785288 0.32312202 0.9430936 
-0.3461848 0.44610205 0.8253175 
-0.47241828 0.123935305 0.8726174 
-0.18980153 0.8886312 0.41750437 
0.0043436894 0.9999488 -0.009137019 
0.30356053 0.58163625 0.7546856 
0.1809271 0.9116488 0.3690012 
0.039975874 0.98007256 0.19457574 
-0.0672955 0.58485615 0.80834067 
-0.022414124 0.7530781 0.6575493 
-0.06795589 0.74080306 -0.668276 
-0.29139706 0.7094579 -0.6416832 
-0.32789484 0.36364737 -0.87192065 
-0.2488894 0.0022705903 -0.96852934 
-0.5251322 -0.34456798 -0.7781447 
0.90831715 -0.20353466 -0.36542258 
0.9015256 0.16044414 -0.4018822 
0.5233586 -0.83420104 0.17379455 
0.6285435 -0.4675008 0.6215917 
0.77902824 -0.24916813 0.5753523 
0.49547493 -0.09710039 0.86317796 
-0.076942146 -0.07112366 0.9944956 
0.17873232 0.045674235 0.982837 
-0.23978981 -0.4837161 0.8417361 
-0.027100408 0.18361291 0.982625 
-0.34689447 -0.19992737 0.9163478 
0.039375115 -0.033635844 0.9986583 
0.40891132 0.19402611 0.89170927 
0.6356116 -0.6187373 0.4616948 
0.66478133 -0.26328877 0.69910294 
0.1428618 0.38087907 0.91352165 
0.27739102 -0.3670834 0.8878648 
0.74947876 -0.29591006 0.59221524 
0.6766804 -0.030009117 0.7356651 
0.17031038 -0.6469827 0.7432414 
0.011038357 -0.7814344 0.62388974 
0.51192033 -0.5741673 0.63895977 
0.34443238 -0.27226427 0.8984645 
-0.108841375 0.3173204 0.94205165 
0.13251975 0.7477137 0.6506634 
-0.28973123 0.82789195 0.48026112 
0.41193584 0.8970189 -0.16020578 
-0.44424784 0.5993441 -0.66590583 
-0.5506246 0.4029173 -0.7310748 
-0.19845548 0.833718 -0.5152957 
0.7058447 0.28517374 -0.64842826 
0.3111367 0.8458293 -0.4333206 
0.6765508 0.7069253 -0.2062419 
0.869201 0.28247324 0.40583062 
0.940406 -0.07742599 0.33112192 
0.95034426 0.30362463 -0.06824908 
0.93189365 0.35656145 -0.06661955 
0.27127898 0.07716627 0.9594025 
0.53588086 -0.027521078 0.843845 
0.39862046 0.2574852 0.8802291 
0.5000924 0.034180798 0.8652972 
0.3530201 0.14510657 0.9242949 
-0.58126223 -0.07756012 0.81001157 
-0.8710956 0.42665115 0.2432313 
-0.8120326 0.16945186 0.55847055 
-0.76520175 0.54484546 0.34294292 
-0.74436474 0.50782406 -0.43363106 
-0.8701919 0.29971042 -0.39107537 
-0.45613647 0.12358456 -0.88128674 
-0.43133888 0.5353006 -0.7262232 
-0.356113 -0.23207545 -0.9051655 
-0.30221888 0.06557513 -0.95098037 
-0.49890095 0.059995048 -0.86458004 
-0.45348072 -0.0403709 -0.89035136 
-0.07875461 0.3584322 -0.930228 
0.7565881 0.64883757 0.08114462 
0.9447411 0.05831019 -0.3225898 
0.8506611 -0.5184099 0.08733257 
0.8622128 -0.5030224 -0.0596458 
0.84543806 -0.3928687 0.36178562 
0.60982007 0.56401885 0.55677843 
0.34131455 0.9326351 -0.1170309 
0.040226895 0.05353031 0.99775565 
-0.20526335 0.23817524 0.9492837 
-0.92771465 -0.14530368 0.3438496 
-0.39050928 0.7637609 0.51397645 
-0.024321713 0.81410015 0.58021504 
-0.27173463 0.6549257 0.7051473 
-0.9959274 0.021593617 0.087535515 
-0.545664 0.59876853 0.5862825 
-0.21951266 0.9661813 0.135307 
-0.120293744 0.81970775 -0.56000787 
0.31959605 0.8729166 -0.36861217 
0.98390216 0.15898809 0.081604786 
0.13739394 -0.1873187 0.9726432 
0.22066571 0.09081614 0.9711123 
0.5256143 -0.19502944 0.828066 
0.078725964 -0.321519 0.9436249 
-0.25650716 -0.20588775 0.9443592 
0.8403399 0.36981302 0.39631718 
0.39099693 0.38812855 0.8345524 
-0.39144194 0.43783966 0.8093638 
0.1520934 0.9882881 -0.012421719 
-0.7004145 0.69489837 0.16289857 
-0.1636723 0.0746453 0.9836867 
-0.61665064 -0.20952699 0.7588415 
-0.74758345 0.39082634 0.5370045 
-0.6428666 -0.13609351 0.75379115 
-0.21295457 -0.14394256 0.96640104 
0.49867743 -0.044615686 0.8656386 
0.22170337 0.05849071 0.97335833 
0.26617408 -0.067299604 0.9615728 
0.25146815 -0.27314854 0.9285223 
-0.4553056 0.42578757 0.781922 
-0.3839782 0.319443 0.8663239 
-0.65127414 -0.3986126 0.6457167 
-0.51585555 -0.7700907 0.37530437 
-0.6706525 0.22993244 0.705235 
-0.76801413 -0.50870293 0.38907042 
-0.857623 0.49413005 0.14254235 
-0.5791754 0.23388226 0.78093207 
0.04442375 -0.7396156 -0.67156184 
-0.23978524 -0.90015143 -0.3636351 
-0.4927527 -0.6410572 -0.588422 
-0.75119424 -0.31884128 -0.5779686 
-0.31376025 0.5090293 -0.8015259 
-0.27842557 0.4595947 -0.84335756 
0.171106 -0.09887721 -0.9802786 
0.23331887 0.28820086 -0.92871016 
0.8193488 -0.23095731 -0.5247154 
0.85465103 -0.50881577 0.10333618 
0.7102307 0.53875005 0.45312348 
0.80580324 -0.18949048 0.5610478 
0.60751504 0.42117435 0.67345214 
-0.27102172 -0.62808543 0.7294216 
-0.63015616 -0.6259744 0.45941186 
-0.75267303 -0.5507282 -0.3608071 
-0.8948372 -0.25508165 -0.3663328 
-0.95085555 -0.0011382934 -0.30963275 
-0.8828388 0.09848762 -0.45923406 
-0.43987337 -0.89744306 0.033276144 
-0.47704086 -0.76290727 -0.43635392 
-0.23422433 -0.7838326 -0.57510465 
-0.21654923 -0.2718465 -0.9376598 
0.119269155 0.33765036 -0.9336847 
-0.27138463 0.7420601 -0.6129414 
0.40630528 0.30132303 -0.86262417 
0.9016349 0.19552283 -0.38577896 
0.8151537 0.22296089 -0.5346148 
0.9841558 -0.05312191 -0.16916128 
0.8742265 0.4386784 0.20806077 
0.3389171 0.49149933 -0.8022243 
0.8011508 0.5785903 0.15293984 
0.90455973 0.36244726 0.22450759 
0.884018 0.25330544 0.3928722 
0.5304672 0.40004563 0.7473742 
0.2976861 0.5209734 0.7999811 
0.09348087 -0.060721185 0.99376774 
-0.23804295 -0.66209835 0.71060634 
-0.40566707 -0.18185146 0.89574796 
-0.7450382 -0.6458867 0.16657887 
-0.29283786 -0.35513964 0.88776225 
-0.19586131 0.017675912 0.98047227 
-0.33868524 -0.017938204 0.9407287 
-0.6987062 -0.71439254 0.038117778 
-0.32884377 -0.6835362 -0.6516442 
-0.09282348 -0.68938774 -0.7184208 
0.2673698 -0.8943808 -0.3586033 
0.25365967 -0.94229275 -0.21849762 
0.9591226 -0.27264044 0.07583535 
0.77597 -0.13977116 0.6150893 
0.41256776 0.3905312 0.8229661 
-0.14410496 0.5800315 0.8017463 
-0.3673408 0.42663053 0.8264668 
-0.19997273 0.8422708 0.50059044 
-0.67602086 0.67260176 0.30100277 
-0.939687 0.33450302 0.07138661 
-0.3941551 0.84814054 -0.35397652 
0.031934846 0.99156433 -0.12562017 
-0.075216465 0.94534767 -0.31727016 
-0.64609677 0.52937734 -0.54983515 
-0.23383555 -0.04762328 -0.9711092 
-0.18959542 -0.7334823 -0.65273064 
-0.6606074 -0.5267533 -0.5349101 
0.029097965 -0.99944127 -0.016444944 
-0.05936249 -0.860812 -0.5054493 
0.12641113 -0.5292003 -0.8390275 
0.1743407 -0.55764604 -0.8115642 
-0.41146645 -0.7097815 -0.5717566 
0.17383383 -0.37268725 -0.9115295 
0.29754746 0.28109124 -0.91238874 
0.05117843 0.30042985 -0.95242995 
0.3198724 -0.23231353 -0.9185381 
0.8735622 -0.07950801 -0.4801746 
0.8332498 0.22867388 -0.50339174 
0.7024234 0.23711643 0.6711015 
0.8438776 -0.2587022 0.47004664 
0.72784066 -0.29115334 0.6208686 
0.9714717 -0.19608168 0.13339718 
0.04777655 0.7071039 0.70549375 
-0.17869668 0.58013785 0.7946746 
-0.19688387 -0.020112753 0.9802205 
0.7014515 0.6659302 0.25397405 
-0.24969637 0.7529131 0.6089118 
-0.039895013 0.102754526 0.99390644 
-0.35332033 -0.26513997 0.897143 
-0.68026364 -0.15925618 0.7154572 
-0.6742516 -0.05912017 0.7361316 
-0.7018937 0.7006688 -0.12809582 
-0.5490518 -0.11772405 -0.82745594 
0.0975925 -0.07720649 -0.9922273 
-0.3502098 -0.13066445 -0.92751276 
-0.52614826 0.16747044 -0.8337397 
-0.51632214 0.23824881 -0.8225868 
-0.13532428 -0.55883163 -0.8181654 
0.35503814 -0.3337099 -0.8732616 
0.27119303 -0.06618428 -0.96024686 
0.12010216 -0.24986008 -0.96080464 
0.7921439 -0.19609638 -0.57797426 
0.8578827 0.4154282 -0.30241847 
0.98624194 0.030925918 -0.16238992 
0.58205754 -0.7165037 0.38448876 
0.3567009 -0.15681474 0.92096347 
0.21752855 -0.16508602 0.9619917 
0.26668236 -0.32428464 0.9075902 
0.14082815 -0.18681996 0.97224784 
-0.64873123 -0.6827988 0.33605602 
-0.9091453 -0.40021032 -0.1152678 
-0.31526566 -0.84718764 -0.4276455 
0.0928321 -0.9811509 0.16948517 
-0.017454432 -0.12214387 0.992359 
-0.28528214 -0.94979525 0.12846436 
-0.09025056 -0.6319601 0.7697281 
0.028246704 -0.6638049 0.74737227 
-0.21974675 -0.89399654 0.3904888 
-0.12896836 -0.92842007 0.34842992 
-0.43434572 -0.6251962 0.64843935 
-0.13800386 -0.83581585 0.53138214 
0.029362459 -0.5529666 0.832686 
-0.40650207 -0.33164537 0.8513327 
-0.7140322 0.60175055 0.357847 
-0.23467965 0.051657796 0.9706992 
0.061217237 0.7787554 0.62433374 
0.6064692 0.7121329 -0.3536409 
-0.30997843 0.875557 0.37055832 
-0.4295258 0.8014166 -0.41621983 
0.2034622 0.8360849 0.50947547 
-0.25801542 0.6708757 0.6952366 
0.23225254 0.54859775 0.8031808 
0.19391848 0.529019 0.82615656 
0.29357237 0.6655269 0.6862137 
0.2199531 0.97393125 0.055486325 
0.084100485 0.79041255 0.60677445 
0.101905435 0.3513101 0.93069685 
-0.4329914 0.66634315 0.60704637 
-0.4758462 0.12898624 0.8700189 
-0.28214544 0.20024183 0.9382416 
-0.20132904 -0.03753125 0.9788044 
-0.31561425 -0.3777907 0.87043774 
-0.37210587 -0.2482259 0.89438313 
-0.45277795 0.1337397 0.8815361 
0.35190937 0.09384355 0.931318 
-0.00025896725 -0.0033274468 0.99999446 
-0.49293894 0.054886475 0.868331 
-0.27291766 0.14664723 0.95079476 
0.46690533 0.74658966 0.47392336 
0.10602288 0.38004747 0.91887057 
0.69257075 0.26665068 0.6702561 
0.39056495 0.4657801 0.7940454 
0.7489243 0.006374902 0.66262496 
-0.20409806 0.20226954 0.9578262 
-0.8631257 0.4210175 -0.27885175 
-0.29193577 0.93792146 0.18728851 
-0.43449816 0.27826682 -0.85660905 
0.47755525 0.25122914 -0.84191746 
0.36632308 -0.6879829 -0.62648785 
0.5508566 -0.8261166 -0.118694395 
0.33174288 -0.8985607 -0.2872898 
0.49564224 -0.83458966 0.24041386 
0.8655666 -0.4975033 -0.057313856 
0.61626416 -0.757397 0.21579672 
0.6141882 -0.65386647 0.44185013 
0.70132756 -0.6603231 0.26853886 