# OOMMF: rectangular mesh v1.0
# Segment count: 1
# Begin: Segment
# Begin: Header
# Desc: Time (s) :  3.730000000000001e-07
# Title: m
# meshtype: rectangular
# meshunit: m
# xbase: 2e-09
# ybase: 2e-09
# zbase: 5e-10
# xstepsize: 4e-09
# ystepsize: 4e-09
# zstepsize: 1e-09
# xmin: 0
# ymin: 0
# zmin: 0
# xmax: 1.024e-06
# ymax: 1.024e-06
# zmax: 1e-09
# xnodes: 256
# ynodes: 256
# znodes: 1
# ValueRangeMinMag: 1e-08
# ValueRangeMaxMag: 1
# valueunit: 
# valuemultiplier: 1
# End: Header
# Begin: Data Text
-0.29618824 0.28661314 0.9111122 
-0.7509825 -0.036289196 0.65932417 
-0.9758351 0.077903494 -0.20414935 
-0.91167575 -0.14201105 -0.38559094 
0.31771284 -0.48675135 -0.81371474 
-0.094711535 -0.67553633 -0.73121846 
0.11935088 -0.23601407 -0.9643925 
0.22774869 0.028590655 -0.9733002 
0.17930838 -0.26726124 -0.94679457 
0.5839145 -0.68712217 -0.43232748 
0.65351796 -0.7485913 -0.11191691 
0.72013175 -0.13881744 0.67980886 
0.54820853 0.7933263 0.26476574 
0.13332433 -0.25645354 0.9573172 
-0.13237236 -0.25737152 0.95720303 
-0.6101941 0.1256672 0.7822219 
-0.9152016 0.402956 -0.0056956806 
-0.48009917 0.8257888 0.29593515 
-0.52338153 0.8426833 0.12631983 
0.007881645 0.95882756 0.28387973 
-0.29835802 0.8981277 0.32303128 
-0.8351268 -0.14911744 0.52945936 
-0.7636496 -0.64333165 0.054439068 
-0.5748445 -0.6374966 0.5129834 
-0.95223296 0.30088568 0.05215673 
-0.9144928 0.31991193 0.24770828 
-0.79280126 -0.23416351 -0.5627022 
-0.5623505 -0.21292546 -0.79901487 
-0.016825376 0.3617532 -0.93212205 
-0.3423621 0.894585 -0.2872385 
0.4872777 0.8641689 -0.12558939 
0.105474174 0.9590749 -0.26277456 
-0.10971609 0.8467743 -0.5205148 
-0.23922178 0.73628175 -0.63297886 
-0.07060705 0.9951983 -0.067787506 
-0.44360104 0.8630157 -0.24170667 
-0.012321548 0.87329525 -0.48703542 
0.04607428 0.98566484 -0.16230209 
-0.28080118 0.67424065 -0.68304485 
-0.768407 -0.057647247 -0.63735986 
-0.022686986 -0.3482635 -0.93712217 
0.17251948 -0.82158494 -0.54335564 
0.4775428 -0.27295464 -0.835134 
-0.42582515 -0.06817109 -0.90223366 
0.4205147 0.6654976 -0.6166688 
-0.47479227 0.83514965 -0.27766445 
-0.92566264 0.31527236 0.20916966 
-0.81208843 0.44643638 -0.375775 
-0.5669742 -0.16043289 -0.8079614 
-0.8109593 -0.57808316 -0.09036017 
-0.5243436 -0.69148946 -0.49689645 
0.3672221 -0.5057399 -0.78062475 
0.1241196 0.10324053 -0.9868819 
0.11516506 0.109836325 -0.98725533 
0.37950814 0.5991964 -0.7049378 
0.72225523 0.6560676 0.21891278 
0.39300793 0.30776247 -0.8665027 
0.16843837 0.58308685 -0.79475677 
0.17235221 0.88674337 -0.4289301 
-0.20533665 0.97684926 0.06002068 
-0.27265862 0.86733437 -0.41639933 
-0.19325958 0.9004169 -0.3897437 
-0.6237464 0.711119 -0.324423 
-0.7461823 0.45244044 0.48837456 
-0.7956666 -0.6057001 0.006501857 
-0.8333434 -0.25731564 -0.4892111 
-0.7536001 -0.6490743 0.103872485 
-0.5964027 -0.80245066 -0.01940868 
-0.2782059 -0.89605826 0.34594983 
0.12101718 -0.5698415 0.8127949 
0.5907213 -0.65192276 0.47544214 
0.5713062 -0.42987302 0.69915557 
0.18765017 -0.56673855 0.8022436 
-0.12461798 -0.35078087 0.9281289 
-0.6652657 -0.39687487 0.6323859 
-0.33053893 -0.9298157 -0.16182345 
-0.19554207 -0.9071407 0.3726382 
-0.066261485 -0.7503054 -0.6577622 
0.23257461 -0.96594775 0.11337534 
0.9350758 -0.35040376 0.053389437 
0.4788348 -0.72557604 0.4942233 
0.08856718 -0.03870535 0.99531794 
-0.0024493586 0.5552698 0.83166677 
-0.7233907 0.59958214 0.34235558 
-0.75386614 -0.09712052 -0.64981043 
0.5371383 -0.20727651 -0.81763005 
0.28584477 0.5091061 -0.81185204 
0.32966423 0.00384281 -0.9440905 
0.30536878 0.33911157 0.88980526 
-0.5011001 0.6612035 0.5583088 
0.2621227 0.81699216 0.5136299 
0.66528606 -0.17755774 0.7251674 
-0.049905404 0.9572766 0.28483507 
-0.4294518 0.051872607 0.9015988 
-0.8626984 -0.26373062 0.43150643 
0.12554027 -0.63414025 0.7629587 
-0.3277958 -0.89670116 0.29745075 
-0.6084847 -0.56889594 0.55326664 
-0.18129072 -0.9442103 0.27495566 
-0.448101 -0.13121378 0.8843011 
-0.42930952 -0.41322088 0.80308276 
-0.11647857 -0.33279842 0.9357767 
-0.5608104 0.18762343 0.80640507 
-0.5398154 0.21114159 0.81487334 
-0.7452851 -0.65731233 -0.111761995 
-0.036298517 -0.9091968 -0.41478157 
0.7379253 -0.65333587 -0.16917014 
0.85631096 -0.4361654 0.27657074 
-0.17977062 0.19628577 0.96392655 
0.09941385 0.49348843 0.8640521 
-0.6058139 -0.058185734 0.793476 
-0.20030986 0.8774373 -0.43586668 
-0.7993621 0.5850863 -0.13672686 
-0.57312626 0.6443235 0.50633335 
-0.9589608 0.23478627 0.15896468 
-0.96926695 0.025247432 -0.2447127 
-0.58168846 0.113280445 -0.80548495 
0.15520643 0.70992064 -0.6869671 
-0.13811567 -0.5225203 -0.84136593 
0.53581196 -0.41248882 -0.73672146 
0.5751475 -0.6264799 -0.5260497 
0.46575236 -0.74786395 -0.47304785 
0.8481699 0.16130751 -0.50456685 
0.2697449 0.015895108 -0.9628007 
0.6843637 0.0037126113 -0.7291314 
0.5002227 0.24881184 -0.82937926 
-0.08581062 0.63621044 -0.7667287 
0.4140906 -0.29556167 -0.8609136 
0.38506806 0.40886933 -0.8273746 
0.15226981 0.28158078 -0.94737864 
0.57752055 0.81622005 -0.015963312 
0.74943674 0.5839112 0.31207755 
0.2464869 0.74883175 0.6152198 
0.21090232 0.72171974 0.659273 
-0.26679572 0.77906746 0.56733936 
0.5070981 0.83432394 -0.21622986 
0.05082311 0.9970346 -0.057785526 
-0.74930793 0.3307002 0.57373786 
-0.9568496 0.17994148 0.2281665 
-0.87368745 -0.16558096 0.45744193 
-0.7090402 -0.6763998 -0.19936243 
-0.94454414 0.25169158 0.2109214 
-0.74419814 -0.12528627 -0.656104 
-0.115623824 -0.39121363 -0.9130078 
0.18249622 -0.83902055 -0.51258147 
0.65089035 -0.4695654 0.59653175 
0.55840707 -0.5003993 0.6616511 
0.7320894 0.14208251 0.6662265 
0.35634348 0.30243695 0.8840538 
0.7705539 0.15856726 0.6173356 
-0.14374152 0.6884719 0.7108761 
0.56900233 0.6732312 0.4722247 
0.41730028 0.4485505 0.79035634 
-0.25702494 0.63573647 0.7278581 
-0.35723263 0.6515637 0.6692157 
-0.79943293 0.566853 0.1989595 
-0.097167365 0.81184644 0.57572913 
-0.06113012 0.94161785 -0.33108756 
-0.3901125 0.82979864 0.399057 
-0.5717432 0.8125461 0.113483675 
-0.83349574 0.55038196 0.048626892 
-0.11922911 0.28693253 -0.9505021 
-0.7446506 0.14085722 -0.6524222 
-0.36087418 0.4477436 -0.8181049 
-0.8517002 -0.13875456 -0.5053257 
-0.9913029 -0.116930135 -0.060381014 
-0.90121406 -0.17357177 0.39709702 
-0.45175076 -0.3012208 0.8397544 
0.11478718 -0.9197665 -0.37530455 
0.46275935 -0.41878816 -0.781326 
-0.048706114 -0.5294626 -0.846934 
0.056405153 -0.5846745 -0.8093049 
0.052303765 -0.94196033 0.33162475 
-0.8325066 -0.5132856 -0.20849611 
-0.12375602 -0.76464003 -0.63246363 
0.339247 -0.8524736 -0.39774406 
0.54297096 -0.36819872 -0.75472665 
0.7310772 -0.6641124 0.15646385 
0.30346814 -0.64688534 0.69960463 
0.009436346 -0.35884556 0.9333493 
0.015302694 0.28359455 0.9588222 
0.5232307 0.034605745 0.85148823 
0.07227093 0.023343258 0.99711186 
-0.45498732 -0.3307425 0.82679856 
0.036079153 -0.9882304 0.14865714 
0.48257062 -0.66105866 0.57456696 
-0.2952719 -0.946684 0.12885673 
-0.2812476 -0.87577975 -0.39231324 
0.20107268 -0.9790633 -0.031701952 
0.37053838 -0.6175761 -0.6937587 
0.9388609 -0.08371834 -0.33396348 
0.94729775 0.3178409 0.04005329 
0.8580308 0.51310164 -0.022580251 
0.3828818 0.8534099 -0.35368514 
0.07285106 0.90452963 -0.42014152 
0.3758079 0.8973284 -0.23145272 
0.49774605 0.86628157 0.04248702 
-0.07984737 0.65322804 0.7529393 
-0.24207003 0.8816145 0.40516415 
-0.6093506 0.4071422 0.68038744 
-0.84709936 0.5162082 0.1263 
-0.8518152 -0.14602745 -0.50307745 
-0.55352277 0.67576313 -0.48678222 
-0.53928113 0.63536024 -0.5527146 
-0.008707081 -0.3944676 -0.9188686 
-0.34809187 -0.032277774 -0.9369046 
-0.6340937 -0.054018598 -0.77136713 
0.15218909 0.04123373 -0.9874909 
0.44403487 -0.1294568 -0.8866082 
0.24924785 0.26710004 -0.93087757 
-0.23655657 0.06946642 -0.9691313 
0.21379812 0.09162177 -0.97257185 
0.28984246 0.34050822 -0.89445263 
-0.08599794 0.8546691 -0.5120012 
-0.7889592 0.60576224 -0.102934204 
-0.68416053 0.33555904 -0.6475528 
-0.09983122 0.48377898 -0.86947775 
0.16001733 0.5637671 -0.81028455 
0.08028836 0.2440376 -0.9664365 
0.7617689 0.006346106 -0.6478179 
0.04994047 -0.93701524 -0.3457 
0.38454527 -0.6469844 -0.65843457 
0.78053695 0.081583574 -0.6197631 
0.59976757 0.6659323 0.44363612 
0.8582368 0.49309838 -0.1424208 
0.9395352 0.2104501 -0.27015626 
0.16304168 0.41842133 -0.8934994 
0.62439305 0.7036848 0.33905908 
0.21967164 0.846314 0.48528036 
0.025794769 0.85905886 0.5112264 
0.9767069 0.13583836 0.1661075 
0.75141466 0.34665364 0.5614332 
-0.22014736 0.5028391 0.83587563 
-0.1751329 0.9384581 0.2976994 
-0.10615956 0.055469926 0.9928007 
0.28904942 -0.16782042 0.9424897 
0.07423314 0.15732549 0.9847529 
-0.4329438 0.25578427 0.8643692 
-0.20048684 0.7461982 0.63481766 
-0.9740536 -0.041601866 0.22246088 
-0.62580645 -0.7207057 0.29824433 
-0.31627005 0.22831139 0.9207862 
-0.2295425 0.0663583 0.97103393 
-0.70046306 -0.71368855 -0.00054415636 
-0.25706092 -0.39053908 -0.8839677 
-0.6469831 -0.3073149 -0.6978327 
0.26375994 -0.061916817 -0.9625991 
0.053130634 -0.36748394 -0.928511 
0.54500693 -0.47701854 -0.68950766 
0.6180025 -0.55307925 -0.5587275 
0.87755865 -0.46995223 0.095056415 
0.87022424 -0.49036533 -0.047451522 
0.7454152 -0.32191807 0.58371663 
0.56251353 -0.8070598 0.17953552 
0.705381 -0.08476787 0.7037415 
0.09659647 -0.88266146 0.45997596 
-0.4389528 0.89444053 -0.085420124 
-0.58261454 0.52334577 0.62182766 
-0.77285886 0.51615906 0.3691464 
-0.6390463 0.42459658 -0.64135605 
-0.28404024 -0.22001262 -0.9332286 
0.13218343 -0.3480415 -0.9281136 
-0.17918198 0.37969947 -0.90759146 
0.12292124 0.34528697 -0.9304125 
0.5866234 -0.25036445 -0.77018887 
0.51468384 -0.76882225 -0.37949055 
0.51363784 -0.7815981 0.35395 
0.9247029 -0.2810111 0.2568215 
0.7924372 0.22418447 0.5672607 
0.42128107 -0.4412215 0.7923674 
0.51955545 -0.5254402 0.6737765 
-0.04375372 0.48338148 0.87431574 
-0.12312868 0.79745704 0.590679 
-0.13234854 0.8671653 0.48011264 
0.34926748 0.89184994 0.2874299 
-0.14929785 0.72925186 0.66775894 
0.13304253 0.68629295 0.7150536 
-0.5344425 0.010088297 0.84514475 
-0.35867673 0.021297418 0.9332189 
-0.49789554 0.16863994 0.8506824 
-0.7744291 -0.5684105 0.27779344 
-0.6045222 -0.5269549 -0.59738725 
0.2415867 -0.9117112 -0.33229318 
0.035420112 -0.30302462 -0.9523243 
-0.08907443 0.36667547 -0.92607504 
0.42054006 0.30268142 -0.8552953 
0.95772326 0.1459067 -0.24794629 
0.49527827 0.62366146 0.60476923 
0.42580408 0.9042152 -0.03295197 
-0.15139294 0.9883691 -0.014378439 
-0.424591 0.88815594 0.17578863 
-0.17907332 0.96228427 0.20479722 
-0.3058448 0.78425574 -0.53981656 
-0.27732122 0.7003637 -0.6577109 
-0.45760635 0.8853244 -0.08244471 
-0.66671944 0.71301985 -0.2169975 
-0.56959724 -0.08646318 -0.8173635 
0.15352476 -0.29069483 -0.9444187 
0.7313615 0.11851074 -0.6716141 
0.48409498 0.5729934 -0.66130984 
-0.94758505 -0.30875137 -0.08218988 
-0.8558063 -0.12973988 -0.5007627 
-0.46969637 0.299301 -0.83054465 
-0.3767533 0.5503838 -0.74507356 
-0.1441184 0.46098888 -0.8756251 
-0.39249107 0.28430137 -0.87471336 
-0.5313368 -0.3105622 -0.788183 
-0.45197245 -0.48065686 -0.7514585 
-0.7227939 -0.14648809 -0.67535937 
0.6061515 0.16650473 -0.7777253 
0.8357841 0.525492 -0.1591329 
0.03214284 0.8999341 -0.43483943 
0.25824705 0.71652836 -0.6479935 
-0.12320367 0.8312435 -0.54208416 
-0.0036297624 0.99988985 0.01439836 
-0.111531764 0.99375033 -0.004599122 
-0.30746794 0.88072133 0.36026862 
-0.7458886 0.59864676 0.29201418 
-0.9013671 -0.42829117 0.064061746 
-0.9328009 0.23357601 0.27445367 
-0.84094375 -0.4363593 -0.32000658 
-0.18837476 -0.55084455 -0.81307155 
0.01757988 -0.14121334 -0.9898231 
-0.008869584 -0.9169631 -0.3988733 
0.19380607 -0.9038759 -0.38137624 
0.031018427 -0.9572282 0.28766674 
0.49620268 -0.82041204 0.28409007 
0.715139 -0.41944104 0.5591472 
-0.04774748 -0.95307386 0.29894912 
-0.4315599 -0.8997958 0.06421622 
-0.74407923 -0.49476802 0.4489441 
-0.845662 -0.5331137 0.025409605 
-0.3523275 -0.8899639 -0.28953344 
-0.22952299 -0.9046329 -0.35910794 
-0.23913613 -0.94122964 0.23853865 
-0.0076659922 -0.86805725 0.49640515 
-0.43294802 -0.8732673 0.22351854 
-0.38844043 -0.41843927 0.82098883 
-0.28179595 -0.38965723 0.8767886 
-0.64658654 -0.7514395 -0.13139533 
-0.35790092 -0.77637 -0.51880306 
0.22677633 -0.6593135 -0.7168531 
0.9265272 0.11506196 -0.3582014 
0.89277184 0.44661656 -0.05909403 
0.8773843 0.41334417 0.24360496 
0.69103956 0.71192086 0.12503232 
0.49252135 0.4599603 0.7388229 
0.5420271 0.7911604 0.28332302 
-0.021991253 0.7457562 0.66585594 
-0.48390028 0.8715029 0.07951925 
-0.39365312 -0.91627085 -0.07406023 
-0.8194695 -0.53323066 0.21008314 
-0.83769864 -0.5314966 -0.12558885 
-0.7054647 -0.7075377 -0.041351445 
-0.16685823 -0.8744664 0.45548522 
-0.95088017 -0.30626178 0.045063313 
-0.6997694 -0.59665823 -0.3928383 
-0.47763535 -0.8411944 -0.25348887 
-0.6280414 -0.776933 0.044034194 
0.13112392 -0.9892133 -0.065297216 
0.5341456 -0.84493566 0.02779263 
0.35291392 -0.9010745 0.25202477 
0.75179297 -0.6313094 -0.19040972 
0.79120606 -0.2847232 0.54122615 
0.53074706 0.3672645 0.76382226 
-0.27298537 0.7477554 0.60526097 
-0.29155603 -0.0834994 0.95290244 
-0.51379067 0.7248955 0.45885265 
-0.5538272 0.7493179 0.3630402 
-0.5706875 0.78074086 0.2544792 
-0.6454865 0.7114861 0.27773157 
-0.93131155 0.110213235 -0.34714836 
-0.7369208 0.063475356 -0.6729924 
0.06515568 0.68459696 -0.72600406 
-0.24228875 0.2388938 -0.94033295 
0.48170316 -0.44185692 -0.7567858 
-0.10176633 -0.74791986 -0.6559417 
0.33173263 -0.42658138 -0.8414165 
-0.07296855 -0.76963574 -0.6343001 
-0.20745522 -0.57599825 -0.7906886 
0.6849765 -0.26599348 -0.6782734 
0.7598336 -0.13453858 -0.6360443 
0.7871438 0.27638158 -0.5513782 
-0.18948857 0.28208858 -0.94048935 
0.2568632 0.18055971 -0.9494312 
0.37288564 0.56570506 -0.7354822 
0.8617144 0.39199963 -0.32215628 
0.81467867 0.4857204 0.31681898 
0.57019466 0.4666036 0.6761354 
0.89326674 0.44847634 0.030715989 
0.09632428 0.7579449 0.64516765 
0.26268545 0.54504466 0.7961926 
0.37345856 0.7366746 0.5637723 
-0.6069039 0.5626826 0.5612985 
-0.9997732 0.009535756 0.019042192 
-0.940942 -0.19002478 -0.28021201 
0.037619013 0.1524173 -0.9876001 
-0.3405728 -0.93943936 -0.038261767 
-0.8338505 -0.5158651 -0.19640939 
-0.26410764 -0.18938541 -0.9457168 
0.076164715 -0.51737434 -0.85236317 
0.21574222 -0.9333078 0.28703988 
0.27936167 -0.9481961 0.15126544 
0.3514763 -0.63929075 0.68393844 
0.63497573 -0.006371804 0.7725059 
0.6537663 0.30675334 0.6917313 
0.72898024 0.5662637 0.38462114 
0.9028541 0.27989003 0.32636824 
0.44166145 0.5700503 0.69280446 
0.5276495 -0.052159194 0.8478593 
-0.16995892 0.09374306 0.9809823 
-0.24468596 0.42850223 0.8697785 
-0.21261737 0.3679609 0.90520644 
-0.21710137 0.46082917 0.86052525 
-0.8075335 0.08155968 0.58415556 
-0.9421762 0.17786765 0.2840195 
-0.6871929 0.7260412 0.025100742 
-0.6225785 0.26700592 -0.7355976 
-0.32287496 0.64618033 -0.69152206 
-0.75913906 -0.054933105 -0.64860636 
-0.7876889 0.038105655 -0.61489373 
-0.99267095 0.120789714 -0.0037875203 
-0.47625136 -0.08543505 -0.8751489 
-0.4440057 -0.7795408 -0.4417863 
0.6149218 -0.19063318 -0.7651995 
0.26326677 0.21287762 -0.94094306 
0.0547112 -0.023048261 -0.9982362 
-0.19921647 -0.710151 -0.6752766 
-0.32727677 -0.8245766 -0.46147966 
-0.29852796 -0.5330719 -0.79165375 
-0.010573775 -0.2388728 -0.97099334 
-0.0030022599 -0.647718 -0.7618742 
0.42196056 -0.1445387 -0.89501834 
0.45389318 -0.8902403 -0.03812255 
0.10015396 -0.8512678 0.5150849 
0.47143316 -0.5301749 0.7047449 
-0.53298074 -0.8265669 0.18088323 
-0.43074232 -0.26984143 0.8611892 
-0.60255593 -0.23429385 0.7629108 
-0.8620046 -0.5062975 0.024717888 
-0.89215547 -0.21969365 -0.39470667 
0.042832978 -0.9891011 -0.14086983 
0.1559169 -0.9435757 -0.29215544 
0.39673984 -0.7792207 -0.48519352 
0.61501455 -0.36197296 -0.7005232 
0.6381554 -0.30237186 -0.708046 
0.39940393 0.35356483 -0.8458536 
0.56774116 0.80669194 0.16406754 
0.6617565 0.7469955 -0.06384495 
0.71717453 0.67676866 0.16626744 
0.6884883 0.72482854 -0.024648562 
0.2365073 0.75734586 0.6086801 
0.48324436 0.75161374 0.44894522 
0.10805041 0.40535533 0.90775126 
-0.38173005 0.6755714 0.63078177 
-0.2661501 0.8432844 0.46694276 
-0.64014244 0.1990888 0.74201167 
-0.9455624 0.31162742 0.093809694 
-0.76245534 0.24964339 -0.5969424 
-0.3011877 0.23707815 -0.92362326 
0.35220328 0.2371123 -0.9053898 
-0.4258785 0.54951644 -0.7187901 
-0.2803623 0.307981 -0.9091451 
-0.044183474 -0.13344854 -0.9900704 
-0.10256258 0.54839665 -0.82990485 
-0.14478222 0.4533761 -0.87948185 
-0.22087559 0.7064375 -0.67242855 
-0.3418841 0.84590095 -0.4093494 
-0.16012833 0.37477812 -0.9131815 
0.15306075 0.5847705 -0.79662776 
0.7883911 0.31281352 -0.52970487 
-0.08228834 0.8004603 -0.5937105 
-0.16848946 0.15482602 -0.9734682 
0.09372986 0.26609832 -0.9593782 
0.24556339 -0.35538635 -0.90188646 
0.16260523 0.01505874 -0.98657626 
-0.4639113 -0.7742594 -0.4304752 
0.40333903 -0.042794693 -0.9140494 
0.48060858 0.5066365 -0.7157757 
0.8434159 0.31234667 -0.43713745 
0.21776614 0.6755626 -0.7044098 
0.3377752 0.6744179 -0.656558 
0.76309776 0.4535135 -0.46044257 
0.8362893 0.4994202 -0.22627331 
0.15660658 0.7608243 0.62977827 
0.4005447 0.63802946 0.657634 
0.88837326 0.3537161 0.29270777 
0.76794386 0.48426667 0.4192233 
-0.051215366 0.15631965 0.98637784 
-0.55160993 0.06570215 0.8315106 
0.09538919 -0.58569044 0.8049022 
0.31490108 -0.22542745 0.9219652 
0.42280078 0.0033728927 0.90621644 
-0.100815065 0.39124343 0.91474867 
-0.5295375 -0.12202219 0.8394645 
-0.87056124 -0.26391527 0.41529745 
-0.73223835 -0.64625037 0.21491292 
-0.921903 -0.22150561 0.3178526 
-0.9303015 -0.2633447 0.25532082 
-0.4015158 -0.7592356 0.5121975 
-0.8090716 -0.5760606 0.11643696 
0.046300933 -0.2850561 -0.957392 
0.58313817 -0.1417643 -0.79990804 
0.778947 -0.4778198 -0.4061155 
0.87602293 -0.47905424 -0.055595465 
0.7473929 -0.24729572 -0.61664313 
0.66430163 -0.73484653 0.13676256 
0.5103504 -0.81582874 0.27196723 
0.5257101 -0.6562126 0.5413077 
0.773072 -0.019981056 0.6340036 
0.5175068 0.117796525 0.84753215 
-0.17180213 -0.7091033 0.6838543 
-0.91455716 -0.17436503 0.36494118 
-0.85352254 0.4566051 0.25102007 
-0.24995014 0.6460321 -0.7212264 
-0.8582002 0.448718 0.24928848 
-0.82926995 0.5355724 -0.15960428 
-0.41922307 0.40582055 -0.81213415 
-0.4371268 -0.24903885 -0.8642336 
-0.3596269 0.4422027 -0.8216602 
-0.105133094 0.25865218 -0.9602324 
0.27909204 -0.7047804 -0.652221 
0.68914855 -0.71272874 0.13073672 
0.6936466 -0.70084095 -0.16636218 
0.52859724 -0.38280824 0.7576563 
0.6087147 -0.097964935 0.7873178 
0.9268302 -0.33347416 0.17257147 
0.098423935 -0.01378327 0.9950492 
-0.7258459 0.3585087 0.58704287 
-0.239497 0.9651609 0.105383195 
0.205425 0.44624543 0.8710141 
0.14348692 0.6692773 0.7290264 
0.4044416 0.19628966 0.89325106 
0.07335858 0.18811825 0.97940296 
-0.34943184 0.85501057 0.3832158 
-0.8839637 0.20908414 -0.41820094 
-0.7252578 -0.119284235 -0.67806524 
0.04508364 -0.39042416 -0.91953063 
-0.50571334 -0.61169636 -0.60834336 
-0.5447596 -0.59560674 -0.59033006 
-0.021130279 -0.206345 -0.9782511 
0.88293064 -0.4663467 0.054353755 
0.89287645 0.1797722 0.41286036 
0.87791264 0.40678003 -0.25258574 
-0.4618425 0.76932836 0.4414015 
-0.82763624 0.3472001 0.44098786 
-0.3091626 0.28844163 0.90621185 
-0.82438785 0.36056614 0.4363219 
-0.22306135 0.8821378 0.41482115 
-0.13220394 0.9642175 0.22979732 
0.17123793 0.86890626 -0.46441317 
-0.7884599 0.53422874 -0.3048456 
-0.5978292 0.22879064 -0.7682806 
-0.40725178 0.4028146 -0.81968683 
0.19892235 0.2979494 -0.9336253 
-0.39277858 0.90239584 -0.17721951 
0.14536965 0.8441712 -0.51598704 
-0.61084783 0.7297777 -0.30706608 
-0.10659607 0.80099463 -0.5891052 
-0.22059113 0.62210274 -0.75121754 
-0.13751376 0.9628684 -0.23232396 
-0.5827203 0.54189354 -0.60563064 
-0.3205552 -0.1136098 -0.940392 
-0.56439734 0.48411632 -0.66864574 
-0.1534262 0.096093886 -0.98347676 
0.36539975 0.8848018 -0.28915218 
0.44417483 0.74053234 -0.5043021 
0.36324456 0.9294875 -0.064081654 
-0.25234318 0.95496655 0.15608329 
0.27922982 0.9374258 -0.20799927 
0.38936424 0.83320814 -0.39263204 
-0.030726578 0.89733493 -0.44027948 
-0.5755109 0.8023268 0.15830006 
-0.07088073 0.9244842 0.3745732 
-0.4017584 0.8656351 0.29877427 
-0.72061414 -0.04069277 0.6921412 
-0.9583208 -0.28514037 -0.017783422 
-0.8597434 -0.39574176 -0.32284635 
-0.6138468 -0.70361054 -0.35794467 
0.15003419 -0.40360874 -0.9025462 
-0.08915866 -0.282035 -0.95525235 
-0.35926807 0.038611107 -0.9324354 
0.5076745 -0.69930154 -0.50323355 
0.85374784 -0.49473894 0.16232072 
0.09771191 -0.83031446 0.54866236 
-0.5387118 -0.7331185 0.4151229 
-0.37809458 -0.7970746 0.4708679 
-0.78388286 -0.49717322 -0.37194952 
0.3309748 -0.9349742 0.12758942 
-0.33801582 -0.8301136 0.44345993 
-0.33657756 -0.6089642 0.71824664 
0.41356084 -0.681689 0.60354584 
-0.048655882 -0.97787035 0.20347534 
-0.198037 -0.8426883 0.5006572 
-0.40894377 -0.641845 0.648691 
-0.8724727 -0.488478 0.013444563 
-0.6553916 -0.61520636 -0.4381588 
-0.54549116 -0.31046686 -0.77849203 
0.59434116 0.28571936 -0.7517466 
0.71679235 0.63580966 -0.2862776 
0.828423 0.43923733 0.34754255 
0.6230886 0.33290616 0.707767 
0.25612238 0.68729186 0.67972887 
0.11499838 0.53669584 0.8359025 
-0.25404093 0.48236898 0.83832175 
-0.77822214 0.4113735 0.47449148 
-0.9618366 -0.2386996 0.13376458 
-0.8863263 -0.45955992 0.05683575 
-0.84606117 -0.47360912 0.24469337 
-0.6834538 -0.71304774 -0.15637732 
0.30866358 -0.73146063 0.60802317 
-0.8914569 -0.38798627 0.23403287 
-0.69899666 -0.67447406 -0.2376732 
-0.5754542 -0.8176814 -0.015803218 
-0.42565864 -0.90400463 -0.03988018 
-0.16808212 -0.15684421 -0.97321546 
0.35393503 -0.92133296 -0.16085933 
0.7855603 -0.4939252 -0.37273714 
0.42220327 -0.85601175 0.29830912 
0.28581065 -0.1278604 0.9497179 
0.36317876 0.6060527 0.7076732 
0.48738232 0.550185 0.6780523 
0.18641885 0.4886883 0.8523097 
0.15429959 0.9002561 0.4071002 
-0.33932945 0.87701607 -0.3401448 
-0.56969213 0.82175857 0.0127985785 
-0.23117597 0.81892073 0.52528703 
-0.2370563 0.8583597 -0.45499793 
-0.76211363 0.51797354 -0.3884408 
-0.67213595 0.49616554 -0.5495935 
-0.9221862 -0.03886378 -0.38478863 
-0.75483394 -0.046385635 -0.65427387 
-0.97259825 -0.061975624 -0.22407964 
-0.007317178 0.7736608 -0.6335578 
-0.2478882 0.32593137 -0.91231585 
-0.79239863 -0.2052012 -0.57445353 
0.2270814 -0.08030866 -0.9705589 
0.434637 0.60674846 -0.66554266 
0.51564366 0.8246975 -0.23234835 
0.17225133 0.404302 -0.8982591 
0.10507019 -0.0705948 -0.991956 
0.5989976 0.14355545 -0.7877777 
0.7648878 0.45038414 0.46054396 
0.75971705 0.37722096 0.529655 
0.33540645 0.36304775 0.86930937 
0.30139923 0.81012064 0.50285506 
0.43957928 0.8153482 0.3767989 
-0.29889017 0.22368327 0.92770183 
-0.2271291 0.42636812 0.8755699 
-0.97099566 0.23127437 0.060660176 
-0.8118947 -0.547283 -0.2032445 
-0.7574706 0.053447776 -0.6506778 
0.24181388 0.08319126 -0.96674985 
-0.07206652 -0.65652555 -0.75085324 
-0.5943047 -0.090571724 -0.7991238 
-0.20129436 -0.35833248 -0.91163504 
0.60474753 -0.67781925 -0.41814056 
0.6025606 -0.771957 -0.20249258 
0.41512492 -0.90431416 -0.09943522 
0.45678106 -0.7054375 0.5419493 
0.78784734 -0.35022148 0.5065979 
0.3961574 -0.27136686 0.87716556 
0.474376 0.20676982 0.85569495 
0.65588593 0.3603367 0.66330326 
0.8818076 0.23220402 0.41048342 
0.91242373 -0.0682821 0.40351042 
0.9055721 0.19188441 0.37831149 
-0.12817279 -0.6701304 0.73109305 
-0.620588 -0.45478553 0.6387806 
-0.23528278 0.48842618 0.8402868 
-0.44572866 0.83258253 0.32883498 
-0.16761968 0.95145154 0.2581543 
-0.540637 0.8203569 0.18635017 
0.09706876 0.9873535 0.12534252 
-0.24620998 0.85665345 0.4533491 
-0.47266957 0.61818177 -0.6280405 
-0.87002987 -0.1545735 -0.46814013 
-0.91025776 0.17723452 -0.3741908 
-0.59340376 0.41917285 -0.6871435 
-0.44387653 -0.21064071 -0.8709788 
-0.06823001 -0.70113236 -0.7097593 
0.3642369 -0.56308055 -0.74180317 
0.030604178 0.011255355 -0.9994682 
0.007865609 -0.36975285 -0.9290968 
0.2876578 -0.46563724 -0.8369199 
-0.5345548 0.5575535 -0.63512623 
-0.41672108 0.31732455 -0.8518502 
-0.4428457 0.09620543 -0.8914215 
-0.15265143 0.017528303 -0.9881247 
-0.27014378 -0.5759233 -0.77157944 
0.4956546 -0.632614 -0.5950849 
0.03299367 -0.9916665 -0.124535955 
-0.25760928 -0.9266822 0.2736741 
-0.16230473 -0.72876173 0.6652546 
-0.58155936 -0.54563344 0.60338455 
-0.9043002 -0.34619525 0.2497799 
-0.67896426 -0.70413107 0.20786312 
-0.6380719 -0.7696145 0.023618266 
-0.17951901 -0.648933 -0.7393639 
0.5953609 -0.42665014 -0.68081945 
0.8399845 0.22577053 -0.4934103 
0.22675681 0.55616635 -0.7995376 
0.66337925 0.42681912 -0.6146166 
0.7072093 0.5458442 0.44934314 
0.77604514 0.49671605 0.3886222 
0.7127224 0.4505545 0.53761274 
0.6779154 0.21747968 0.7022346 
0.43236268 0.5293712 0.7299512 
0.10491067 0.7144347 0.69179255 
-0.2968891 0.44961607 0.8424384 
-0.702408 -0.20289968 0.68224245 
-0.5596349 0.38394025 0.73443764 
-0.7212001 -0.3142452 0.61734957 
-0.66004384 -0.74352413 0.10730331 
-0.23241861 0.70040464 -0.67484444 
-0.6081556 0.31842417 -0.727154 
0.21742958 0.2622929 -0.94017386 
-0.043280672 -0.07713595 -0.99608076 
-0.49011505 0.28271025 -0.8245375 
-0.33499193 0.57901824 -0.7433158 
-0.049370192 0.8073309 -0.58803004 
-0.54431653 0.83240354 -0.104037724 
-0.69799167 0.3593862 0.6193943 
-0.7440955 0.66194034 0.090315685 
0.20755108 0.9371256 -0.2805676 
0.43959305 0.8363082 -0.3276378 
0.42144892 0.08344865 -0.9030046 
-0.45550287 0.28093198 -0.84474516 
-0.5412459 0.121886894 -0.8319835 
0.5450921 0.17027487 -0.8209026 
0.15960877 -0.20273498 -0.9661385 
-0.2482052 -0.75735104 -0.6039981 
-0.29547468 -0.66742784 -0.68354577 
0.6350791 -0.29832307 -0.71251523 
0.8763755 0.27083066 -0.3982673 
0.60611564 0.6368908 0.47643894 
0.68986285 0.7171887 0.09863892 
0.57914996 0.70928174 -0.40187666 
0.5124239 0.6020057 -0.6123814 
-0.09576354 0.99005353 0.10306953 
0.37732795 0.6208961 0.6871038 
0.45216882 -0.018002111 0.89175075 
0.4239765 0.13158824 0.8960628 
-0.12608632 0.2885346 0.94913125 
-0.3085662 -0.28398553 0.9078212 
-0.73785686 -0.44368073 0.50864017 
-0.7079025 -0.6716382 -0.2185779 
-0.00029057948 -0.67515224 0.7376784 
0.37155232 -0.48794016 0.78985023 
-0.12260333 -0.29193336 0.948548 
-0.5903995 -0.068438426 0.8042044 
-0.78873324 -0.565441 0.24119776 
-0.42946306 -0.8448969 0.31892112 
-0.20070487 -0.91810983 0.34174854 
-0.061160907 -0.99486834 0.08059977 
-0.39163405 -0.79763687 -0.45869192 
-0.3980122 -0.5369495 -0.74382234 
0.032422677 -0.22567332 -0.97366345 
0.4204165 -0.27861187 -0.8634961 
0.3196355 -0.70148855 -0.63698274 
0.49146992 -0.13801472 -0.85988915 
0.6451947 0.2452033 -0.7236016 
0.16861661 -0.10978546 -0.97954875 
0.90874875 -0.18238226 -0.3753832 
0.67717034 -0.34283733 0.65107834 
0.9718594 0.203195 0.11916882 
0.31080583 -0.35600817 0.88128203 
-0.046450615 -0.8636345 0.50197375 
-0.6111723 -0.13724403 0.77950794 
-0.5545075 -0.46792346 0.68816364 
-0.9247554 -0.32515255 0.19774549 
-0.79572964 0.457836 0.39648518 
-0.5938267 0.59541553 -0.54115635 
-0.6976208 0.08717663 -0.7111439 
-0.7885841 -0.13569854 -0.59976745 
-0.042039275 0.3512107 -0.93535227 
0.34531885 0.21184725 -0.9142624 
0.5353612 0.14009874 -0.8329231 
0.9555195 -0.040829387 -0.2920884 
0.9164223 -0.03540689 -0.39864358 
0.9855985 -0.038708262 0.16461249 
0.33044446 0.4234035 0.8435259 
0.675779 0.24518222 0.695132 
0.6988929 0.19007495 0.68950737 
-0.94057226 0.011454731 0.33940047 
-0.93258697 -0.010263885 -0.3607995 
-0.3822439 0.3315853 0.8625201 
-0.416759 0.52451867 0.7424231 
0.5516561 0.45543352 0.6987532 
0.85542876 0.5092752 0.09423639 
-0.15235318 0.83419645 0.53000444 
-0.6535998 0.7517507 -0.08762533 
-0.5765762 0.21117723 -0.7892807 
-0.08233209 -0.120017216 -0.98935205 
-0.14652547 -0.7071228 -0.69174254 
-0.77665704 -0.0428805 -0.6284625 
-0.17483583 0.38452256 -0.9064078 
0.60660946 0.78518116 -0.12456152 
0.9732881 0.21809135 0.071739316 
0.48868918 0.14735053 0.8599248 
-0.04249941 0.27961248 0.95917195 
0.06562511 0.25690725 0.9642054 
-0.10262075 0.11406706 0.98815876 
-0.27687058 0.8028393 0.5280074 
-0.12333417 0.65454626 0.7458941 
-0.07002341 0.86607826 0.49498013 
-0.07070986 0.91822684 0.38969174 
-0.30988926 0.9428014 -0.122858755 
-0.6141816 0.7801833 -0.118722424 
-0.10460691 0.25035006 -0.9624875 
0.110054776 0.5846221 -0.8038066 
-0.23014633 0.9721887 -0.043381397 
0.34527984 0.7269922 -0.59351856 
-0.4512108 0.8420958 -0.29543784 
-0.9793528 -0.16704084 -0.11386635 
-0.94909096 0.061486058 0.30894324 
-0.7687611 0.60118186 -0.21814391 
0.096146576 0.35944209 -0.9282011 
0.16166057 0.5198911 -0.83879626 
0.28314784 0.8090071 -0.51510656 
0.69686145 0.3191375 -0.64228916 
0.716231 0.540228 -0.44177714 
0.5239727 0.82068825 -0.22786702 
0.26417327 0.94003093 0.21576466 
0.71170956 0.6728728 0.20177133 
-0.064068034 0.99793607 0.0043511284 
0.2279359 0.9628736 -0.14463678 
0.13754494 0.78510904 0.6038917 
-0.1810071 0.8716966 0.45539147 
-0.40569827 0.6138442 0.6772032 
0.036346495 0.99804854 0.050774887 
-0.63449514 0.35738787 0.68533933 
-0.99271816 0.09624566 0.07243866 
-0.81956595 -0.49564856 -0.2874792 
-0.62583005 -0.08025597 -0.7758195 
-0.25163078 0.2715083 -0.9289592 
-0.39468738 0.04036579 -0.91792846 
-0.6327011 -0.73622733 -0.24012208 
-0.377434 -0.5857929 -0.71721005 
0.06691081 -0.32079118 -0.9447836 
0.678838 -0.71662956 -0.16006605 
0.62887836 -0.7020001 0.3342275 
0.6189375 -0.779878 0.09330951 
0.40427834 -0.858964 0.31422892 
0.44804716 -0.8291087 0.3344139 
-0.13825022 -0.975703 0.16997243 
-0.16291621 -0.64107543 0.74998707 
-0.3771657 -0.56761515 0.7318191 
0.06255501 -0.9826123 0.17481437 
0.43132886 -0.62372607 0.6518599 
-0.18995567 -0.6609365 0.72600275 
-0.53563356 -0.72349846 0.4354845 
-0.5402276 -0.45452726 -0.70820844 
0.017553756 -0.09751238 -0.9950795 