# OOMMF: rectangular mesh v1.0
# Segment count: 1
# Begin: Segment
# Begin: Header
# Desc: Time (s) :  3.8200000000000016e-07
# Title: m
# meshtype: rectangular
# meshunit: m
# xbase: 2e-09
# ybase: 2e-09
# zbase: 5e-10
# xstepsize: 4e-09
# ystepsize: 4e-09
# zstepsize: 1e-09
# xmin: 0
# ymin: 0
# zmin: 0
# xmax: 1.024e-06
# ymax: 1.024e-06
# zmax: 1e-09
# xnodes: 256
# ynodes: 256
# znodes: 1
# ValueRangeMinMag: 1e-08
# ValueRangeMaxMag: 1
# valueunit: 
# valuemultiplier: 1
# End: Header
# Begin: Data Text
-0.15125182 0.93291646 0.326787 
-0.5980721 0.5928849 0.5392563 
-0.32003522 0.6631282 0.6766376 
-0.6609043 0.6793267 0.31893694 
-0.5548909 0.022667903 0.8316143 
-0.95750254 -0.1363486 0.25416154 
-0.7564378 -0.5295518 -0.3838969 
-0.23445436 -0.85453343 0.46346927 
-0.30768847 -0.9147009 0.26201153 
-0.71292365 -0.69404715 0.10019227 
0.006788037 -0.95034176 0.3111343 
-0.51784533 -0.8254577 0.22462371 
-0.56939423 -0.14799653 -0.808633 
0.18228522 -0.47159073 -0.8627713 
0.13760592 -0.78572756 -0.60307294 
0.014146475 -0.5711425 -0.820729 
0.45801497 0.71873474 -0.5231088 
0.8177184 0.50002337 -0.285155 
0.8415358 0.10588432 0.52972263 
0.83248353 -0.28665954 0.4741282 
0.4149244 -0.51874083 0.747493 
-0.19187623 -0.037436713 0.98070484 
0.5571565 0.7152676 0.42186376 
0.74036497 0.4409761 0.507346 
0.38411203 0.03888549 0.92246735 
0.029012406 0.33515817 0.94171506 
-0.7421909 0.6701823 -0.0029035765 
-0.9788464 -0.10017247 0.17839679 
-0.66362375 0.31302688 -0.6794246 
-0.8026117 0.35103923 -0.48227185 
-0.2927321 -0.11099263 -0.94973075 
-0.6516588 -0.30539733 -0.6943151 
-0.6584832 -0.5097265 -0.55369556 
0.2158601 0.038627528 -0.97565997 
-0.11918483 -0.16092794 -0.9797434 
0.42442447 -0.843494 -0.32921383 
0.72974133 -0.39859438 0.5555179 
0.5245246 -0.5520669 0.6481482 
0.6289044 -0.46720096 0.62145203 
0.6512035 -0.19799548 0.7326199 
0.727483 0.13100131 0.67350376 
-0.4356972 0.47940576 0.7617994 
-0.67842185 0.60147655 0.42186472 
-0.8927883 0.39333087 0.21959054 
0.057472464 0.9939048 0.09407545 
-0.08998183 0.66353565 0.7427138 
-0.46187556 0.84777284 0.2606762 
-0.9362775 -0.17313704 -0.3056274 
-0.19365272 -0.21524195 -0.9571675 
-0.43312162 -0.64064217 -0.6340215 
0.14660454 -0.68391895 -0.71467614 
0.8591633 -0.030735267 0.5107778 
0.6722844 -0.42286322 0.6076351 
0.51946104 -0.83807904 0.16668473 
-0.31661084 -0.71677005 -0.62128764 
0.5582591 0.056223176 -0.82775944 
0.80624515 0.09219744 -0.58435315 
0.8757463 0.120355256 0.46752873 
0.76206326 -0.4883629 0.42516035 
0.9699353 0.037594024 0.24044207 
0.23969041 0.18307652 0.9534314 
0.80747706 0.002852715 0.5898922 
0.98098946 0.10782971 -0.16134621 
0.65447056 -0.1330357 0.74429154 
-0.054975126 -0.42215282 0.9048562 
-0.7509151 -0.499684 0.43179 
-0.618475 -0.61711293 0.48647758 
-0.292178 0.13428035 0.9468901 
-0.95169985 0.07701097 0.29721498 
-0.9396077 0.28235996 0.1934177 
-0.09999895 0.6773242 0.72885674 
-0.7934742 0.45603064 -0.40303206 
-0.35615113 -0.41494277 -0.83724487 
-0.12783712 -0.5027498 -0.85492706 
0.5414728 -0.21805993 -0.8119466 
-0.5976312 0.015694506 -0.80161756 
0.024795717 0.22267124 -0.9745783 
0.9761146 -0.13286783 -0.17189121 
0.45191005 -0.7174594 -0.53012204 
0.8404864 -0.5207563 -0.14965187 
0.24720751 -0.8071316 0.5361222 
-0.05736812 -0.80982995 0.58385307 
0.49632755 -0.6372468 0.5895554 
0.13090394 -0.5107171 0.8497249 
0.31873026 -0.1761433 0.9313349 
0.06902765 0.38366872 0.9208875 
-0.6372341 0.48510426 0.5988377 
-0.9456494 0.1348816 0.29589573 
-0.5714914 -0.8204396 0.016630016 
0.1885625 -0.933024 0.30644837 
-0.59677655 -0.8021352 -0.020902349 
-0.6754556 -0.5801775 0.45514154 
-0.2272661 -0.4637811 0.85630435 
-0.77017766 -0.56446165 0.2970009 
-0.49347213 0.25179955 -0.83251566 
-0.6777223 0.71268207 -0.18104365 
-0.26881376 0.45237422 -0.850351 
0.8932232 0.353369 -0.27799743 
0.88385457 -0.19730727 0.42411187 
0.8084796 -0.15971541 0.5664379 
0.9273 -0.26150477 0.2678246 
0.84247416 0.108456634 0.5277068 
0.23209706 -0.33500904 0.9131812 
0.37269115 -0.17389454 0.91151637 
-0.08717695 0.36425385 0.92721057 
-0.35983157 0.7726536 0.52299875 
-0.53270775 -0.008068851 0.8462608 
0.34017298 0.14967184 0.92837536 
0.10248734 0.053403605 0.9932997 
0.092362925 0.50387967 0.8588215 
-0.4648347 -0.07861551 0.88190037 
-0.74219877 0.4693559 0.47837862 
-0.89492786 -0.021063214 -0.4457136 
-0.7662548 0.49097353 -0.4144859 
-0.9262716 -0.026858967 -0.37589836 
-0.352128 0.09025989 -0.93158954 
-0.66245246 -0.28752896 -0.69172525 
-0.9638665 -0.21600814 -0.15589046 
0.16805838 -0.052380104 -0.9843845 
0.014368254 -0.26266485 -0.96478015 
0.7165962 -0.36982125 -0.59137315 
0.624444 -0.16086178 -0.7643254 
0.60897565 0.42946836 -0.66686255 
0.8537037 0.38921192 -0.34598285 
0.27314606 0.29761204 0.91477776 
0.4583584 0.8539722 0.24625024 
0.8990923 0.3315309 0.28586787 
0.12758052 0.32891944 0.9357005 
-0.28099656 -0.11275079 0.95306253 
-0.23105651 -0.4360163 0.8697716 
-0.44531077 -0.7225713 0.5287619 
-0.7088226 -0.5820436 0.39849207 
-0.24595757 -0.33611083 0.9091394 
-0.75251424 0.16029839 -0.6387698 
-0.94506544 0.3130522 -0.09407333 
-0.53769964 0.5535795 -0.6359473 
-0.74527013 -0.6306503 -0.21645491 
-0.27891174 -0.93045634 -0.23761168 
0.51852006 -0.17978093 -0.8359521 
0.86396825 0.050102778 -0.50104773 
0.27981505 0.75635016 0.59130204 
-0.44982237 0.07696414 0.8897957 
-0.13499665 0.77761227 0.61408067 
0.3620297 0.92028373 0.14836542 
0.41426578 0.8381587 0.35478723 
-0.05375878 0.54482764 0.83682305 
0.06751001 0.8162654 0.5737188 
-0.812161 0.015659867 0.5832232 
-0.8030296 0.5888665 0.091540866 
-0.21925287 0.552519 -0.80414623 
-0.03297448 0.115052775 -0.992812 
-0.71901757 -0.18696684 -0.6693707 
-0.50526255 0.164215 -0.84719735 
0.053664815 -0.84777904 -0.52762765 
0.10260801 -0.19552 -0.9753172 
0.8598 -0.14632796 -0.48921594 
0.63652694 0.5447896 -0.5459284 
0.8042244 0.41466698 -0.4257635 
0.9626179 0.19621363 0.1867272 
0.6128829 0.6998218 0.3669116 
0.29716498 0.80808216 0.508622 
0.1542304 0.7550282 0.63729537 
-0.20601161 -0.07994328 0.9752786 
-0.3361041 -0.20945509 0.91823894 
-0.4406811 -0.86432344 0.2423741 
-0.6567573 -0.29750642 0.69293565 
0.48813018 -0.57094616 -0.6601132 
-0.10985388 -0.94606304 0.3047901 
-0.67123497 -0.7070866 0.2224235 
0.1816752 -0.7778321 0.6016406 
0.013882147 -0.97475046 -0.22286528 
-0.19052151 -0.98103315 0.03571604 
0.20652369 -0.95939124 0.19213676 
-0.32259533 -0.9424588 -0.08777106 
0.912978 -0.27441177 -0.30194288 
0.52719504 -0.01367067 0.8496344 
0.28038117 0.54767114 0.7883164 
-0.12960832 0.7405879 0.6593415 
-0.3959741 0.83214676 0.3882478 
0.047600955 0.8230068 0.56603354 
-0.04070481 0.8803116 -0.47264642 
0.74188644 0.6662338 0.07574366 
0.20352109 0.545317 0.8131473 
-0.87174654 0.48397052 -0.076358765 
-0.63302153 0.45018458 -0.6297758 
-0.3822791 0.6223297 -0.68305814 
0.39461717 0.58200693 -0.71101713 
0.41201058 0.5110352 -0.75438076 
-0.24394925 0.4995925 -0.8312017 
-0.4782979 0.16738026 -0.86209923 
-0.89831966 -0.11722078 -0.42341593 
-0.44825515 -0.89234287 -0.052834507 
-0.11921085 -0.9899908 0.07554495 
-0.4968026 -0.82123697 -0.28063694 
-0.040041916 0.056426246 -0.9976035 
0.041794695 0.18186763 -0.98243445 
0.17785044 0.4778803 -0.8602324 
-0.2391003 0.5732629 -0.7837096 
0.0126926005 0.31503868 -0.948994 
-0.28933352 0.058938816 -0.9554121 
-0.30460522 0.37330276 -0.8762767 
-0.39835477 0.43040034 -0.80998087 
-0.737607 0.6466454 -0.19438522 
-0.7442944 -0.113531426 -0.6581311 
-0.58157814 -0.31963065 -0.7480663 
-0.9758731 0.015876884 -0.21776079 
0.28918388 -0.376813 -0.8799913 
0.01877839 0.18861747 -0.98187107 
0.6061257 0.49761707 -0.62047476 
0.74718165 0.24396707 -0.618223 
0.93093264 -0.12522458 -0.3430499 
0.83089256 -0.08074835 -0.5505427 
0.88321817 0.38909042 -0.2617908 
0.6686838 0.12540148 0.732896 
0.04258233 0.29135558 0.95566666 
0.055216327 0.50413084 0.86186033 
0.034235056 0.29282513 0.95555294 
0.42777961 0.121458106 0.8956856 
0.26497826 -0.6241832 0.7349707 
-0.1985919 -0.09399191 0.97556484 
-0.82428944 0.21794462 0.5225391 
-0.80062336 0.4798933 0.3587545 
-0.06099545 0.40495047 0.91230184 
0.50087637 -0.07823207 0.861976 
-0.7387639 -0.23513496 0.6316166 
-0.44063944 -0.47931683 0.7590076 
0.055354744 -0.2777838 0.9590475 
-0.60055494 0.11202891 0.7916966 
-0.964808 -0.19451578 0.17694385 
-0.68010473 -0.6680283 0.30198646 
-0.45211762 -0.843127 0.29107827 
-0.49024358 -0.804164 -0.33612734 
-0.25856552 -0.29312137 -0.92044765 
0.43454415 0.098860614 -0.89520836 
0.48001865 -0.48472893 -0.73117715 
0.92721605 -0.16143006 -0.33795097 
0.9974108 0.071896754 -0.0016590247 
0.6552562 -0.22818474 0.7201188 
0.17108202 -0.094429776 0.9807212 
0.08697387 -0.10633114 0.99051976 
-0.36406013 0.22723655 0.9032297 
-0.7798773 0.31229913 0.5424582 
-0.7283532 0.109195866 0.67644507 
-0.80780464 0.56856066 0.15553339 
-0.8078718 0.31430894 -0.49855107 
-0.6171899 -0.21792057 -0.75603396 
-0.93440694 -0.10754047 0.33958623 
-0.8100508 0.32032 -0.4911342 
-0.6270625 0.48482338 -0.609704 
-0.11955309 0.08224603 -0.9894154 
-0.3569404 0.19489905 -0.9135688 
-0.41604635 -0.7801996 -0.46711248 
-0.3113983 -0.92136717 -0.23262383 
-0.45472792 -0.072988585 -0.88763463 
-0.49695602 0.05131661 -0.86625713 
0.3094078 0.32457742 -0.8938212 
-0.48249298 0.3086717 0.81970876 
-0.33836773 0.35906634 0.86981535 
-0.4981715 0.35407156 0.79149145 
-0.8769495 -0.32882452 0.35047713 
-0.6384533 -0.67421305 0.37123343 
-0.6070668 -0.76653653 -0.20950352 
-0.36811972 -0.726696 -0.5800007 
0.12702672 -0.8369044 -0.5324052 
0.04144302 -0.99421245 -0.09911737 
-0.56831443 -0.77349603 -0.28057554 
-0.35500124 -0.90220046 -0.24496657 
-0.36738157 -0.9200125 0.1364104 
-0.14759749 -0.2978056 -0.9431473 
0.10452192 -0.5341079 -0.83893025 
0.28099713 -0.42846802 -0.8587524 
0.98522365 0.023905426 -0.16959633 
0.84157425 -0.20178464 0.5010347 
0.67091477 0.12802027 0.7304 
-0.017963005 0.28220013 0.95918745 
0.30077508 -0.18839604 0.93490183 
0.40770742 0.005358717 0.9130969 
0.08792166 0.47087017 0.8778105 
-0.31568873 0.6932676 0.64785856 
0.012730824 0.91776836 0.3969123 
-0.50584227 0.52752817 0.6825231 
-0.76814723 0.6309216 0.10903189 
-0.97934127 -0.17941459 -0.093279906 
-0.9403464 0.10969414 0.32204953 
-0.87916744 0.39917818 0.26023316 
-0.8224188 -0.10680801 -0.558766 
-0.59169537 0.034951515 -0.80540365 
-0.4754434 -0.5695336 -0.6705111 
0.118547715 -0.70625323 -0.6979634 
0.042373132 -0.07202267 -0.9965026 
0.5520079 -0.53817326 -0.6369119 
0.8247641 -0.03414511 -0.5644452 
0.7224524 -0.5484206 0.4210669 
0.69662076 -0.11545741 0.7080884 
0.490762 -0.35276434 0.79668695 
0.43568024 -0.49397376 0.75244445 
-0.04704022 0.28198466 0.9582651 
-0.61409235 0.6392457 0.46287745 
-0.040948648 0.30455494 0.9516142 
-0.31567267 0.30564412 0.89829415 
-0.3137536 0.9313221 0.18492667 
-0.26186624 0.31467283 0.91236347 
-0.8362284 -0.5350964 -0.11997521 
-0.7534331 -0.41409534 -0.51074797 
-0.56520927 0.14834452 -0.8115002 
-0.37784442 -0.7474265 -0.5464314 
0.3250343 -0.33869645 -0.88297087 
0.48466238 -0.78469026 0.38647583 
0.7133679 -0.41445836 0.5650934 
0.59808207 -0.5743482 0.55894715 
0.13981235 -0.040529285 -0.98934823 
0.95228237 0.09540018 -0.28992635 
0.35326505 0.91853386 0.17748044 
0.85984164 0.39777535 -0.32007378 
0.8976638 0.43911588 0.037108336 
0.5365521 0.8418468 0.058360748 
0.88184404 0.3923543 0.26155186 
0.9052196 0.18467379 0.38271815 
0.8532813 0.44911444 0.26496634 
0.6903018 -0.34849215 0.63406366 
-0.2048747 -0.30626482 0.92963874 
-0.9008541 0.049628697 0.43127596 
-0.69017655 -0.3106511 0.65356886 
-0.69685006 0.52955055 0.48371094 
-0.7992403 0.05040293 0.59889436 
-0.63433564 0.63434535 0.4418421 
-0.8491233 0.5279808 -0.015035229 
-0.8437963 0.39181316 -0.36672902 
-0.10278239 -0.7148383 -0.6916951 
-0.6462851 -0.32057935 -0.69249153 
0.022241784 -0.6229818 -0.78192014 
0.013372438 -0.13255288 -0.99108577 
0.17449364 0.26230487 -0.9490776 
0.67770994 -0.67369145 -0.2947017 
0.9160445 -0.20182383 -0.34659716 
0.71791327 -0.5934751 -0.36385143 
0.7365895 -0.19152884 0.6486545 
0.1800712 -0.79154974 0.5839721 
-0.20237342 -0.4853602 0.8505706 
-0.045748077 -0.47253507 0.88012373 
0.31100208 -0.7327388 0.6052865 
0.8338241 -0.22461927 0.5042654 
0.19575231 0.18622348 0.9628094 
-0.654326 -0.58582324 0.47819307 
0.09338269 -0.41404933 0.9054517 
-0.17291078 -0.9769997 0.1247937 
-0.7045814 -0.53147477 -0.47021234 
-0.57602423 -0.6833972 0.44851363 
-0.53067344 -0.8088938 0.25313324 
-0.48154166 -0.75933605 -0.4376374 
-0.67591304 -0.16900867 -0.7173407 
-0.041610837 -0.38278142 -0.92290145 
-0.47449926 0.16542532 -0.86457217 
0.1560345 -0.8582715 0.48890027 
0.8057563 -0.57366055 0.14720865 
0.71797013 -0.6194196 0.3175506 
0.49240097 -0.3551773 0.7946008 
0.79876566 -0.13920961 0.58531547 
-0.22496985 0.07856 0.97119355 
0.6593915 -0.0762155 0.7479266 
-0.23707879 0.73997146 0.6294728 
-0.06523423 0.6904636 0.72041976 
0.96818453 -0.05454945 0.24421935 
0.5921878 0.6723503 0.4441383 
0.832294 -0.2612286 0.4889236 
-0.1926261 -0.23159501 0.95355076 
-0.75233096 -0.09201599 0.65232754 
-0.5931867 0.24802443 0.765907 
-0.56316614 -0.16322578 0.81006247 
-0.9530581 0.29418337 0.07166886 
-0.7645131 -0.42077708 -0.48833027 
0.39084575 -0.03456736 -0.91980696 
-0.013367418 -0.28458646 -0.9585572 
-0.34479088 -0.3353592 -0.87672883 
0.15456374 0.12553126 -0.9799755 
-0.21948978 -0.4126046 -0.8840712 
0.524996 -0.43050733 -0.73419523 
0.73456025 0.64526135 0.20990278 
0.9058925 0.4059306 -0.12074508 
0.46388954 0.60833895 0.6439956 
0.35274008 0.38153207 0.8544049 
0.6055212 0.33749408 0.7207232 
0.1815218 0.46310285 0.86751693 
-0.20024139 0.08445146 0.97610015 
-0.5270723 0.44890463 0.7215813 
0.33190888 -0.18991616 0.92399585 
-0.3406615 -0.8900374 0.3029576 
-0.015370121 -0.31320262 -0.949562 
-0.75175023 -0.6266514 0.20537657 
-0.77761084 -0.20759246 -0.5934869 
-0.8155473 -0.1651466 -0.5546253 
-0.22290502 0.35991788 -0.90596503 
0.2314578 0.27619448 -0.932815 
0.032608468 -0.599067 -0.80003464 
0.35336697 0.11989887 -0.9277695 
0.99170107 0.1283911 0.0066841887 
0.61415076 0.042898573 0.7880219 
0.80340993 0.12437434 0.58229166 
0.082485534 0.31555212 0.9453163 
0.32287523 0.45109382 0.8320253 
-0.35310298 0.63052535 0.691199 
-0.15878332 -0.1653311 0.9733723 
-0.10284593 0.37860337 0.9198273 
-0.5596394 0.3166001 0.7658774 
-0.89529896 0.44532698 -0.0111304 
-0.8669721 0.276891 -0.4143559 
-0.26871115 0.6227868 -0.7347999 
-0.15174298 0.4212272 -0.89417106 
0.4819364 0.5464427 -0.6849363 
0.21792977 0.678231 -0.70179015 
-0.45483774 0.6400211 -0.61927027 
0.1784289 0.7699696 -0.61262554 
0.1455352 0.9493461 -0.2784986 
0.5197028 0.5765371 -0.6304872 
0.85969025 -0.50293016 0.089408234 
0.4239092 -0.45932183 0.7805924 
0.57679355 -0.6982905 0.42391005 
0.32355434 -0.53853667 0.77800447 
-0.23952104 -0.81557304 0.52675456 
-0.41833535 -0.56772816 0.7089995 
-0.53482276 -0.83070207 0.15459217 
-0.65034956 -0.68537337 -0.32758024 
0.17987174 -0.6619525 -0.72764355 
-0.4363524 -0.783218 -0.4429064 
-0.5072756 -0.73386514 0.4517893 
0.27589095 -0.8908184 0.36100793 
0.17812261 -0.9809933 0.076972015 
0.40562662 -0.855481 0.3218993 
0.4835115 -0.86804223 -0.11278023 
0.57224226 -0.58693314 -0.572755 
0.4648967 -0.8850893 0.02208914 
0.81538 -0.057784036 0.57603514 
0.46373513 0.09266076 0.8811151 
0.17447837 0.39543435 0.90176994 
-0.48280314 0.58936733 0.64772475 
-0.068784095 0.49278754 0.86742675 
0.6407431 0.7624873 0.08978649 
0.249609 0.6221892 0.7420081 
-0.23230897 0.79422474 0.56146204 
-0.48276815 0.43734282 0.7587267 
-0.003638361 0.95262307 0.3041318 
0.16332497 0.8282098 -0.536091 
0.21094894 0.54415166 -0.8120342 
-0.52745456 0.78429943 -0.3265979 
-0.41947797 0.61098117 -0.671372 
-0.36819655 -0.11732101 -0.92231613 
-0.015034993 0.018397378 -0.9997178 
0.13169463 -0.43975306 -0.8884108 
-0.54506034 -0.561221 -0.6228485 
-0.08210638 -0.17418234 -0.9812844 
-0.43030372 0.072297625 -0.89978427 
-0.25732654 0.37630337 -0.8900443 
-0.45693532 0.14987251 -0.87678295 
0.2461152 0.5538081 -0.7954395 
0.58267695 0.41785893 -0.69705206 
0.47184968 0.57108384 -0.6717299 
0.16411252 0.8823179 -0.44111496 
-0.35792285 0.72620034 -0.58696187 
0.122048005 0.9225115 -0.36616486 
0.100192584 0.39232644 -0.914353 
-0.12972221 -0.25179684 -0.95904666 
-0.44999662 -0.30629405 -0.8388605 
0.32261965 0.19269748 -0.9267062 
0.10304434 -0.14390358 -0.9842123 
0.40573078 0.41881165 -0.8123913 
-0.352976 0.26631582 -0.8969302 
0.68299276 -0.4747021 -0.5551386 
0.8854482 0.1517943 -0.43924946 
0.94230825 0.2883917 -0.169957 
0.5892693 0.20541163 0.78138834 
0.6308714 0.1539022 0.7604705 
0.24131992 0.53384477 0.8104162 
0.4930474 -0.11914164 0.86180604 
0.1864126 -0.07460197 0.9796351 
0.24926776 -0.33994216 0.90681034 
0.0727712 -0.42540047 0.90207475 
-0.02882676 0.42242602 0.90593886 
-0.2728643 0.21297301 0.9381831 
-0.3200002 0.018198883 0.9472427 
-0.32973412 -0.49273163 0.8052894 
-0.6914735 -0.09638892 0.71594256 
-0.29038578 -0.79868037 0.5270538 
-0.8149421 -0.5747071 -0.074707225 
-0.95420784 -0.04841018 -0.29520133 
-0.8938475 -0.37158474 -0.25092152 
-0.7187043 -0.6576623 0.22570886 
-0.8036147 -0.3357016 -0.49143457 
-0.48613214 -0.35309294 -0.7993754 
-0.27347875 -0.5392996 -0.79647064 
-0.2663889 -0.9194334 -0.28927383 
0.061022975 -0.5705446 -0.81899637 
0.9215629 -0.11446786 -0.37097046 
0.79823667 -0.4862889 0.3554455 
0.8473844 -0.2788023 0.45189497 
0.5145232 0.41913825 0.7480568 
-0.56694585 0.629899 0.530848 
-0.9100906 0.29899278 0.28694674 
-0.7387438 0.13289796 0.660754 
-0.92834496 0.29658288 -0.2240854 
-0.97832143 0.14289497 0.14989407 
-0.9093119 0.015848815 -0.41581336 
-0.4457621 -0.6442265 -0.62150496 
-0.998405 -0.004371652 0.05628841 
-0.73194766 0.38598192 -0.56148976 
-0.7866695 -0.0670765 -0.61371976 
-0.24122046 0.39629114 -0.8858702 
-0.4451767 0.6994273 -0.5591236 
-0.79563737 0.15831505 -0.5847201 
0.040787853 -0.20543061 -0.97782135 
-0.13416517 -0.4734689 -0.87053263 
0.34703523 -0.22841701 -0.90961105 
0.5950287 0.24329564 -0.76599485 
-0.6891532 -0.20182301 0.6959421 
-0.6551337 -0.025572814 0.75508 
-0.40761694 -0.66940564 0.62108344 
-0.46177566 -0.60553575 0.6481433 
-0.5910089 -0.8066641 0.001325821 
0.26145986 -0.96447647 -0.037735183 
-0.23024781 -0.82158834 -0.5215157 
-0.01753878 -0.7942784 -0.60730076 
-0.49459964 -0.81188565 -0.31018215 
-0.51303345 -0.82663965 0.23122223 
-0.64748216 -0.5611145 -0.5156719 
-0.4457507 -0.5954487 -0.6683916 
0.4728358 -0.5563803 -0.6832769 
0.42577472 -0.7444942 -0.51424146 
0.07614135 -0.92254347 -0.37830684 
0.10028993 -0.6353349 -0.76569676 
0.73240346 -0.25346524 0.6319341 
0.9640185 -0.18908368 -0.18685743 
0.9264209 -0.23343392 -0.29538587 
0.83503026 0.1000149 0.54103756 
0.960419 0.13290328 -0.24481024 
0.9652419 0.019256806 0.26064777 
0.48069918 0.6826248 0.5504105 
0.36632136 0.6518326 0.6640203 
-0.36977717 0.6623053 0.65162617 
-0.7578205 0.64842844 -0.07244758 
-0.48064622 0.8517886 0.20841162 
-0.88312143 0.23509063 0.40599146 
-0.8125642 0.17090029 -0.5572547 
-0.9478109 0.124626905 -0.2934668 
-0.62217176 0.5512249 -0.55592585 
-0.32138172 0.8549007 -0.40725726 
-0.21831283 0.21538913 -0.9518125 
-0.4894699 -0.18266593 -0.85267377 
0.54545146 -0.49689388 -0.67496604 
0.87787807 -0.42006052 -0.22995502 
0.32472524 -0.7429669 0.5852809 
-0.25790092 -0.90532064 0.3374638 
0.3248952 -0.73382217 0.59661394 
0.5168688 -0.49929124 0.69538116 
-0.38750115 -0.33785266 0.8577287 
0.0621867 0.31100437 0.9483719 
-0.27923653 0.5720218 0.7712446 
-0.52317667 0.24503556 0.8162375 
-0.34664914 0.5512397 0.75892633 
-0.21915664 -0.6666544 0.71242005 
-0.9090345 -0.31767753 0.26969877 
-0.6727711 -0.63980865 -0.37151587 
-0.91178113 -0.367557 -0.18318577 
-0.5486148 -0.27604514 -0.7891901 
0.2122721 -0.24017248 -0.947237 
0.45982698 -0.664045 -0.58957916 
0.66554844 -0.74470246 0.049635023 
0.74085677 -0.6418866 0.19776978 
0.8964145 -0.3185684 -0.308148 
0.9773846 0.1836539 -0.104836114 
0.8674305 -0.0060989 -0.49752095 
0.8829267 0.31337222 0.34962586 
0.9298691 0.2934649 0.22185975 
0.8426879 0.53040814 -0.09243583 
0.7139788 -0.3943901 0.5785246 
0.61069685 0.36184713 0.704355 
0.86214596 -0.05184809 0.5040002 
0.52273554 -0.4624404 0.71616787 
0.03135469 -0.2125689 0.97664297 
-0.7469517 -0.04173885 0.6635669 
-0.30420136 -0.5230212 0.7961849 
-0.55169255 0.016331227 0.83388776 
-0.4999738 -0.7628501 0.4099828 
-0.3785035 -0.13837837 0.9151976 
-0.89434713 0.2858669 0.3441269 
-0.16010006 0.21031703 -0.9644349 
-0.23537226 0.108701006 -0.9658075 
-0.42311025 0.22818561 -0.8768746 
0.26632163 -0.08184493 -0.9604032 
0.50758153 -0.04772254 -0.8602811 
0.49857575 -0.42053756 -0.75800425 
0.986266 0.10893327 -0.1241488 
0.68392617 -0.37937564 -0.62315255 
0.64631325 -0.6115274 0.4564137 
0.7402953 -0.33693486 0.5817542 
0.61191165 -0.4761796 0.63151973 
-0.19673571 -0.48965925 0.8494286 
-0.3341712 -0.55478036 0.7619373 
-0.2801229 -0.066486135 0.957659 
-0.34838688 -0.71119434 0.61059755 
-0.24190551 -0.47707453 0.8449152 
-0.35831636 -0.24433324 0.9010609 
-0.14110497 -0.52812195 0.83736295 
-0.6539554 -0.5701227 0.49729523 
-0.96411943 -0.13425833 0.22901611 
-0.58519936 -0.63537234 0.50382906 
-0.567991 -0.8017864 -0.18580873 
-0.4751905 -0.7679866 -0.42940733 
0.35134092 -0.6060255 -0.7136474 
0.7701816 0.024426311 -0.6373569 
0.6948819 -0.0025174909 -0.71911955 
0.849144 -0.48035482 -0.21957663 
0.9750079 -0.21980022 0.03236687 
0.5351514 -0.45396608 0.7124099 
0.6074955 0.02085659 0.7940493 
0.48489913 -0.29543036 0.8231608 
-0.020441955 -0.092054 0.99554425 
0.5185056 -0.106815375 0.8483764 
0.27685246 0.111698814 0.9543983 
0.07638177 0.8708852 0.48551497 
0.6793836 0.50919867 0.52835107 
0.69676113 0.30616722 0.64868 
0.4845875 -0.49363282 0.7221507 
-0.08533439 -0.065975 0.99416566 
0.14492227 -0.25310224 0.95652336 
-0.3878277 -0.5737344 0.72140044 
-0.5840778 -0.45411044 0.6727829 
-0.94599426 -0.21109939 0.24603257 
-0.9169356 -0.31282723 -0.24772628 
-0.15728669 0.3509927 -0.92307365 
0.0643908 -0.38977373 -0.9186569 
0.064656764 -0.07309639 -0.9952268 
0.6811083 -0.53618515 -0.49859506 
-0.018448645 -0.9135869 -0.40622494 
0.29924753 -0.51391435 -0.8039546 
0.93665445 0.23927726 -0.25578326 
0.97712123 0.20331392 0.06243049 
0.8268335 0.21510752 0.51968753 
0.2875998 0.3836275 0.8775628 
0.3865413 -0.07770159 0.9189932 
0.3814695 0.14404142 0.91309 
0.12635075 -0.002826477 0.9919817 
-0.5604225 0.45314902 0.6932407 
-0.9228549 -0.06292909 0.3799723 
-0.66204554 -0.6981968 0.27242783 
-0.7647235 -0.3304415 -0.5531785 
-0.77677244 -0.6056204 -0.17276762 
-0.52457666 -0.23988996 -0.81686735 
-0.69625324 -0.17393401 -0.696404 
-0.73383534 0.09271596 -0.67297065 
-0.88815194 0.166785 -0.4282159 
-0.20102568 -0.5845084 -0.78609073 
0.56982654 0.21563616 -0.79296833 
0.6889421 0.36043963 -0.6288419 
0.99039215 0.0031679897 -0.13825183 
0.941987 -0.32389897 -0.088034354 
-0.51645154 0.44414663 0.73212814 
0.4667575 0.039397992 0.88350743 
0.38143745 0.56830144 0.72906727 
-0.154532 0.159202 0.9750768 
-0.14071876 0.4139924 0.8993378 
-0.42592666 0.4802336 0.76678705 
-0.4197984 0.26619685 0.8677031 
-0.748915 0.46772262 -0.46942714 
-0.90145934 0.43243095 -0.019354418 
-0.56967735 0.78936017 -0.22886312 
-0.04092127 0.8956548 -0.4428636 
-0.028184906 0.965367 -0.25936857 
-0.7471369 0.6466448 0.15374367 
-0.7578436 0.64110047 -0.12109213 
-0.51065606 0.41559568 -0.752669 
-0.46856824 0.8292428 -0.30463094 
-0.36490595 -0.22469449 -0.9035242 
-0.060859676 -0.42109424 -0.90497285 
0.15204658 -0.955871 -0.2513816 
-0.20989187 -0.8914746 0.40152043 
-0.437934 -0.8989992 -0.003794803 
-0.32974747 -0.92702645 -0.1785738 
-0.6859992 -0.72461087 -0.0659112 
-0.9190504 -0.13094774 -0.3717515 
-0.93916434 -0.14276756 0.31239054 
-0.5602948 -0.16107275 -0.81248105 
-0.049978875 -0.7186044 -0.6936208 
0.6627143 -0.6072489 -0.43824482 
0.64686435 -0.7346378 -0.20463088 
0.7004135 -0.67198116 -0.24054593 
0.8831161 -0.44432077 0.15061547 
0.8686174 -0.19925857 -0.45365164 
0.65291727 -0.4820186 0.5842578 
0.9612671 -0.04789105 0.27142593 
0.6143113 -0.6568502 0.43722934 
0.04756916 -0.49251914 0.86900073 
-0.2553984 0.347631 0.9021776 
-0.33861098 0.6345635 0.6947459 
-0.066821985 0.77489126 0.62855256 
0.41022277 0.48537096 0.77209616 
0.16518158 0.4731595 0.8653527 
-0.26829448 0.49643642 0.82557195 
-0.076049685 0.9951925 -0.061711073 
-0.06845888 0.9792434 -0.19077699 
0.48413473 0.8031376 -0.3472515 
-0.12883519 0.9905965 0.04604388 
-0.5106596 0.75884986 -0.40419522 
-0.19179304 0.42147973 -0.886324 
-0.3278257 -0.02013156 -0.9445237 
-0.10639121 0.045475792 -0.9932839 
-0.70009696 -0.029949969 -0.7134195 
0.3840547 0.07130844 -0.9205526 
0.11520196 0.1939029 -0.9742331 
0.44336453 0.14908485 -0.8838561 
0.33736086 0.047959853 -0.9401529 
0.19536832 0.039017525 -0.97995347 
0.2887136 0.78649956 -0.5459514 
0.59158456 0.68363637 -0.4273981 
0.50963 0.83523947 -0.20652421 
-0.29834822 0.73024684 -0.6145958 
-0.0843184 0.9255633 -0.36908433 
0.50256664 0.69412494 -0.5153808 
-0.21814096 -0.30516034 -0.9269799 
-0.2546045 0.29652986 -0.92046005 
0.11074926 0.36421096 -0.92470807 
0.61479485 -0.40470263 -0.6769366 
0.25077996 0.21038601 -0.9449059 
0.44043127 -0.097509824 -0.8924753 
0.83795214 0.028846137 -0.5449809 
0.5174345 -0.6553635 -0.5502365 
0.7352568 -0.6391955 0.22544748 
0.97788894 -0.13271591 0.16161601 
0.49734232 -0.32444862 0.8046016 
0.19476767 -0.14076176 0.9706965 
0.053101905 -0.7615276 0.6459534 
0.36478856 -0.24280022 0.89887565 
0.32892945 -0.59615785 0.7323942 
0.27026266 -0.7037884 0.6569932 
0.0034983235 -0.51254755 0.8586517 
-0.79715854 0.45900923 0.39223582 
-0.9062125 0.058160137 0.41880354 
-0.99836487 -0.0422488 0.038505483 
-0.97592366 -0.20975383 -0.05980278 
-0.68602824 -0.7000127 0.19836232 
-0.7612558 -0.64476264 0.06907029 
-0.68873626 -0.7045594 -0.17099242 
-0.3414923 -0.8459106 0.4096564 
-0.8031909 -0.5545754 -0.21755613 
-0.15858401 -0.8629261 -0.4798018 
-0.26536202 -0.9321013 -0.24651584 
-0.56219983 -0.054776955 -0.82518536 
-0.38858217 -0.5722309 -0.7221882 
0.0812074 -0.18329547 -0.97969806 
-0.34974673 0.015519382 -0.93671584 
0.33385676 -0.7691636 -0.5449101 
0.8423788 -0.5114731 0.16968593 
0.79587233 0.18939388 0.57508016 
0.41513923 0.12138871 0.9016232 
-0.46514204 -0.63454384 0.61724955 
-0.547675 -0.28971478 0.7849315 
-0.4386995 -0.12193127 0.8903233 
-0.86332643 -0.030832754 0.5037031 
-0.875099 -0.43083727 -0.22041124 
-0.66501683 -0.39945897 -0.6310192 
-0.6442276 -0.64185435 -0.41592535 
-0.7578253 0.27802706 -0.5902557 
-0.39641866 0.19969222 -0.89608896 
-0.17154509 0.2991604 -0.93865615 
-0.06715879 0.50288826 -0.8617385 
-0.20795462 0.86643016 -0.45393136 
0.4495647 0.23172842 -0.8626666 
0.57080925 -0.17450766 -0.8023241 
0.6087134 0.43246108 -0.6651657 
0.42491132 0.56930256 -0.7038075 
-0.7187604 -0.17907535 0.67180026 
-0.723075 -0.2556136 0.6417355 
-0.81935644 0.2578169 0.51204056 
-0.45876828 -0.72316283 -0.5163015 
0.034087516 -0.9794235 -0.19891626 
0.30727714 -0.7189491 -0.6234525 
0.19538279 -0.84178483 -0.5032135 
-0.10109612 -0.726701 -0.67947423 
0.48364905 -0.73287445 -0.4785172 
0.6182832 -0.6525008 -0.43814218 
0.280548 -0.63298154 -0.72154504 
0.004727972 -0.35219213 -0.93591577 
0.2404399 0.3455932 -0.90705794 
0.41442698 -0.8944851 -0.16777025 
0.8276502 -0.5411116 -0.14897515 
0.8850584 0.39217213 -0.25074452 
0.8792651 0.40517753 -0.25044775 
0.8953217 0.14149791 0.42234752 
0.36436188 0.65703994 -0.65995383 
0.28212252 0.5107114 -0.8121458 
0.77457094 0.25493127 0.578835 
0.6125552 0.108822554 0.7829009 
0.6822376 0.21565151 0.69860315 
0.4848582 0.3767926 0.7892654 
-0.63489914 0.6450319 0.42524934 
0.17594652 0.9672046 -0.1831891 
-0.81090164 0.13605548 -0.5691463 
-0.6015667 -0.009939451 -0.7987608 
-0.5340092 0.011697351 -0.84539783 
-0.71919006 0.2701533 -0.6401428 
-0.6901108 0.45727494 -0.5609338 
-0.7831866 0.40109074 -0.4751264 
-0.9096433 0.23012702 -0.34581897 
-0.046199735 -0.2229528 -0.97373396 
0.20212352 -0.4659074 -0.8614387 
0.94387037 -0.12792814 0.30453774 
0.89836824 -0.4289597 -0.09448906 
0.9435626 -0.32478178 -0.06485744 
-0.010474291 -0.9152435 0.40276507 
0.16397944 -0.7460015 0.6454399 
0.1707657 -0.97608274 0.13454287 
0.066746056 -0.3899293 0.9184226 
0.22614035 -0.20644291 0.9519675 
-0.053318575 -0.45005822 0.891406 
-0.19008878 -0.40564615 0.89404565 
-0.7170328 -0.48608735 0.49958304 
-0.7451887 -0.64381665 -0.1737644 
-0.4207727 -0.8543285 -0.30507892 
-0.08856585 -0.9611855 -0.26130146 
0.024796296 -0.37239048 -0.9277449 
0.1034383 -0.51320046 -0.8520128 
0.23572077 -0.9664832 0.10171564 
0.4041961 -0.81424624 -0.4166879 
0.49702847 -0.8388462 0.22203565 
0.90546876 0.22875133 -0.35749036 
0.82506293 0.18255372 -0.5347387 
0.9854723 0.16738859 0.028729554 
0.71069044 0.122055076 0.69283605 
0.7209211 0.24881963 0.64680874 
0.9093373 0.3807921 0.16763976 
0.6207535 0.20734192 0.7560915 
0.90795666 0.1166336 0.40250647 
0.44481242 -0.041954607 0.89464056 
0.90473384 -0.30944625 0.29274508 
0.7222932 -0.3591449 0.59102243 
0.2315124 -0.149338 0.9613013 
-0.20329665 0.24973445 0.94673294 
-0.8546079 -0.3885996 0.34443533 
-0.9651045 -0.15976733 -0.20747972 
-0.7679484 0.14717165 0.6233746 
-0.7770782 0.37700298 0.5040022 
-0.14595352 0.85422516 -0.49899596 
-0.10063662 0.6803251 -0.7259684 
-0.5699857 0.28052747 -0.7722828 
-0.36403668 -0.3577746 -0.8599271 
-0.36499763 0.30260757 -0.88045746 
-0.34058577 -0.4955664 -0.799009 
0.6792858 -0.41729563 -0.6036847 
0.94309765 -0.17185302 -0.2846637 
0.9352401 -0.34035012 0.097405516 
0.8355514 0.1798235 0.5191508 
0.690053 -0.6312482 0.35405168 
0.18745251 -0.83602643 0.51567566 
-0.3170032 -0.89152724 0.3235557 
0.115779065 -0.7740936 0.622394 
-0.0014045368 -0.76667476 0.64203423 
-0.2592515 -0.8172105 0.5147387 
-0.60320777 -0.31707287 0.7318506 