# OOMMF: rectangular mesh v1.0
# Segment count: 1
# Begin: Segment
# Begin: Header
# Desc: Time (s) :  3.9700000000000023e-07
# Title: m
# meshtype: rectangular
# meshunit: m
# xbase: 2e-09
# ybase: 2e-09
# zbase: 5e-10
# xstepsize: 4e-09
# ystepsize: 4e-09
# zstepsize: 1e-09
# xmin: 0
# ymin: 0
# zmin: 0
# xmax: 1.024e-06
# ymax: 1.024e-06
# zmax: 1e-09
# xnodes: 256
# ynodes: 256
# znodes: 1
# ValueRangeMinMag: 1e-08
# ValueRangeMaxMag: 1
# valueunit: 
# valuemultiplier: 1
# End: Header
# Begin: Data Text
0.45243445 -0.115193866 0.8843265 
-0.36325285 0.15256968 0.91911364 
-0.77154523 -0.08611891 0.6303186 
-0.9073145 -0.02469228 0.41972697 
-0.34038785 0.8678781 0.36183417 
-0.03432662 0.76007175 0.648932 
-0.044490606 0.4249252 0.9041346 
-0.5717846 0.16545078 0.8035474 
-0.4027351 0.8612522 0.30991822 
-0.28104073 0.50671566 0.81501865 
-0.623253 0.6118079 0.48707992 
-0.8186458 0.45375025 0.3520369 
-0.81299347 0.23235387 0.533904 
-0.89877945 0.28542945 0.33275452 
-0.9660076 0.059702832 0.25152558 
-0.646313 -0.64935666 0.40076852 
0.59516466 -0.5687786 -0.56768835 
0.19095333 -0.9538517 0.23174083 
-0.028286964 -0.9042812 -0.42599943 
0.49641007 -0.7454572 -0.4448266 
-0.35539517 -0.7288039 -0.5852685 
-0.7101608 -0.6820959 -0.17440449 
0.078919895 -0.99510384 0.05949939 
0.9349601 -0.02044285 0.3541635 
0.85689723 -0.35123563 0.37730724 
0.6184776 -0.3508413 0.70313287 
0.26980183 -0.031440925 0.9624025 
-0.2408203 0.1327431 0.9614494 
-0.6569503 0.12006527 0.7443122 
-0.43756884 0.29264408 0.8502312 
-0.49676898 0.861854 0.102118805 
-0.7499878 0.6053294 -0.26663604 
0.33430547 -0.6792341 -0.65336126 
0.38615504 0.16585194 -0.9074015 
0.06148382 0.2069319 -0.97642154 
0.2829058 0.092139184 -0.95471185 
-0.42638856 0.38881105 -0.81671214 
-0.035996124 0.80327237 -0.5945232 
-0.18464854 0.69522464 -0.69467086 
0.40008637 0.4406697 0.8035802 
-0.19352625 0.8851956 0.42305613 
-0.7844813 0.21756943 -0.58073467 
-0.94254065 0.24749132 0.22442232 
-0.8748199 -0.48294404 0.038148735 
-0.9639281 -0.17104226 0.20392935 
0.19514276 -0.9593669 0.20380011 
-0.20910203 -0.96745944 -0.14247312 
0.066099204 -0.78128654 -0.62066287 
0.8336696 0.20077667 -0.5144743 
0.7243767 0.6519188 0.22423299 
0.736135 0.46837544 -0.48859987 
0.9751777 0.19752152 -0.10006847 
0.9878785 0.060732733 0.14285573 
0.6213727 -0.52016735 0.58593684 
0.9728775 -0.21156038 -0.09355012 
0.5765117 -0.782092 0.23657209 
0.82754725 -0.044328984 0.55964315 
-0.47070235 0.7052356 0.5301718 
-0.4328712 0.6907311 0.5792349 
-0.4856386 0.41867155 0.76737815 
-0.44658002 0.8915289 -0.07578011 
-0.73865825 0.57947946 -0.34436542 
-0.67747146 0.6428793 -0.35740545 
-0.107115485 -0.24969992 -0.9623806 
-0.061330605 0.14037253 -0.98819745 
-0.017376091 -0.76562566 -0.6430517 
-0.21579373 -0.9658553 -0.14337586 
-0.81394815 -0.26953626 -0.51462483 
-0.19892712 -0.9798423 0.018360343 
-0.39857164 -0.64394534 -0.6530506 
-0.393231 0.27161863 -0.8784035 
0.48268533 0.83524525 0.26340142 
0.14648236 0.98711514 0.064394265 
-0.20918791 0.8574018 0.47021553 
0.0066928184 0.80549973 0.59255844 
0.6707988 0.73954976 0.055634066 
0.5173437 0.7403091 0.42929947 
0.025217254 0.44021934 0.8975362 
-0.01393198 -0.49762014 0.8672832 
-0.7266542 -0.3408644 0.5964774 
-0.40139315 -0.9095485 0.10772733 
-0.84665006 -0.290941 0.44557488 
-0.68498445 -0.18101153 -0.7057132 
-0.7399723 -0.53044933 -0.4135994 
-0.2406488 -0.97060263 0.004330702 
0.09457609 -0.9804803 -0.17237704 
0.1329331 -0.71072376 -0.6907971 
-0.41790742 -0.60748446 -0.6755118 
-0.23000087 -0.96960986 0.08340498 
0.29360938 -0.9031818 -0.31313938 
0.23063703 -0.05404112 -0.971538 
0.039757807 0.060922697 -0.9973504 
0.12746954 -0.32479438 -0.9371553 
0.25024244 -0.25702992 -0.9334422 
0.13866226 0.5525332 -0.82187575 
0.37664562 0.8476813 -0.37359697 
-0.542186 0.7624766 -0.3530777 
-0.91621834 0.30219257 -0.26310387 
-0.5650277 0.81913084 0.098835565 
-0.89169395 0.29070586 -0.34694692 
-0.77028024 0.13759275 -0.62268513 
-0.8750784 -0.032794375 0.48286885 
-0.5529756 -0.19884618 0.8091219 
-0.92433834 -0.32706612 -0.19653589 
-0.8307908 -0.52890253 -0.1733459 
-0.67965424 -0.6999619 -0.21937095 
-0.13135698 0.0561199 -0.9897454 
0.08613883 -0.28368905 -0.9550396 
0.6532396 0.34272346 -0.67514354 
0.13376492 -0.3885006 -0.9116876 
0.6191549 0.29686192 -0.726994 
0.95909584 0.23083036 -0.16386801 
0.94147044 0.27391744 -0.19647576 
0.60845226 0.5544448 -0.5677825 
0.87554073 0.47939888 -0.060044587 
0.6148227 0.50612307 0.60484093 
0.54201007 0.6384228 0.546481 
-0.27986348 0.26252198 0.92344934 
-0.5125464 0.3123711 0.7998253 
-0.8589814 -0.50995237 0.045821976 
-0.99488264 -0.03500079 0.0947814 
-0.950005 0.29727 -0.09550533 
-0.67174953 0.47750652 -0.5663392 
-0.4384224 -0.2771759 -0.85496163 
-0.69264114 -0.47154054 -0.54580015 
0.1124 -0.24745397 -0.96235794 
0.8319456 -0.37629464 -0.40776083 
0.8915799 -0.3035992 0.33602503 
0.8531486 0.3020283 0.4253428 
0.74900377 -0.64608717 0.1468496 
0.98876 -0.10301042 0.108363375 
0.91520333 -0.037464906 -0.40124717 
0.72749984 0.25435165 -0.63721997 
0.5108549 0.42536607 -0.7470549 
0.78028363 0.14458418 -0.6084841 
0.3560916 -0.89427245 -0.27106383 
-0.13929297 -0.527051 -0.8383405 
0.8554662 -0.46927953 -0.21898486 
0.6832345 -0.7259173 0.078961104 
0.15049212 -0.53987443 0.82818335 
0.41646942 -0.47111544 0.7775625 
0.6152469 -0.7820151 0.09961842 
0.4687998 -0.7339725 0.49143785 
-0.1393583 -0.22017103 0.9654554 
-0.8269336 -0.48499823 -0.2845305 
-0.50605744 -0.8299102 -0.23485057 
-0.73097503 -0.43839428 -0.522959 
-0.9205223 -0.35060626 0.17237787 
-0.9088477 0.4100073 0.07674637 
-0.95265126 0.2647679 -0.14951105 
-0.4489174 0.14968872 -0.8809464 
0.11937685 -0.13519831 -0.98360085 
0.79075503 -0.090172574 -0.60545474 
0.837408 0.49956107 -0.22178051 
0.02876306 0.9987792 0.040160015 
0.29141226 0.6099755 -0.7368913 
0.65007836 0.5613608 0.5121254 
0.7576212 -0.27641976 0.5912718 
0.50630206 -0.10887572 0.8554557 
0.30060253 0.07022083 0.95116097 
0.65940773 0.23179322 0.71515965 
0.6724501 0.6157549 0.41067857 
-0.6455048 0.40617707 0.64679503 
-0.6825236 0.6938385 -0.22967306 
-0.55161154 0.8201143 0.15210979 
-0.25600275 0.7989046 0.5442556 
-0.7729304 -0.059414826 -0.63170296 
-0.6096333 0.24471982 -0.75396264 
-0.14828171 0.81167567 -0.56497365 
-0.6661271 -0.7258311 0.17159246 
-0.43700758 -0.8955561 0.08368797 
-0.16794303 -0.9007534 0.40054786 
0.5748707 -0.20281248 0.792711 
0.45589003 0.032810763 0.88943124 
-0.34707 0.80978316 0.47306836 
0.0042225556 0.59754837 0.8018219 
-0.15830243 0.3219635 0.9334238 
-0.2557291 0.5202979 0.8147961 
-0.6229595 0.58000845 0.5248922 
-0.19215925 0.87199783 0.45021626 
0.040274557 0.55251276 0.83253086 
-0.41933823 0.34332076 0.8404084 
-0.27158314 0.8903101 0.36550048 
-0.26524884 -0.367104 0.8915592 
0.4369934 0.418606 0.7961192 
0.32918575 -0.08996042 0.93997014 
-0.2470454 -0.6318433 0.73467183 
0.5670802 -0.22828817 0.7913942 
0.06438313 0.25535044 0.96470255 
-0.7358678 0.5137507 0.44108835 
-0.5435135 -0.10455765 0.832863 
-0.69106233 -0.38023713 0.61469716 
0.007543774 -0.59993374 0.80001414 
-0.35807577 -0.9286802 0.09661713 
0.04263127 -0.9571741 0.28635693 
-0.1672742 -0.62591773 -0.7617391 
0.48986325 -0.35201502 -0.79757094 
0.5705051 -0.039008997 -0.8203672 
0.7335922 0.07441311 -0.6755036 
0.9318956 -0.23547904 -0.27589905 
0.92790276 -0.17142668 0.33107314 
0.75724286 0.5023114 0.41745242 
0.5311399 0.64208156 0.5528307 
0.8848268 -0.083529204 0.45837155 
0.55989134 0.5393088 0.6290213 
0.056655724 0.023175996 0.9981248 
0.26030338 0.96033937 0.09995198 
0.4636484 0.39075917 0.7951964 
0.20568573 -0.6630619 0.7197516 
-0.34085014 0.24432461 0.9078142 
0.49621812 -0.7808896 0.37944606 
0.0065733725 -0.90399504 0.42749244 
0.7001034 -0.5439934 0.4625218 
0.37902507 -0.44783595 0.8098044 
0.4901911 -0.55439955 0.6725727 
0.42824474 -0.49588713 0.75544864 
0.30047482 -0.3740735 0.8773733 
0.3157449 -0.36046514 0.87770736 
0.2393211 0.44999093 0.8603683 
-0.93701196 0.3351984 0.0982377 
-0.86678255 0.21099335 0.45185152 
-0.64540315 -0.28249907 0.7096824 
-0.6371077 -0.24840142 0.729651 
0.24047133 -0.9556437 -0.17005469 
-0.119789265 -0.97647005 -0.17932315 
0.08304879 -0.70816517 0.7011456 
0.74878436 -0.13848445 -0.6481852 
0.9540815 0.13148494 -0.26914763 
0.62175953 0.07749733 -0.7793647 
0.35847247 0.65737987 -0.6628342 
0.39149007 0.1141182 -0.91307867 
0.74252075 0.667242 0.058746446 
0.56291974 0.39764908 0.7245666 
-0.0048733675 -0.18947966 0.98187256 
-0.12909162 0.5835148 0.80177677 
-0.3506586 0.633881 0.6893718 
-0.46529815 -0.15572704 0.8713477 
-0.74849004 0.6107076 0.25845513 
-0.13390149 0.89519167 -0.42509088 
-0.60166913 0.7285145 -0.3275072 
-0.90061116 -0.038507175 -0.43291658 
-0.6446508 0.29843903 -0.70381784 
-0.3832049 0.3138113 -0.8687213 
-0.28133655 0.43674552 -0.85446066 
0.015431264 0.31966296 -0.94740576 
0.62842965 0.56072825 -0.5391291 
0.0016865529 0.48735368 -0.8732031 
0.66919136 0.29366562 -0.6826005 
0.59902877 0.15450287 -0.7856803 
0.7082271 -0.44246343 -0.5501278 
0.9197694 -0.30613622 0.24557078 
0.88620424 -0.2595966 0.38373402 
0.4432288 -0.12863918 0.88713044 
-0.31387466 -0.6931755 0.6488378 
-0.7071982 -0.68245256 0.18474105 
-0.18780091 -0.45634136 0.8697605 
0.8701551 0.38821286 0.30351448 
0.0054963026 0.11351492 0.9935211 
-0.86949927 0.15016566 0.47055435 
-0.8141648 0.2455935 0.5261365 
-0.12110942 0.44810358 0.8857402 
-0.83769995 0.17152373 0.5184963 
-0.63794047 0.18863079 0.7466261 
-0.35199893 0.3113234 0.8827086 
-0.71743345 0.35608324 0.5987437 
-0.8112876 0.5332552 0.23969007 
-0.6269314 0.5439352 0.5577558 
-0.9480635 0.2491968 0.19767849 
-0.98727584 -0.13572894 0.08285015 
-0.9728747 0.17046428 0.15638694 
-0.5889575 -0.19676363 -0.7838452 
0.5394853 -0.61412823 -0.5760227 
0.8448085 -0.5019153 -0.18541759 
0.13280655 -0.95942825 0.24871647 
-0.012285616 -0.99781716 0.06488423 
0.56723344 -0.32157817 -0.75817794 
0.3173549 -0.49156302 -0.8109573 
0.08262215 -0.27391148 -0.95819944 
0.64386624 -0.6744384 -0.36134347 
0.7902268 -0.5761714 0.20873012 
0.9010919 -0.22056124 0.3733446 
0.8545793 0.32914257 0.4016957 
0.60545486 0.046540383 0.79451776 
0.13865177 -0.28872538 0.94731903 
-0.10319085 0.19357221 0.9756442 
-0.6792139 0.12013497 0.7240416 
-0.97044635 0.23184407 -0.0669491 
-0.8556284 0.18225163 -0.48444256 
-0.24170391 -0.33068064 -0.91226614 
0.10084146 0.21862932 -0.9705835 
0.17076838 0.15425493 -0.9731617 
-0.11827434 0.39276996 -0.91199946 
-0.0039816704 0.79064846 -0.61225754 
-0.08751679 0.68858165 -0.71985847 
0.3664384 0.90768605 -0.20452134 
0.09567648 0.92731494 0.3618468 
0.32364798 0.9446465 0.053806145 
-0.6636311 0.71643084 0.21522237 
-0.76621425 0.55292565 -0.3273972 
-0.6726695 -0.28941402 -0.6809959 
-0.62271476 -0.49311554 -0.60750586 
0.3444046 -0.6898282 -0.63680655 
-0.046210963 -0.7952329 -0.6045406 
0.06858555 -0.12134356 -0.99023825 
0.7426698 -0.35264447 -0.56928325 
0.64428353 -0.6059097 -0.4666607 
0.8429872 0.035445765 -0.53676474 
0.7667872 -0.512262 -0.38681388 
0.9609174 -0.21618477 -0.17292148 
0.83890027 -0.5330627 0.10995696 
0.8026693 -0.5857257 -0.11246076 
0.8359728 -0.08848688 -0.5415898 
0.73564386 -0.12269476 0.66616374 
0.36081517 0.055725913 0.930971 
-0.25475273 0.5545646 0.79218644 
-0.6273453 0.54025316 0.56086046 
-0.6781728 0.3440362 0.6494004 
-0.84016645 0.3992035 -0.36709243 
-0.93462247 0.023659717 0.3548537 
-0.46892637 0.15146987 -0.87015235 
-0.51322305 -0.100549 -0.85234505 
0.15968688 -0.8465766 -0.50774825 
-0.48941058 -0.42468137 -0.7616582 
-0.30658376 -0.23186617 -0.9231709 
0.22624327 -0.91814053 -0.3253184 
0.4634344 -0.20126365 -0.86297256 
0.80608404 -0.55970496 -0.19224712 
-0.022095097 0.9871081 0.158523 
0.28839687 0.87913513 0.37940598 
0.2646936 0.88121116 0.39166877 
0.15469187 0.97621185 0.15192373 
0.8958686 0.3300939 0.29741818 
0.5592104 0.25080657 0.79017717 
-0.11093058 0.7969679 0.5937479 
-0.3301904 0.18603568 0.92539996 
-0.56205773 -0.16434355 0.8106061 
-0.6927199 -0.70091784 -0.1698628 
-0.3747966 -0.85577816 -0.35661104 
-0.21092495 -0.88811415 -0.40836743 
-0.3768416 -0.78533757 -0.49115717 
-0.5710728 -0.7367585 -0.36202615 
0.20162801 -0.8232837 -0.5306132 
-0.26109415 -0.56924057 -0.7796121 
0.35297272 -0.6223555 -0.6986301 
0.3479796 -0.75494033 -0.5558556 
0.5145925 -0.79220146 -0.32804188 
0.85704577 0.06983275 -0.5104861 
0.9061338 0.28129068 -0.31590694 
0.30466607 0.94351417 0.13022937 
0.433681 0.798705 -0.4171224 
0.67931753 0.6949541 -0.23572579 
-0.14394076 0.9657545 0.21586895 
-0.7735596 0.6017737 0.19868109 
-0.9499816 0.3119308 -0.015304032 
-0.6536536 0.7160326 0.24501908 
-0.56628126 0.6246209 0.5377494 
-0.8548735 0.41863504 -0.3064899 
-0.967407 0.05316811 -0.24758244 
-0.9677485 -0.24397218 0.06277259 
-0.6137536 -0.42134064 -0.66766655 
-0.2357836 -0.19941036 -0.95112646 
-0.587013 0.28066248 -0.759371 
-0.26430193 0.31256798 -0.91238475 
-0.19366874 -0.30406636 -0.93275726 
0.3564586 -0.042073965 -0.9333633 
-0.4202021 0.19402406 -0.8864451 
0.2317075 0.29335827 -0.9274981 
0.78612626 0.37414467 -0.49195665 
0.97077507 0.21342686 -0.109748214 
0.69940776 0.4348533 -0.5672137 
0.91245705 -0.08562712 0.40011254 
0.9185117 0.3762907 -0.12141449 
-0.07510618 0.39531937 0.91546804 
0.056613408 0.2732406 0.9602784 
0.034515485 0.4311025 0.90164256 
-0.7034232 0.5723613 0.42142436 
-0.9033436 0.35358524 -0.24279165 
-0.8336961 0.24137534 0.49667767 
-0.44794494 0.8772184 -0.17272317 
-0.6160418 0.4803416 -0.6243112 
-0.27501193 -0.21431613 -0.9372497 
0.022883423 0.45527768 -0.89005536 
0.17566697 0.01206486 -0.9843758 
0.4764647 -0.34530452 -0.8085458 
-0.08976814 0.100338295 -0.9908955 
0.41162005 -0.77479035 -0.47986352 
0.35610822 -0.7237361 0.5910948 
0.8093563 -0.0886473 -0.5805894 
0.9331751 0.045523938 -0.35652772 
0.27219146 0.68598205 -0.6747893 
0.495604 0.29060262 -0.8184905 
0.5201546 -0.113058545 -0.846556 
0.82046944 -0.5366024 -0.19720006 
0.6187472 -0.7423225 -0.25711742 
0.68714124 -0.61383146 0.38864896 
0.51067096 -0.71873873 0.47183672 
0.1526358 -0.97645926 0.15241282 
0.5827627 -0.7984893 0.15100524 
0.1709733 -0.81594044 0.55227655 
0.14317253 -0.8005397 0.5819261 
-0.39638615 -0.8336778 0.38452494 
-0.5130885 -0.85740805 -0.039894376 
-0.29110262 -0.6449123 -0.7066452 
-0.5905312 -0.45300928 -0.6678739 
-0.7764864 -0.31286246 -0.5469789 
-0.20924525 -0.262566 -0.9419531 
0.18641919 0.19954325 -0.9619929 
-0.38125995 0.084990084 -0.9205529 
0.8755618 0.2233272 -0.4283883 
0.7296752 0.38296404 -0.5664917 
0.7732052 0.30298382 -0.5570947 
0.60720056 0.7703762 0.19449414 
0.35239574 -0.06764775 0.93340296 
0.8090371 0.101118 0.5789943 
0.45733353 -0.12615062 0.8803023 
0.31848422 -0.35113263 0.8804963 
0.41329104 -0.27156913 0.86916095 
-0.14895199 -0.3418665 0.92786884 
-0.22837812 0.63588345 0.7372216 
-0.43090174 0.66489315 0.6101155 
-0.5525475 0.65440655 0.51618165 
-0.7391182 0.35110217 0.5748318 
-0.9942981 0.009696651 -0.106194496 
-0.87116367 -0.49077955 0.014470992 
-0.9947832 -0.101586126 0.009312603 
-0.55325246 -0.82485026 -0.11633464 
-0.29168034 -0.95611465 -0.027702602 
-0.22837563 -0.9007642 -0.36941642 
-0.56770337 -0.29158187 0.7698656 
0.12920219 -0.43229622 0.89242744 
0.16362943 -0.75384086 0.6363565 
-0.1610519 -0.53734165 0.82784444 
0.27207005 -0.34258416 0.8992297 
0.49107158 0.26158637 0.8309159 
-0.1518648 0.13650548 0.97892976 
-0.25704354 0.07113029 0.9637786 
-0.25129285 0.0376436 0.9671789 
-0.3211655 0.4367513 0.8402982 
-0.101606816 0.69781286 0.70903695 
-0.14203897 -0.80551505 0.57530034 
0.15475455 -0.5932164 0.79002875 
0.3187452 -0.5775423 0.75156265 
-0.09027963 -0.8045324 0.58700705 
-0.15028772 -0.90633696 0.39492673 
-0.24902056 0.1735171 0.95282775 
-0.51682895 0.097300634 0.8505413 
-0.7018401 -0.06050889 0.70976 
-0.5013065 -0.6265795 0.5967327 
-0.5845563 -0.728344 0.35750398 
-0.51284015 -0.852395 -0.10206778 
-0.3437764 -0.9068179 -0.24392425 
0.058897033 -0.7705053 -0.63470685 
0.73468584 0.40008512 -0.5478766 
0.16344891 0.5655186 -0.8083769 
0.7928162 0.11754734 -0.59801775 
0.96585304 0.088795096 -0.24339993 
0.68458927 -0.72730976 -0.04856026 
0.8060911 0.4284543 0.4082204 
0.42633724 0.23952146 0.8722765 
0.3695779 0.7185351 0.58916855 
0.22703868 0.47452962 0.8504558 
-0.022892227 -0.486207 0.8735438 
0.62010884 -0.39935434 0.67526376 
0.3606395 -0.3255613 0.8740418 
0.32831475 -0.47430912 0.81684774 
-0.6904578 -0.7228809 -0.026669608 
-0.26669738 -0.9612338 -0.07001512 
-0.030351184 -0.9990914 -0.02992122 
-0.13389915 -0.863815 -0.48569 
0.4407312 -0.8780917 -0.18630952 
0.34968168 -0.83329576 0.42818317 
0.7622954 -0.6472099 0.005006975 
0.4009544 -0.9159657 0.015574381 
-0.5023545 -0.65797555 0.5609886 
0.5098318 0.6332414 0.5823032 
-0.1779931 0.022576243 0.98377275 
-0.6595726 -0.26244158 0.7043355 
-0.6385554 -0.4720982 0.6077585 
0.1837761 -0.84757113 0.4978449 
0.33390212 -0.93961763 0.07502023 
0.5586585 -0.82867056 0.034724567 
0.53949374 -0.707716 -0.45616305 
-0.49043158 0.10322104 -0.8653452 
-0.045873113 -0.25068197 -0.96698207 
0.38038328 0.051178727 -0.9234118 
0.5056591 0.11858142 -0.85454506 
0.64030284 -0.4821462 -0.5979527 
0.95214874 0.21944052 0.2127411 
0.6803725 0.30533886 0.6662293 
0.29928732 0.28184333 0.91158736 
-0.1613356 0.46941465 0.8681133 
-0.44473743 0.19812919 0.87347215 
-0.7775351 0.24232005 0.5802759 
-0.7269588 0.67489064 0.12670293 
-0.50309277 0.8461655 -0.17578879 
-0.61264217 0.7719331 -0.16967279 
0.11780389 0.5920937 -0.7972123 
-0.1314434 0.938427 0.31949583 
-0.46605915 0.7562683 -0.4591809 
-0.5893077 0.3549448 -0.72576207 
-0.078843154 0.09280621 -0.99255776 
-0.011325969 0.14917485 -0.98874605 
0.6695114 0.57853115 -0.46589297 
0.34181964 0.41620174 -0.8425767 
0.21496107 0.41567057 -0.8837476 
0.7249969 0.34143603 -0.59816474 
0.99630326 -0.06893967 -0.051255744 
0.8638033 -0.48740265 0.12760259 
0.48618805 -0.62680095 0.60888577 
0.032756876 0.19874689 0.9795033 
0.010235909 -0.6953005 0.7186463 
-0.022348234 -0.78264123 0.6220719 
0.94679767 0.28319597 0.15288626 
0.022119416 0.6314436 0.7751062 
-0.2982907 0.49183404 0.81799877 
-0.82126254 0.53703165 0.19267792 
-0.16615538 0.68761677 0.7068066 
-0.393395 0.725373 0.56486666 
-0.19366354 0.08637041 0.9772588 
-0.40270513 -0.050003614 0.91396296 
0.117523864 0.8261838 0.551007 
-0.47506472 0.85958016 0.18824291 
-0.83365864 0.16316217 0.52762806 
-0.5563583 0.70072263 0.44660193 
-0.8601832 0.028615626 0.50918174 
-0.9354047 -0.35325417 -0.015151904 
-0.9304277 -0.16919439 -0.32508084 
-0.25151604 -0.7769831 -0.5770936 
-0.06684345 -0.980161 0.18659173 
0.22785921 -0.9649462 -0.13022698 
-0.15913782 -0.7977476 -0.58161336 
0.18424816 -0.29724154 -0.9368565 
0.29865187 0.09046274 -0.950065 
0.33739436 -0.22670305 -0.9136579 
0.8331374 -0.081105605 -0.5470868 
0.7686248 -0.5948351 -0.23534507 
0.74129117 -0.5380592 0.40122297 
0.50167805 -0.63952065 0.5825226 
0.5468602 -0.6165445 0.566407 
0.49937117 -0.057235014 0.86449564 
0.26627725 0.09690407 0.95901304 
-0.112569086 0.58408463 0.8038492 
-0.75479454 0.648155 -0.10089832 
-0.86279434 0.46569607 -0.19675672 
-0.7676243 -0.097299606 -0.63347125 
-0.16342418 0.34114128 -0.9256971 
0.77121955 0.16094272 -0.61588806 
-0.28586048 0.8804255 -0.3783315 
0.10442403 0.8111092 -0.57549757 
-0.5350254 0.84067166 0.08378017 
-0.43543005 0.7410914 0.5110619 
-0.15631482 0.84990704 0.50321347 
-0.25937307 0.83117664 -0.49180382 
-0.763634 0.6454849 0.014574279 
-0.80507123 0.58888304 -0.07125329 
-0.21946158 0.03433739 -0.9750168 
-0.04455066 -0.054667193 -0.99751025 
-0.14605257 -0.13410085 -0.9801457 
-0.2165558 -0.6096626 -0.7625059 
0.100017555 0.02850575 -0.9945773 
0.50387484 -0.23361921 -0.83158416 
0.48902842 0.09481042 -0.86709994 
0.8194355 -0.04248747 -0.5715947 
0.6757785 -0.71487343 0.17966507 
0.8457151 -0.5297272 -0.0644604 
0.5930242 -0.41109076 -0.6923343 
0.7309529 -0.6820438 0.02289599 
0.9336356 -0.3501417 0.07566614 
0.6095936 0.5737302 0.5470187 
-0.052564424 0.47463027 0.8786143 
0.060351085 0.6815802 0.72925043 
-0.047223225 0.5907855 0.8054456 
-0.634592 0.7634323 0.12026717 
-0.8114732 0.47568554 -0.33946246 
-0.9466187 0.32219246 0.0102487635 
-0.9850319 0.17179172 0.014136214 
-0.8638199 0.28419688 0.41598976 
-0.8699096 -0.4650983 -0.16413687 
-0.49007955 0.1267474 -0.8624136 
0.6781446 -0.7201243 -0.14676829 
0.45148444 -0.5348032 -0.714246 
0.37973905 -0.6232674 -0.68361986 
0.629232 -0.037076693 -0.77633274 
0.97196007 -0.1595183 -0.1727644 
0.5905646 -0.25628114 0.7652147 
0.80463254 0.37150028 0.46319994 
0.52486604 0.4404651 0.72835857 
0.72681576 -0.27938306 0.6274425 
0.6894098 0.061488494 0.7217572 
-0.47248742 0.5925129 0.6524448 
-0.4601998 0.04932037 0.88644445 
-0.5287638 -0.69711494 0.4841897 
-0.67169875 -0.6424773 0.3688413 
0.09145413 -0.8067582 0.58376133 
-0.813356 -0.2503426 -0.52514815 
-0.8886304 -0.29302183 -0.35280916 
-0.8658505 -0.30648273 -0.39543796 
-0.48619646 -0.8084389 -0.3317223 
0.26279047 -0.6160155 -0.7426077 
0.68173915 -0.68797165 -0.24885105 
0.045256592 -0.9987443 -0.021490421 
0.36763957 -0.7794654 -0.5072228 
0.85515904 -0.45920444 -0.24048777 
0.9454434 0.11491834 0.30484542 
0.7487319 0.3109343 0.58542335 
0.5358557 0.8363064 -0.115976036 
0.21795566 0.5239846 0.8233685 
-0.37557977 0.25839117 0.89004153 
-0.7011282 0.23765893 0.672263 
-0.95109034 0.004034191 0.3088865 
-0.7749732 0.59064555 -0.22484331 
-0.20677993 0.96535563 -0.15915588 
-0.91003066 0.32416356 0.25838402 
-0.845925 -0.44662035 0.29144678 
-0.9568309 -0.21639428 -0.1940318 
-0.28443527 -0.19455066 -0.9387474 
-0.056600295 -0.17511514 -0.9829197 
-0.5558597 0.09132806 -0.82624406 
0.013431571 0.40109167 -0.9159395 
0.34555516 0.8710289 -0.34914216 
0.0031964285 0.5633206 -0.8262324 
0.37889874 0.3827488 -0.8425789 
0.5687731 0.5814689 -0.581714 
0.054800216 0.9096425 -0.4117616 
0.51063 0.8535575 -0.10342431 
0.80163383 0.3553336 -0.4807506 
0.64544594 0.6572151 -0.3891887 
0.92990816 0.313265 -0.1927067 
0.1984599 0.011850634 0.9800374 
-0.630174 -0.2536373 0.73385894 
-0.5196412 0.17833683 0.83556503 
-0.71116954 0.29493448 0.6381626 
-0.97128445 0.23747613 0.014550611 
-0.6322787 0.53876406 -0.5567379 
-0.942349 0.18574381 -0.27834824 
-0.8091171 0.43556517 -0.39447767 
-0.5875657 0.55923414 -0.58482796 
-0.05441973 0.11956836 -0.99133337 
0.23851506 -0.6019346 -0.7620928 
-0.1388085 0.52094483 -0.8422285 
0.49976116 0.12108609 -0.85765785 
0.6990154 -0.31426448 -0.64235157 
0.8833809 -0.36224797 0.29734606 
0.95736337 0.28306752 0.05769072 
0.8253444 0.4892081 -0.28192565 
0.31214297 0.2788707 -0.9081839 
0.37730837 0.5735831 -0.72707695 
0.13601238 0.43326527 -0.8909444 
0.04077476 -0.94570374 -0.32246232 
0.9924813 -0.1097578 -0.054167736 
0.14345157 -0.7772571 0.6126116 
-0.72080755 -0.5901128 0.3635979 
-0.03820397 -0.5232098 -0.8513472 
0.67198855 -0.6198595 0.40522292 
-0.24723731 -0.4963291 0.83218455 
-0.34189108 0.11953326 0.9321064 
-0.7900263 -0.5879749 -0.17361988 
-0.7793003 -0.23002373 -0.5829068 
-0.40978003 -0.3675533 -0.8348562 
-0.5509556 -0.0039212685 -0.8345254 
-0.36354685 0.20976642 -0.90765184 
-0.90448487 -0.17923743 -0.38701564 
-0.6800449 0.19628662 -0.7064068 
-0.21489038 -0.24123394 -0.9463764 
0.59793746 0.26940963 -0.7549101 
0.8590343 0.50751823 0.06697299 
0.9861784 -0.16033228 -0.04178108 
0.9891032 0.12459953 -0.078420885 
0.5933881 -0.3152257 0.74062365 
0.5286777 -0.7413876 0.41333327 
0.04292975 -0.66802204 0.74290216 
0.6772744 -0.21213056 0.70448565 
0.7305114 -0.25371933 0.6340186 
0.39151827 0.08512258 0.9162246 
-0.027728405 0.61024135 0.7917302 
-0.5506092 0.271454 0.7893937 
-0.8015359 0.35746023 0.4793354 
-0.9878463 -0.0681276 0.13970794 
-0.75687057 -0.20866439 0.6193596 
-0.4619021 -0.3126058 0.83001447 
-0.5323464 -0.5964807 0.60068136 
-0.7069705 -0.7061517 -0.039273873 
-0.74691546 -0.5060586 -0.4313027 
-0.32976574 -0.93703324 -0.11499342 
-0.22410643 -0.9739135 0.035621777 
0.13759802 -0.8598751 0.4916113 
0.35093284 -0.9174511 0.1874295 
-0.071853586 -0.7049401 0.7056179 
0.13570091 -0.63070166 0.7640685 
-0.028867632 -0.5879353 0.80839276 
-0.46684504 -0.37601903 0.8004159 
0.14747298 -0.32309318 0.93480617 
0.110589415 -0.4882669 0.865659 
0.2630614 -0.4284048 0.8644467 
-0.7950077 0.24073723 0.55678403 
0.08567814 -0.34853694 0.93337095 
0.13991432 -0.26582327 0.95381445 
0.44700012 -0.87275004 0.19621004 
0.66200894 -0.5435892 0.5159991 
0.29821843 -0.70680827 0.6414733 
-0.3241139 -0.5189294 0.7909883 
-0.49271762 -0.64874244 0.57996786 
-0.86722404 0.43216443 0.2472986 
-0.82584554 0.52575 -0.20387803 
-0.01372113 -0.99600583 -0.088228084 
-0.13938734 -0.9647505 0.22322121 
-0.50657165 -0.82752526 0.24204804 
-0.4670485 -0.8840615 -0.017346906 
0.531442 0.0045232833 -0.84708256 
0.43860283 0.7219039 -0.5352405 
0.8145327 0.001111517 -0.58011657 
0.8045798 -0.3819921 -0.45467946 
0.92642814 -0.35762018 -0.117638774 
0.7684179 -0.40261376 0.49742964 
0.7439849 0.4244882 0.51603913 
-0.15001014 0.44594923 0.88239807 
0.13879162 -0.14127694 0.9801927 
-0.25996956 -0.9053722 0.3357337 
-0.056644417 -0.85442007 0.51648605 
-0.4237226 -0.85822403 0.28967366 
-0.16952279 -0.9767654 -0.13111646 
0.041846424 -0.99410087 0.10006225 
0.022752887 -0.92897016 -0.3694547 
0.07895372 -0.99613833 -0.03840401 
0.1040582 -0.9540939 -0.28084996 
0.5049098 -0.35413614 -0.7871809 
0.3664747 -0.7916197 0.4889117 
0.4855716 -0.7232977 0.4909793 
0.5373695 -0.5299725 0.65602076 
-0.42674905 -0.6813633 0.59466743 
0.15271513 -0.57284766 0.80530965 
0.46915308 -0.4007172 0.78696954 
-0.30001155 -0.62744904 0.7185408 
0.14105745 -0.95137554 -0.27383825 
0.22989202 -0.78967893 -0.5688207 
-0.34580728 -0.3575715 -0.8675021 
0.3014841 -0.77209085 -0.559449 
0.5410476 -0.8041089 0.24632588 
0.2882662 -0.94307315 0.16587874 
-0.44082183 -0.78579444 -0.4338241 
0.2374839 -0.5300434 -0.81403655 
0.644121 -0.47784862 -0.5973013 
0.5369449 0.14906509 -0.83034325 
0.70898557 0.23223826 0.66588664 
0.8481358 -0.086325824 0.52269834 
0.44727322 0.13479492 0.8841815 
-0.06153147 0.20402104 0.9770309 
0.080216415 -0.110903524 0.99058867 
-0.75519854 0.23450738 0.6121123 
-0.8859828 0.2878533 0.3635589 
-0.47550333 0.8475524 -0.23569348 
-0.3580439 0.88532424 -0.29665726 
-0.7267975 0.6120794 -0.31164765 
-0.58853835 0.4528763 -0.6697206 
0.33275044 0.19986223 -0.92159224 
-0.26928008 0.86175954 -0.42995203 
-0.33492675 0.3980935 -0.85401744 
0.20039336 0.45354015 -0.8684145 
0.72073954 0.19587706 -0.66495615 
0.4757602 0.10599089 -0.8731657 
0.4429575 0.3907645 -0.8069026 
0.99768066 0.067952 -0.0039787246 
0.91331726 -0.3784479 -0.15042911 
0.86519957 -0.16682808 0.47286168 
0.6397888 -0.74099475 0.20395353 
0.037778877 -0.23576055 0.9710766 
0.18262555 -0.5462538 0.81746846 
-0.009182933 -0.9947047 0.10236326 
0.39358833 0.6818303 0.6166001 
-0.23801391 0.36904678 0.89841753 
0.11049553 0.1821949 0.97703415 
-0.87946934 0.023700975 0.47536522 
-0.097914614 0.1182457 0.9881451 
0.15905859 0.41633677 0.8951895 
0.62062246 0.20155284 0.7577626 
0.1196349 -0.11247092 0.9864268 
-0.3550512 -0.07507787 0.93182725 
-0.396648 -0.20822164 0.8940437 
0.024591941 -0.6322141 0.77440345 
-0.64856666 -0.46576062 0.60202026 
-0.6697476 -0.6219026 -0.40580228 
-0.985683 0.006217784 0.16849445 
-0.4885437 0.034603428 -0.871853 
0.25025696 -0.44417807 -0.86027753 
0.3330209 -0.2384878 -0.91226125 
0.19940314 -0.36386725 -0.90985656 
-0.1250375 -0.16069858 -0.9790514 
0.19189835 0.03210831 -0.9808895 
0.09235405 0.2607466 -0.96097964 
0.6629291 0.3679462 -0.65202814 
0.85011995 -0.15185422 -0.5042185 
0.73423636 0.6730532 0.08886176 
0.5826447 -0.7862872 0.2056152 
0.73190296 0.037417397 0.68038076 
0.44755846 -0.7529827 0.4823988 
-0.19815196 -0.5064658 0.8391831 
-0.66587466 0.11603707 0.7369846 
-0.49297374 0.15644492 0.8558632 
-0.80390894 0.5642536 0.18801127 
-0.9182828 0.357376 0.170409 
-0.99536794 0.05788876 0.076756604 
-0.60362405 0.3773987 -0.702288 
0.008045758 -0.15353522 -0.9881105 
0.5440885 0.3923064 -0.7416627 
-0.022864494 0.96284163 0.26909703 
-0.4147894 0.5731676 0.70670265 
-0.6006454 0.46161443 0.652792 
-0.6937552 0.57416296 0.4347881 
-0.4461723 0.78580225 -0.42830503 
-0.686987 0.668506 -0.28486615 
-0.9505493 0.29122135 0.107917786 
-0.68292314 0.33119878 -0.651094 
-0.3553103 0.22260368 -0.90785587 
0.3344579 -0.021184428 -0.9421725 
0.011617328 -0.12935458 -0.99153036 
0.3725921 -0.72242945 -0.5824696 
0.27538192 -0.61252016 -0.74093455 
0.7116045 -0.45614806 -0.5343671 
0.010761924 -0.95951027 -0.2814682 
0.026607472 -0.96905625 0.24540178 
0.9038611 -0.06803824 0.4223812 
0.91288054 -0.35473207 -0.20202577 
0.787685 -0.6103223 -0.08401923 
0.86839175 0.020235332 -0.49546567 
0.5402054 0.107466675 0.8346431 
0.08329283 0.62160826 0.77888733 
0.14566655 -0.076659046 0.98635936 
0.10885312 -0.169873 0.9794357 
-0.5308411 0.63737136 0.55853873 
-0.62659836 0.772889 -0.100085475 
-0.6115407 0.7103021 -0.34855276 
-0.77005166 0.62686044 0.11860202 
-0.9709134 0.23833965 -0.022833241 
-0.8067485 -0.1777239 -0.56353444 
-0.09980902 -0.87558514 -0.47264037 
0.17213957 -0.70756525 -0.6853608 
0.5136406 -0.53835374 -0.6680934 
0.50688446 -0.2508987 -0.82469267 
0.53654945 0.40373725 -0.74102026 
0.6007961 0.19153792 -0.77611685 
0.9507883 0.20475349 0.23254617 
0.21536623 0.6881713 0.6928475 
0.67685056 0.55855095 0.47947288 
0.5932762 0.29904145 0.7473939 
0.7450312 0.2411142 0.62192655 
0.3001734 0.41421828 0.85925496 
-0.5695664 -0.16736634 0.8047252 
-0.74358076 -0.6350898 0.20916189 
-0.64530075 -0.70608586 0.29159853 
-0.54168457 -0.806107 -0.2382636 
0.089713424 -0.97381634 0.20888574 
-0.37818518 -0.90995395 -0.17017558 
-0.68257535 -0.5914836 -0.4292296 
0.10761798 -0.4963428 -0.8614303 
0.6636425 -0.50379604 -0.55296314 
0.9675889 -0.17743754 -0.17968754 
0.8211202 -0.35145253 -0.44971395 
0.7866008 -0.5699519 -0.23751631 