# OOMMF: rectangular mesh v1.0
# Segment count: 1
# Begin: Segment
# Begin: Header
# Desc: Time (s) :  4.1800000000000033e-07
# Title: m
# meshtype: rectangular
# meshunit: m
# xbase: 2e-09
# ybase: 2e-09
# zbase: 5e-10
# xstepsize: 4e-09
# ystepsize: 4e-09
# zstepsize: 1e-09
# xmin: 0
# ymin: 0
# zmin: 0
# xmax: 1.024e-06
# ymax: 1.024e-06
# zmax: 1e-09
# xnodes: 256
# ynodes: 256
# znodes: 1
# ValueRangeMinMag: 1e-08
# ValueRangeMaxMag: 1
# valueunit: 
# valuemultiplier: 1
# End: Header
# Begin: Data Text
-0.030073587 -0.18084615 -0.98305154 
0.9067727 -0.40979487 -0.09915438 
0.12886477 -0.9863752 0.10226355 
-0.32092947 -0.5396047 -0.7783515 
-0.12929788 -0.34893656 -0.9281839 
-0.11082283 -0.16086833 -0.98073435 
-0.012681236 -0.2177071 -0.9759318 
-0.012153822 0.2104987 -0.97751856 
0.39985514 -0.3946284 -0.8272753 
0.45997545 -0.21636328 -0.86116755 
-0.04263179 -0.542014 -0.83928746 
0.41849673 -0.5062917 -0.7540088 
0.6727194 -0.62214917 -0.40047348 
0.5277717 -0.66917855 0.5231226 
0.81967473 -0.26296988 0.50890106 
0.7193812 0.497581 0.48466876 
-0.14064488 -0.15557711 0.97776014 
0.18552744 -0.12250391 0.9749731 
-0.56269425 0.57463884 0.59427714 
-0.5436897 0.43455043 0.7180302 
-0.031617664 0.9819428 0.18651764 
-0.36297965 0.6710971 -0.6464322 
0.12552983 0.83521485 -0.5354049 
0.21769124 0.8506168 -0.4786037 
0.4461582 0.8499578 -0.28020462 
-0.5361687 0.8440256 -0.011996106 
0.56222135 0.25529006 -0.7865966 
0.5037972 -0.22962344 -0.83274335 
0.583303 -0.04265568 -0.811134 
0.059368894 -0.66402876 -0.74534637 
0.7278188 -0.14056227 -0.6712094 
-0.02753921 -0.7403663 -0.6716394 
-0.15380779 -0.8917457 -0.42559707 
-0.8111967 -0.539514 -0.22557642 
-0.83647734 -0.39415482 -0.38071987 
-0.37181863 0.45673773 -0.8081718 
-0.83833206 -0.17200679 -0.51731324 
-0.41010866 -0.8316557 -0.37437925 
0.49398354 -0.5974171 -0.63172233 
-0.019349054 -0.9955264 0.09248195 
0.46991128 -0.8799293 -0.07005729 
-0.16629882 -0.42399845 -0.890264 
0.69792175 0.13681377 -0.7029845 
0.84094226 0.3255238 -0.4322618 
0.6319021 0.6639604 0.39982054 
-0.27855128 -0.1480115 0.9489478 
-0.7086793 0.092556246 0.6994334 
-0.8855364 0.18990569 0.4239827 
-0.99009115 -0.03639858 0.13562685 
-0.5730525 -0.30631727 0.76011884 
-0.04762972 -0.75216955 0.65724623 
-0.60955274 -0.6367396 0.4722374 
-0.96439296 -0.06332851 -0.25677958 
-0.74708587 -0.6382152 -0.18586057 
0.72434235 -0.5646138 -0.3956506 
0.9798832 0.052228596 0.19261691 
0.9819991 0.04693243 -0.18296202 
0.81253344 0.27372494 -0.51464957 
0.9115108 -0.14118457 0.3862837 
0.13897857 -0.040047277 0.9894854 
-0.18375821 0.2290669 0.9559087 
-0.13877682 -0.22625273 0.9641321 
-0.07868687 0.16538148 0.98308563 
-0.6780875 0.1406898 0.72139025 
-0.6536473 0.12978674 0.74558747 
-0.0526882 0.4306284 0.90099007 
-0.43694738 -0.5228176 0.7319419 
-0.98332405 -0.18185844 0.0011985294 
-0.8693218 0.4067744 0.28073844 
-0.84275216 -0.5132981 0.16215415 
-0.55781895 -0.53716326 0.6326877 
-0.99125427 0.07037176 0.111636914 
-0.85354304 -0.3508114 0.38522154 
-0.5038999 -0.6752165 0.5386721 
-0.1437456 -0.8394945 -0.52400976 
0.56602865 -0.7916751 -0.22991753 
-0.015081295 -0.9877049 -0.15560128 
-0.57857394 -0.81410646 -0.04983047 
0.07420379 -0.6764756 -0.73271734 
0.6255537 -0.4001041 -0.6697756 
0.30096745 -0.90630406 -0.29670143 
0.48392454 -0.8669757 -0.11903828 
0.81438184 -0.5422272 0.20681386 
0.3226642 -0.93897146 0.11924973 
0.8362858 -0.53570473 0.11681901 
0.8355684 0.4540548 0.30928877 
0.95695215 0.15431482 0.24582426 
0.6297337 -0.2640869 0.73054343 
0.80843544 -0.043289933 0.5869908 
-0.3058051 0.20700145 0.92931896 
-0.6649248 0.19290154 0.72157055 
-0.91840154 0.06631264 0.39005303 
-0.8944587 0.3006579 -0.33098122 
-0.6817904 0.50645083 0.52789146 
-0.63768977 0.2571546 -0.72610146 
-0.56043 -0.7899141 -0.24890581 
-0.84017783 -0.36491388 -0.40117207 
-0.065688215 -0.41566274 -0.90714365 
-0.17842293 -0.5240263 -0.8328036 
0.83967656 -0.38298157 -0.3850565 
0.6150156 -0.7220343 -0.31689498 
0.7630566 -0.4785857 0.43439645 
0.21390477 -0.59113246 0.77769345 
0.65440696 0.08752368 0.75106007 
0.4583241 -0.08131399 0.88505775 
0.53622437 0.061127346 0.8418592 
0.41623354 -0.29952124 0.8585085 
0.09233797 -0.120265566 0.9884382 
-0.41299528 -0.021862572 0.9104707 
-0.83447236 -0.44368353 0.3268039 
-0.88616323 -0.41498393 0.20616253 
-0.90990245 0.22400689 0.34913957 
-0.90645295 0.03158175 0.42112416 
-0.95385474 0.059954423 0.29422224 
-0.5902064 0.80604464 -0.044142712 
-0.41378197 0.3841472 -0.8253578 
-0.3907238 -0.095172726 -0.91557485 
-0.40058506 -0.42403668 -0.81223434 
0.066658586 0.33793858 -0.9388046 
0.87041056 -0.33782837 -0.35813048 
0.72234607 -0.60391855 -0.3368955 
0.797459 -0.5786344 -0.17100164 
0.59776235 0.41219422 -0.6875872 
0.4234963 0.77749056 -0.46492958 
0.113198794 -0.016560037 -0.99343437 
-0.81285053 0.5632736 -0.1483133 
-0.1463435 0.6770223 -0.72126585 
-0.33186492 0.009729527 -0.94327676 
0.16533406 0.22966854 -0.95912313 
0.9346514 -0.06813592 -0.3489763 
0.10124089 0.63967884 -0.76194584 
-0.5195762 0.84725726 -0.11043514 
-0.83685374 0.41128293 -0.36127862 
-0.37568533 0.7763321 -0.50613153 
-0.14260349 0.9238222 -0.35527003 
-0.40912965 0.870152 -0.27467865 
-0.21790653 -0.46908578 -0.8558478 
0.23913525 0.050012015 -0.96969754 
-0.6597437 0.42165 -0.62205267 
-0.5146197 0.06140445 -0.855217 
-0.6381423 -0.48034176 -0.6017028 
-0.814048 -0.1874374 -0.549721 
0.30839992 -0.2694437 -0.9122991 
0.61396515 -0.06107846 -0.7869665 
-0.07343149 -0.5838865 -0.8085076 
0.815937 0.5122081 -0.26812255 
0.9539772 0.29039323 -0.07482824 
0.8075581 -0.30808344 0.5029259 
0.6758634 -0.48228535 0.5573236 
0.7187378 -0.13837144 0.6813732 
0.85143864 -0.22830802 -0.47215223 
0.054082207 -0.5468955 0.8354523 
0.30083427 -0.6321914 0.7140258 
0.2906279 -0.72531044 0.62406754 
0.13636436 -0.5124418 0.8478256 
-0.8166543 -0.41991007 0.39591852 
-0.7217726 -0.21023636 0.6594278 
-0.9837916 -0.094029516 0.15268445 
-0.16620511 -0.18029824 -0.9694681 
-0.16701142 -0.83339095 -0.52684605 
-0.5547974 0.17801574 -0.81271785 
-0.38285312 -0.30139744 -0.87326 
-0.058486942 -0.46899393 -0.8812627 
-0.05990306 -0.50770646 -0.85944504 
-0.7848696 -0.33180952 -0.5233376 
0.30251494 -0.06432562 -0.9509716 
-0.024411904 -0.5398469 -0.8414092 
-0.029797792 -0.9253884 -0.377847 
-0.09821314 -0.88641316 -0.4523561 
-0.16035748 -0.96078575 0.22622156 
-0.39268887 -0.86668307 0.30766228 
0.028946979 -0.75085497 -0.6598326 
0.0055429144 -0.99997944 -0.0032597147 
0.16139062 -0.41208956 -0.8967359 
0.88919324 0.25278845 -0.3813574 
0.9901089 0.12914461 -0.054828737 
0.7904435 -0.5414147 0.28647768 
-0.24277018 -0.8523641 -0.46318257 
0.58261234 -0.75910395 -0.29038635 
0.88437504 -0.3347297 -0.32532558 
0.3195055 -0.65046203 0.6890685 
0.3301637 0.20733605 0.92087114 
-0.059154406 0.33529353 0.94025475 
-0.05182332 0.861165 0.5056771 
-0.43449366 0.03642237 0.8999381 
-0.70433754 -0.4137864 0.5767925 
-0.8048101 0.3605317 0.4714844 
-0.71383685 0.37936133 0.58866125 
-0.6610582 -0.5049372 0.5550141 
-0.127616 0.6445506 0.753836 
-0.6909828 0.6427642 0.33075216 
-0.9495295 -0.2980974 0.09763042 
-0.77859783 -0.39944586 -0.48397142 
-0.94123894 -0.333329 -0.054416224 
-0.14725414 -0.82602626 -0.54405606 
0.30902374 -0.82276386 0.47703665 
-0.099331535 -0.9938525 0.048891976 
0.47423828 -0.8790749 -0.04822475 
0.7856768 -0.11520134 -0.6078164 
0.59580594 -0.6863019 -0.41713923 
0.50981516 -0.7766564 -0.369991 
0.991603 -0.12910518 -0.0074401298 
0.7285037 0.4196239 -0.54147786 
0.79740906 0.1710413 0.5786915 
0.531604 0.03575029 0.8462382 
0.22005092 0.5748583 0.78810894 
0.6877943 0.11974983 0.7159602 
0.52092916 -0.23783553 0.819797 
0.07265083 -0.46522504 0.8822061 
-0.5212216 -0.1417633 0.84156483 
-0.610677 -0.49701712 0.61648 
-0.7261551 -0.03709567 0.6865295 
-0.8079285 0.43955004 0.39248863 
-0.82749456 -0.2724415 0.49094638 
-0.89653146 -0.225686 0.38117886 
-0.80701375 -0.13558456 0.5747571 
-0.18049474 0.11355336 -0.9769991 
-0.35246596 -0.49047625 -0.7969949 
0.12222577 -0.9860833 0.11269669 
-0.23952448 -0.94506526 0.22244042 
0.025680862 -0.556167 0.8306737 
-0.4365252 0.029685332 0.89920217 
-0.37876758 0.014682952 0.9253754 
-0.48300278 -0.56088614 0.67239505 
-0.74789655 -0.16514187 0.64294547 
-0.66903996 0.61674404 -0.4147438 
-0.2272791 0.8614137 -0.45421445 
-0.35045323 0.8373477 -0.41956088 
-0.42490515 0.8588131 -0.2861746 
-0.3726935 0.83854675 -0.3974154 
-0.58347493 -0.20065726 -0.7869522 
-0.55386186 -0.2643128 -0.7895416 
-0.004279893 0.18544213 -0.9826459 
0.07988407 -0.10712854 -0.9910308 
-0.05122171 0.105560385 -0.9930929 
-0.5923854 0.30890143 -0.74408305 
-0.5123589 0.6003705 -0.6140388 
0.6941532 0.6803854 -0.23500465 
0.8050669 0.5190501 0.2871485 
0.919713 0.20798652 0.3329711 
0.52246666 0.85171485 0.040132876 
0.51760334 0.27048495 0.8117418 
-0.51959515 -0.07584447 0.85103977 
-0.14480276 -0.046669576 0.9883594 
-0.20227005 0.33479983 0.9203238 
-0.094747014 0.9672271 0.23557341 
-0.16960916 0.8559155 0.48850942 
-0.3261761 -0.94530565 -0.0025523661 
0.13361995 -0.9238978 0.3585507 
-0.46074986 -0.6725474 0.5791284 
-0.6507509 -0.29578337 0.69931084 
-0.9605785 -0.16029887 0.2271415 
-0.8666662 -0.47138384 -0.16336161 
-0.38811633 -0.9216035 0.0035696188 
-0.19757418 -0.5247266 0.8280257 
0.20959386 -0.819684 -0.53309345 
-0.49163544 -0.2701304 -0.8278431 
-0.08388339 -0.9252641 -0.36993232 
-0.21569909 -0.9556263 -0.20062976 
0.2656785 -0.8190693 -0.50846875 
-0.49429312 0.1823502 -0.84995455 
-0.4673278 0.2912721 -0.83472466 
-0.4352693 0.21555614 -0.8741146 
-0.16304763 0.35863048 -0.91912985 
-0.2717293 0.12958881 -0.953609 
0.0075315577 0.3676601 -0.9299298 
0.34763214 -0.07580305 -0.93456185 
0.53647524 -0.8438839 -0.0073791514 
0.36538768 -0.90234286 -0.22862498 
0.36466983 -0.8804127 0.3031326 
0.20109373 -0.8551705 0.47774982 
0.55978507 -0.34105986 0.7551947 
-0.27027035 -0.10105928 0.95746595 
0.3674854 -0.7212295 0.58718187 
0.45322478 0.33365932 0.8265947 
-0.25060004 0.37700933 0.8916634 
-0.6464719 0.23893659 0.7245574 
-0.49068582 0.87071306 0.032959383 
-0.20056501 0.9484232 0.24549352 
0.039068956 0.9648608 0.259841 
-0.50375867 0.6897736 -0.5200381 
-0.64105123 0.70585585 0.30136517 
-0.39415982 0.8102178 -0.43380317 
-0.0063043525 0.062186003 -0.9980447 
0.24802071 0.37855715 -0.8917288 
0.12653923 0.75256723 -0.64624333 
-0.49387947 0.1769837 -0.8513284 
-0.42839038 -0.13358822 -0.8936643 
-0.51507753 -0.6512772 -0.5572551 
-0.45325133 -0.8312674 0.32180384 
-0.83078766 -0.43759662 0.3439495 
-0.6310276 0.11546559 -0.7671193 
0.17188592 0.094903916 -0.9805348 
0.2571204 -0.7284538 -0.63501513 
0.43756714 -0.7727302 -0.45980757 
0.7228942 -0.4997177 -0.47718582 
0.9134566 -0.18834822 -0.36072436 
0.69255114 -0.3712097 -0.6185276 
0.6644291 -0.07036028 -0.7440319 
0.9011589 0.2390461 -0.3616207 
0.7007268 0.30501124 0.6449419 
0.07931798 0.4809823 0.8731351 
-0.64995515 0.24787576 0.71841216 
-0.70964986 -0.16759974 0.6843299 
-0.6345405 -0.42705977 0.64418817 
-0.08569008 -0.8653075 0.49386236 
-0.24366446 -0.6467724 0.72271234 
-0.43729338 -0.68465996 0.58310825 
-0.61903685 -0.45855144 -0.63759243 
-0.43382475 -0.6437428 -0.6303899 
-0.09752252 -0.35367623 -0.9302702 
0.8865941 -0.46221462 -0.017569834 
0.47965604 0.682746 0.55116963 
0.94213754 0.098267026 0.32050052 
0.9427996 0.27381405 0.19014403 
0.6300162 0.44362557 0.6373979 
-0.07948078 0.15519671 0.9846811 
-0.7892586 -0.10868821 0.6043656 
-0.45518085 0.2057219 0.8663076 
-0.4820509 -0.5048657 0.71605706 
-0.47431415 -0.39349738 0.78751886 
-0.4767764 -0.13973585 0.8678469 
-0.21947034 -0.9277643 0.3018051 
-0.978782 -0.027013944 -0.2031163 
-0.9512747 -0.17752866 -0.25211126 
-0.47065428 0.008993169 -0.8822719 
-0.80919737 -0.33184108 -0.4848518 
-0.79288954 -0.47462958 -0.38216892 
-0.050495323 -0.93853474 -0.34147146 
-0.24960575 -0.95175236 -0.17850633 
-0.57354647 -0.8096678 -0.124429114 
0.5441391 -0.7248626 -0.42247725 
-0.052036423 -0.7422771 -0.6680696 
-0.145726 -0.81965536 -0.5540119 
-0.08797808 -0.97423327 0.20767617 
0.04698925 -0.48103446 -0.87544155 
-0.22429882 -0.9242758 -0.30887604 
0.337302 -0.6989921 -0.6305851 
0.4717153 -0.24484333 -0.8470753 
0.98598826 -0.16596572 0.01680957 
0.4932497 -0.41662323 0.7636293 
0.80240476 -0.3147912 0.50700426 
0.7706401 0.18281357 0.61048603 
0.7676523 0.20794138 0.6061934 
0.24889931 -0.35267347 0.90203696 
-0.24823868 -0.5263321 0.8132356 
-0.67178625 0.1990623 0.7134967 
-0.77893394 0.41233462 0.47248524 
-0.98759264 0.07100285 0.14006951 
-0.9396278 -0.041632876 0.33965623 
-0.8951858 -0.4081503 0.17904091 
-0.49233454 -0.87023216 0.0173984 
-0.10163568 -0.78654987 -0.60910565 
-0.21926053 -0.21317396 -0.95209336 
-0.39395642 -0.2938731 -0.8708828 
0.33203253 0.01769903 -0.9431019 
0.057413388 -0.9983416 0.0042318767 
0.7788298 -0.5753012 -0.24990527 
0.06392186 -0.9969236 0.045358937 
0.4794024 -0.102291554 0.87161344 
0.45413086 -0.43099576 0.77974856 
0.6271239 -0.10384974 0.7719656 
0.4344356 -0.32627633 0.8395294 
0.58890617 -0.37963006 0.7134919 
-0.40031698 -0.9102084 0.106147036 
-0.84270316 -0.3944387 0.36642826 
-0.9883215 0.016830852 0.1514512 
-0.9977729 -0.02181746 0.06303565 
-0.6196037 -0.43580636 0.65281254 
-0.78854334 -0.3938111 0.4723477 
-0.8608786 -0.03545373 -0.5075738 
-0.47185493 0.36455145 -0.8027798 
-0.5309273 0.18003714 -0.8280717 
0.1432835 -0.39701432 -0.90655917 
-0.19503377 -0.37307516 -0.90707046 
0.3167427 0.23664866 -0.9185159 
0.6898054 -0.011366009 -0.7239057 
-0.15653442 -0.4265645 -0.8908085 
0.5648006 0.30376282 -0.7672865 
-0.18347721 0.68525016 -0.70481807 
-0.07453104 0.19436665 -0.97809345 
0.08834532 -0.29375085 -0.9517907 
0.3400066 0.9390772 0.050293874 
0.26052642 0.4319489 -0.8634502 
0.56851107 0.76557744 -0.30114207 
-0.54477805 0.8359148 0.06680956 
0.1324624 0.98259133 0.13026181 
-0.7571129 0.6464791 -0.09404666 
-0.70679677 0.6706112 -0.22520883 
-0.6211673 0.5889142 -0.5170409 
-0.29924986 -0.024882937 -0.9538503 
-0.4015745 0.5104606 -0.7603736 
-0.03335208 0.73562664 -0.67656577 
-0.7910497 0.28033477 -0.5437396 
-0.9243315 0.22342165 0.3093448 
-0.98935276 0.13250196 0.06020292 
-0.59452385 -0.40810105 -0.6928167 
-0.39082137 -0.7168527 -0.57739145 
0.3624479 -0.63571334 -0.68154246 
-0.2467802 -0.34100047 -0.9070933 
0.5209143 -0.2997036 -0.79926604 
0.85317886 0.20967698 -0.47762078 
0.14229457 0.40842876 -0.9016308 
0.93174887 -0.27815607 -0.23339501 
0.69344425 -0.50454783 -0.5143603 
0.97159284 -0.22342092 0.078041494 
0.98559785 -0.08674871 -0.1451605 
0.5256535 -0.7499015 0.401667 
-0.11616588 -0.903996 0.41145715 
0.042357136 -0.57964337 0.81376874 
0.09180184 -0.24966483 0.9639709 
-0.8881502 -0.30269757 0.3457793 
-0.9447091 -0.16272639 0.28468376 
-0.984097 0.07648465 -0.1603223 
-0.8791162 -0.4262351 -0.21325666 
-0.6582685 0.010094656 -0.7527156 
-0.7747261 -0.40240628 -0.4877178 
-0.55136794 0.2997667 -0.77854574 
-0.77675617 0.07466873 -0.62535954 
-0.65727717 0.1470146 -0.73917085 
-0.37500143 -0.4137433 -0.82957244 
-0.7219172 -0.5941887 -0.35464835 
-0.684844 -0.7211283 0.10470344 
-0.14706267 -0.81913316 -0.5544309 
-0.53689885 -0.8400445 -0.077877074 
-0.5873433 -0.75655895 -0.28748322 
-0.53940946 -0.59112746 -0.5996715 
-0.19892082 -0.10661158 -0.9741995 
-0.54139626 -0.6805114 -0.4937553 
0.3982411 -0.71705216 -0.5720492 
0.596519 -0.6804508 -0.42561933 
0.19435997 -0.8538401 -0.48288858 
0.66309506 -0.67371136 -0.32621768 
0.8289978 -0.2238688 -0.5124895 
0.7340075 0.11836021 -0.66874814 
0.9856941 -0.12627986 -0.11162666 
0.5482544 -0.34200424 0.7631844 
0.44297284 -0.04496658 0.8954068 
0.62771285 -0.10404692 0.7714602 
0.18669806 0.31277353 0.9312983 
-0.3276393 -0.75539637 0.56747586 
-0.07928897 -0.12375681 0.9891398 
-0.6515456 -0.33768696 0.67930543 
-0.9680356 -0.24340296 -0.060516477 
-0.9118461 0.38209566 -0.15013258 
-0.65645695 0.6550522 0.37412697 
-0.9446042 0.10263656 -0.31175092 
-0.7059766 -0.43183687 -0.56135017 
-0.22712871 -0.9389117 0.2585682 
-0.5110259 -0.073465064 -0.85642016 
-0.17332621 -0.6867424 -0.70593405 
0.04799601 -0.7036508 -0.7089231 
-0.35103628 -0.20025957 -0.9146966 
0.20554258 -0.17090374 -0.96361 
-0.047040883 -0.5465647 -0.8360946 
0.44737563 0.14098956 -0.88316303 
0.6162432 -0.6023115 -0.5074104 
0.976589 -0.17650564 -0.122962475 
0.97746027 -0.16755064 0.12844567 
0.9055744 0.0926507 0.41394567 
0.40878716 -0.28885475 0.8657112 
0.35318443 0.4000068 0.84572774 
0.46237722 -0.26036623 0.8475946 
-0.30141795 0.29167792 0.90778375 
-0.10870539 0.15938641 0.98121315 
0.3279131 -0.55260015 0.7662285 
-0.77366924 -0.26956415 0.5733857 
-0.97202307 -0.18278712 0.14751324 
-0.9343938 0.35607207 -0.010998906 
-0.9750359 0.019305656 -0.22120671 
-0.9940275 0.084723555 0.06878424 
-0.9556871 -0.26110157 0.13597095 
-0.45001924 0.11447408 -0.88565147 
-0.5271441 -0.5177773 -0.6738144 
-0.07205308 -0.91198283 -0.40385127 
-0.23081839 -0.9160471 -0.32799476 
-0.24641424 -0.8640033 0.43906534 
-0.3240728 -0.25555828 0.91086054 
-0.34028938 -0.7908486 0.5086863 
-0.26569182 -0.9255867 0.26962426 
-0.9610223 0.043607175 -0.27301025 
-0.4721206 0.8602828 0.19239472 
-0.43994853 0.55014855 0.709776 
0.122777194 0.58634716 0.8007015 
-0.112353675 0.4392731 0.89130014 
-0.51224166 0.81931895 -0.25753647 
-0.6146341 0.65951556 -0.43274042 
-0.43806162 0.43240303 -0.7881179 
-0.32022095 0.574043 -0.7536134 
-0.36377308 0.2274403 -0.9032941 
-0.38586977 0.5434019 -0.7455327 
-0.75535196 0.29813167 -0.5835761 
0.05779328 0.584261 -0.80950546 
0.45920643 0.82645905 -0.32572228 
0.27168566 0.6794973 0.6815206 
0.15289348 0.697764 0.6998207 
-0.100259654 0.9948454 -0.0151916975 
-0.5946615 0.41591698 0.68803406 
-0.1695006 -0.64532393 0.74486685 
-0.80760026 -0.18359603 0.5604233 
-0.101843014 -0.22989804 0.96787137 
-0.88090986 -0.47319362 -0.009250474 
0.03502468 -0.39608893 0.91754395 
-0.28467587 -0.8434866 0.4555107 
-0.36909536 -0.6322154 0.68122864 
-0.45867857 -0.885095 0.078873165 
-0.65505946 -0.6241756 0.42579582 
-0.5927568 -0.80517524 -0.018225063 
-0.87989944 -0.3715644 -0.29617047 
0.13772628 -0.7503192 -0.6465699 
-0.43314296 -0.8820399 -0.18545333 
0.1727783 -0.63778496 -0.75058514 
-0.68629843 0.38095698 -0.61956954 
-0.22904406 0.5939187 -0.77123255 
-0.20967807 0.16074002 -0.9644677 
-0.3772874 0.89124274 -0.25167593 
-0.27193457 0.9400196 -0.20594868 
-0.6851512 0.61955833 -0.38303426 
-0.26747867 0.3429225 -0.90047723 
-0.45991877 0.3424802 -0.819257 
0.20867638 -0.68563575 -0.69739366 
-0.23841622 -0.022484923 -0.9709028 
-0.29686046 0.38346478 -0.8745448 
0.5065202 -0.8525937 -0.12853555 
0.45917138 -0.83850306 -0.29338437 
0.677459 -0.66844445 -0.30697128 
0.7782523 -0.62561184 0.054160863 
0.7275895 -0.6546364 0.20509686 
0.16060263 -0.57360655 0.80323243 
-0.21954037 -0.6932703 0.6864243 
0.4149932 -0.7332105 0.5386865 
0.657514 -0.15250242 0.73784715 
-0.13292526 0.4273439 0.8942641 
-0.38310212 0.8744788 0.2975227 
-0.19808069 0.79606646 0.5718761 
0.26506507 0.9333738 0.24197887 
-0.7446719 0.60522455 0.28136647 
-0.8282512 0.55493915 0.07773326 
-0.5390572 0.5065636 -0.6729121 
-0.034935426 -0.5686713 -0.82182276 
0.14860918 -0.3419058 -0.9279094 
-0.53114814 0.013777092 -0.847167 
-0.4241167 -0.0020833095 -0.90560514 
-0.3054354 -0.7227925 -0.6199035 
-0.46964478 -0.37365624 -0.7998842 
-0.43179467 -0.8070388 -0.40279254 
-0.6858322 -0.40943158 -0.60166436 
-0.3735677 -0.13839594 -0.9172207 
0.74552023 -0.46606493 -0.47642756 
0.3024963 -0.7398512 -0.6009295 
0.6832156 -0.42041624 -0.59704834 
0.6396909 -0.4927357 -0.58992136 
0.9823051 -0.15768674 0.101052836 
0.5527063 -0.110749 -0.8259846 
0.5957727 -0.10565187 -0.7961738 
0.7880116 0.45251617 -0.4174529 
0.6734803 0.32820377 0.6623494 
0.024105929 0.4718572 0.8813454 
0.12642245 0.6005901 0.7894992 
-0.4726301 -0.73962563 0.47913972 
-0.9704004 -0.10579537 0.21709558 
-0.6444389 -0.7495553 0.15121298 
-0.62282693 -0.7661253 0.15855151 
-0.92649835 -0.31706372 -0.20266101 
-0.8018555 0.17362896 -0.5717348 
-0.22138973 -0.5385434 -0.812993 
0.03204222 0.18915947 -0.98142356 
0.8574471 -0.29502591 -0.42159712 
0.45273325 0.22495006 0.86280376 
0.7003326 0.2574286 0.6657813 
-0.3888705 0.044147395 0.9202341 
-0.60221356 -0.11277862 0.7903289 
-0.53183067 0.21996687 0.817784 
-0.478431 -0.37172434 0.7955658 
-0.36113146 0.28573316 0.8876602 
-0.8497689 -0.34316325 0.40016478 
-0.7815287 0.07431572 0.61942726 
-0.066125154 -0.3799909 0.92262375 
-0.9922131 0.12408068 -0.010829581 
-0.9686778 -0.17792505 0.17322224 
-0.7455136 0.27999726 0.6048231 
-0.70047545 0.5458624 -0.4597483 
-0.9591221 -0.19270831 0.20723975 
-0.42314374 -0.65279174 -0.6283409 
-0.66280884 -0.5501902 -0.5079126 
-0.88402873 -0.11696609 -0.45256186 
-0.6815298 -0.5265961 -0.50814736 
0.43210155 -0.6426455 -0.6326888 
0.34759784 -0.8125689 -0.4678756 
-0.2763859 -0.6895607 -0.6694154 
0.0089549925 -0.74473095 -0.66730475 
-0.24943429 -0.15738669 -0.9555166 
-0.8644341 -0.15721413 -0.47753268 
-0.16703711 -0.25108388 -0.953444 
0.28856948 0.019045819 -0.95726955 
0.84937245 -0.34702417 -0.39766914 
0.8034978 -0.5945273 0.030473523 
0.615812 -0.13339962 0.77651805 
0.9228071 -0.18611443 0.3373255 
0.88032204 0.121068664 0.45866713 
0.047299426 0.2416518 0.9692097 
-0.8028751 -0.29864383 0.5159492 
-0.5247563 0.089105435 0.8465761 
-0.97981817 0.098163985 0.17412673 
-0.8673897 -0.0068057464 -0.49758297 
-0.85336053 -0.29184574 -0.43197438 
-0.6208375 -0.7823512 -0.049873658 
0.09838972 -0.96523 -0.24217877 
-0.35710797 -0.67295974 -0.6477648 
-0.14358474 -0.44217587 -0.885361 
-0.28302526 -0.68486965 -0.67145395 
0.047984947 -0.7976531 -0.60120475 
0.46191606 -0.8012029 0.38040447 
-0.28508803 -0.8805472 -0.3786309 
0.3575704 -0.73183966 -0.5801329 
0.3191848 -0.62996626 0.7079997 
0.30163085 -0.0014252946 0.95342374 
0.53016084 -0.56669724 0.63070095 
0.5057104 -0.67167354 0.54139787 
0.26055837 -0.796201 0.5460527 
-0.84060144 -0.2590531 0.47568977 
-0.949599 0.114136614 -0.29194957 
-0.80266327 -0.014500116 0.59625626 
-0.89261854 0.18615277 0.41058427 
-0.47927338 -0.7693725 -0.42233044 
-0.5988141 -0.28686932 -0.74774843 
-0.6697819 -0.090193205 -0.73705995 
-0.50056434 0.20609586 -0.84080905 
-0.07772855 0.26929593 -0.95991564 
0.15475532 0.20327693 -0.96681404 
0.12400997 0.55308115 -0.8238463 
-0.41872472 0.76440114 -0.4902657 
0.27504927 0.08287765 -0.95785135 
0.42747977 0.7925309 -0.43492055 
0.04271666 0.6156173 -0.78688675 
-0.023155624 0.65859914 -0.75213766 
0.23443504 0.09772313 -0.96720755 
-0.019649457 -0.13777536 -0.9902686 
0.567647 0.3655257 -0.7376774 
0.6828833 0.6156757 -0.39320982 
0.29903275 0.8384794 -0.45555663 
-0.02680139 0.99493164 -0.09691692 
-0.1624347 0.98644984 0.023063323 
-0.22989991 0.96455306 0.12955175 
0.025010945 0.9996205 -0.011551196 
-0.8064791 0.45016187 0.3833351 
-0.28244132 -0.074663 -0.95637465 
-0.113314524 0.71280795 -0.692145 
-0.74904996 0.6405397 0.1692132 
-0.87143755 0.48792315 -0.050276075 
-0.94733906 -0.17390338 0.26889828 
-0.9915561 -0.12767854 -0.022689553 
-0.14559843 -0.8768553 -0.45817667 
-0.5802392 -0.81429636 -0.015620171 
-0.05878934 -0.6803842 -0.73049384 
0.25906634 0.034636263 -0.9652384 
0.38519618 -0.55588925 -0.73662144 
0.28835934 -0.4678699 -0.83543205 
0.5768812 -0.61694795 -0.53533494 
0.8389034 -0.049868014 -0.541991 
0.60710406 -0.6997309 -0.37656522 
0.99819106 -0.058904476 -0.012042572 
0.7958226 -0.5264033 -0.2992758 
0.7364207 -0.38216114 0.55824506 
0.76207894 -0.48067778 0.43380255 
0.63439137 -0.73653024 0.23467173 
-0.28735855 -0.33542037 0.89717245 
-0.7358282 -0.611966 0.28992152 
-0.7705149 -0.29354846 0.5658059 
-0.7920655 -0.57728857 -0.19841923 
-0.7875886 -0.40555856 -0.4639251 
-0.71591514 -0.31963927 -0.62072235 
-0.8309696 -0.15042631 -0.53559464 
-0.3717904 -0.30363452 -0.8772559 
-0.096639894 0.16904385 -0.9808593 
-0.4660069 0.2566805 -0.84673065 
-0.5153129 -0.28933954 -0.8066816 
-0.4796393 -0.22050305 -0.84930825 
-0.010470775 -0.33791688 -0.94111776 
-0.6790789 -0.71675646 -0.15846814 
-0.54871535 -0.3602963 -0.75438595 
0.02434193 -0.34811252 -0.9371367 
0.039495803 -0.19746175 -0.97951466 
0.12770173 0.10334687 -0.98641366 
-0.70729405 0.009648106 -0.70685375 
-0.24720757 0.36353213 -0.89818305 
0.20016128 -0.21491228 -0.95590186 
0.30802205 -0.4010364 -0.8627238 
0.5717654 -0.62482536 -0.5316743 
-0.17178205 -0.5058426 -0.84534866 
0.69172806 0.34064594 -0.6367674 
0.98543775 0.16089417 0.055006213 
0.82508826 -0.41532862 0.38305545 
0.8112874 -0.22824869 0.53825206 
0.3030095 -0.22627768 0.9257341 
0.31389815 -0.049609143 0.94815975 
0.041599743 -0.37534633 0.92595077 
0.15755054 -0.17601544 0.9716977 
-0.8525454 0.42927602 0.29814193 
-0.98693 0.019200884 0.16000177 
-0.67713857 0.3123525 -0.6662727 
-0.6411712 0.6601543 0.39127457 
-0.85536456 -0.18728885 -0.48298484 
-0.542994 -0.26592842 -0.79651725 
0.46835744 -0.8813401 -0.062298283 
0.5994468 -0.47772765 -0.6422149 
-0.2664966 -0.13691849 -0.9540613 
0.06790818 -0.28202027 -0.9570021 
0.3311572 -0.0042294054 -0.9435662 
0.110145286 0.34029233 -0.9338465 
0.51100105 0.17425016 -0.8417333 
0.1728263 0.21264091 -0.961725 
0.7650878 -0.51754785 -0.38312507 
0.22774962 -0.9533454 -0.19814818 
0.3277494 -0.6786112 0.6573182 
0.33649123 -0.44884655 0.8278348 
0.13388136 -0.8923648 0.43099988 
0.13067798 -0.17050914 0.97665244 
0.36551857 -0.48165727 0.796494 
-0.5393074 -0.36618173 0.75832623 
-0.27837142 -0.60604817 0.7451275 
-0.93176675 -0.032443967 0.36160514 
-0.8271066 -0.524105 0.20299953 
-0.45966035 -0.73057944 0.50494164 
-0.95856553 0.05922037 0.2786486 
-0.90427667 0.40716252 -0.12846214 
-0.55432725 -0.47585028 -0.68285275 
-0.38426423 -0.233101 -0.89331126 
-0.49405372 -0.1903007 -0.84834945 
-0.5686093 -0.5405821 -0.6200439 
-0.23785765 -0.80145043 -0.54872674 
-0.43868265 -0.8368678 -0.3274292 
0.078947656 -0.9946887 0.06604328 
-0.042904098 -0.9954681 -0.08486817 
0.18474966 -0.12916848 -0.9742603 
-0.020715376 -0.6818179 -0.73122865 
-0.41926926 0.23812273 0.876077 
-0.44512498 0.04902136 0.8941257 
-0.6799805 -0.3589525 0.6393588 
-0.48344418 0.48975208 0.72555137 
-0.9686571 0.22142991 -0.11257156 
-0.8366274 0.5046814 0.21295808 
-0.8859804 0.34039375 -0.31491423 
-0.5540138 0.51297486 -0.6556871 
-0.49945202 0.4052608 -0.7657097 
-0.76441115 0.009112698 -0.64466465 
-0.5369792 -0.021260742 -0.8433275 
-0.04908203 0.6383585 -0.76817274 
0.4161509 0.73491144 -0.53546584 
-0.12200202 0.5910008 -0.79739183 
0.34761667 0.83332247 0.4298095 
0.3043222 0.40875366 0.86041176 
-0.16072944 0.86988753 0.46632808 
-0.033949584 0.90594274 0.42203698 
-0.28031096 0.12122903 0.9522234 
-0.78458315 0.23838587 0.57236487 
-0.9267445 -0.37523356 -0.018556675 
-0.86766815 -0.39741194 -0.29869017 
-0.18709254 -0.81309986 0.5512396 
-0.68998635 -0.52850485 0.494572 
-0.73585784 -0.67691934 0.017131489 
-0.14306353 -0.8890168 -0.43495077 
-0.8808335 -0.4264259 -0.20565316 
-0.70263743 -0.7109188 -0.02991923 
-0.89111966 -0.34427112 -0.29560658 
-0.5305693 0.22660068 -0.81679153 
-0.5738922 -0.2015296 -0.79374665 
0.0246227 0.3222766 -0.9463253 
0.053734787 0.5312979 -0.84547925 
-0.44814116 0.55139714 -0.70365524 
-0.69003004 0.7236464 -0.013946756 
-0.80107945 0.55499685 -0.22416554 
-0.60664874 0.7820987 -0.1424751 
-0.2762238 0.71551484 -0.64166886 
-0.15867546 0.77330226 -0.61386144 
-0.8310379 0.2873684 -0.4762305 
-0.9927635 0.05887408 -0.1046637 
-0.5972465 0.09911304 -0.79591036 
-0.4693734 0.2896611 -0.83413726 
-0.09656382 -0.34987974 -0.9318045 
0.20155607 -0.89821064 -0.39063132 
0.38017926 -0.6550706 -0.652952 
0.5000558 -0.6820251 -0.5336535 
0.09012021 -0.88032395 0.4657339 
0.6209076 -0.43552715 0.651759 
-0.11220596 -0.8757104 0.46961805 
0.8702184 -0.49239457 0.01636379 
0.9227084 -0.19421314 0.3330023 
0.6618836 0.59333676 0.45810655 
0.77220184 0.4017418 0.4922477 
0.19483687 0.9067382 0.37398466 
-0.13376926 0.33024138 0.93436956 
-0.21576248 0.9586459 0.18559286 
-0.2932386 0.94262075 -0.15961654 
-0.27672595 0.91651714 0.28882396 
-0.9808453 -0.18267602 0.06761647 
-0.4320755 -0.34991282 -0.83118707 
-0.2404941 0.6029364 -0.7606775 
0.026263641 0.49020317 -0.8712125 
-0.43113902 0.5829867 -0.68865496 
-0.62030685 0.7402733 -0.2592584 
-0.038202707 0.8232266 -0.5664262 
-0.7839753 0.31222522 -0.5365615 
0.78049934 -0.20647995 -0.5900736 
0.95348644 0.10471088 -0.28266487 
0.50561327 -0.56318706 -0.6535867 
0.05723561 -0.573295 -0.81734765 
0.07334878 0.040156417 -0.9964976 
0.13962269 0.21739943 -0.966045 
0.4906985 -0.32818586 -0.8071611 
0.5522216 -0.33477405 -0.7635298 
0.90223753 -0.29554078 -0.31404334 
0.9324864 -0.14265889 0.33183956 
0.68405366 -0.25239015 0.68437546 
0.15539396 -0.36167052 0.91926444 
-0.7492646 -0.41392085 0.5169837 
-0.25396666 -0.9368491 0.2404473 
-0.8605179 -0.31412268 -0.40104368 
-0.55815357 -0.2964456 -0.7749739 
-0.6408855 0.017100494 -0.76744604 
-0.4500478 0.1704625 -0.8765841 
-0.06603311 -0.33493796 -0.9399236 
0.6103023 0.31398758 -0.7272846 
0.92039126 0.013918732 -0.39075077 
0.39252302 0.40250716 0.82699084 
-0.022045553 -0.49497682 0.86862653 
-0.38079223 -0.08004558 0.9211895 
-0.6759059 0.013998213 0.736855 
-0.55441093 -0.29920226 0.7765994 
-0.76326674 -0.49069875 0.420284 
-0.9596223 -0.2774954 0.046058588 
-0.9704924 0.24084798 0.011697367 
-0.7511013 0.042733055 0.65880257 
-0.7643593 -0.6343573 0.11552378 
-0.86263216 -0.21495779 0.45788524 
-0.83221865 -0.4759012 0.2844823 
-0.880849 -0.33231586 -0.3371516 
-0.9597458 -0.14848407 -0.23841226 
-0.7631039 -0.39313507 -0.51294947 
-0.6187758 -0.5000042 -0.60589814 
-0.429169 -0.16711238 -0.8876303 
-0.71668565 -0.093733944 -0.69106853 
-0.3889964 -0.17219079 -0.9050039 
-0.06525854 -0.66590005 -0.74318135 
-0.16861658 -0.5702359 -0.80398977 
-0.3177118 -0.75968814 -0.5673916 
-0.7773077 -0.08055629 -0.6239419 
-0.01958163 -0.13242641 -0.99099946 