# OOMMF: rectangular mesh v1.0
# Segment count: 1
# Begin: Segment
# Begin: Header
# Desc: Time (s) :  4.2400000000000036e-07
# Title: m
# meshtype: rectangular
# meshunit: m
# xbase: 2e-09
# ybase: 2e-09
# zbase: 5e-10
# xstepsize: 4e-09
# ystepsize: 4e-09
# zstepsize: 1e-09
# xmin: 0
# ymin: 0
# zmin: 0
# xmax: 1.024e-06
# ymax: 1.024e-06
# zmax: 1e-09
# xnodes: 256
# ynodes: 256
# znodes: 1
# ValueRangeMinMag: 1e-08
# ValueRangeMaxMag: 1
# valueunit: 
# valuemultiplier: 1
# End: Header
# Begin: Data Text
-0.86835974 -0.07468667 -0.49027878 
-0.6370175 -0.7526126 -0.16668242 
-0.3089496 -0.89220685 0.32941946 
0.10069007 -0.92344755 0.37027863 
-0.22806796 -0.95445806 -0.19234064 
-0.009495917 -0.675199 -0.7375745 
0.4983696 -0.28722197 -0.8180045 
0.12564072 -0.81703657 -0.56273067 
0.31204888 -0.07230853 -0.94731045 
-0.1417203 -0.821262 -0.55267 
-0.37342754 -0.83213687 -0.41000006 
-0.43286425 -0.89655405 -0.0939119 
0.59882605 -0.79379296 0.10630245 
0.29930684 -0.45228514 -0.84015095 
0.48931035 -0.31987503 -0.8113294 
0.46178362 -0.67285067 -0.5779515 
0.7611503 -0.3762466 -0.52828866 
0.37548685 0.28360394 -0.882371 
0.06053252 -0.41889837 -0.90601325 
-0.10683068 0.09461934 -0.98976487 
0.4520265 -0.4671243 -0.7599125 
0.49740452 0.2855254 -0.81918496 
0.75449413 -0.592614 -0.28204152 
0.94542843 -0.004736579 -0.3257956 
0.2756646 0.035358448 -0.9606034 
0.6381669 0.10094991 -0.76325107 
0.923331 0.19448179 -0.33111426 
0.19127175 0.9242928 -0.3303 
0.5035595 0.68807477 -0.5224759 
0.6257555 0.68848693 -0.36662784 
-0.2146405 0.93714404 -0.27511916 
0.037155505 0.52469516 -0.850479 
0.4650128 0.8592076 0.21336699 
0.56129974 0.270326 0.78221905 
-0.054836202 -0.79792005 0.60026383 
-0.10778297 -0.68989193 0.7158436 
0.50288516 -0.49118337 0.71122813 
-0.75333625 -0.5679691 0.3315051 
-0.8281787 -0.5061314 -0.24073039 
0.16447186 -0.7180221 -0.6763086 
0.7076229 -0.23309429 -0.667036 
0.9657858 -0.25912115 0.010675689 
0.7970358 -0.5741581 0.18728729 
0.021767702 -0.9840983 0.17628627 
-0.5397976 -0.81497276 0.21080324 
-0.4848411 -0.77387077 -0.40749654 
-0.16712001 -0.34311855 -0.92430544 
0.30825293 -0.047706954 -0.9501075 
0.3691205 0.22290312 -0.9022551 
-0.96620476 -0.05731457 -0.2513232 
-0.61301744 -0.42493102 -0.6660656 
0.35063905 0.48228666 -0.8027776 
0.49106225 -0.8668491 0.08620052 
-0.32638323 -0.85640717 0.40005097 
-0.38217768 -0.8553386 0.3497661 
-0.63075215 -0.76661825 0.12020128 
0.2038502 -0.4882319 -0.8485722 
0.8905175 -0.3921586 0.23063031 
0.18707812 -0.11391322 0.975718 
0.12743402 -0.5777787 0.8061839 
0.06767855 -0.99637043 0.051631246 
0.10016639 -0.86139613 -0.4979592 
0.6633039 -0.5654162 -0.49023718 
0.7197635 -0.6374134 0.27503577 
0.1735078 -0.27771416 0.9448651 
0.020506917 0.66427106 0.74721044 
0.0843838 0.85945517 0.5041987 
-0.484395 0.51310843 0.7085769 
-0.4947416 0.6150803 0.61392754 
-0.6168585 0.7851342 0.055226695 
-0.3634719 0.9297698 -0.058449306 
-0.55201256 0.7764697 -0.3039359 
-0.91032976 0.27178478 -0.31214246 
-0.78173745 0.47118667 -0.40849698 
-0.61811656 0.65152776 -0.43982223 
-0.49060732 -0.46921736 -0.7342612 
0.08295329 -0.89054966 -0.44725835 
-0.14468211 -0.7155503 -0.6834141 
-0.85209286 -0.123283654 -0.50866395 
-0.35447922 -0.18271942 -0.91703767 
0.17676148 0.10740108 -0.9783764 
0.6391196 -0.2358367 -0.73205686 
0.22897977 -0.8458015 -0.4818591 
-0.30488598 -0.18243434 -0.9347526 
-0.14337966 -0.85824674 -0.49280307 
-0.15293969 -0.7871546 -0.5974924 
-0.1200991 -0.97789717 -0.17115305 
-0.44296864 -0.35119373 -0.82488894 
0.30314794 -0.8281989 -0.4713681 
-0.08905073 -0.69128215 -0.7170767 
0.3686632 0.2646899 -0.8910818 
0.85997635 -0.130342 -0.4934083 
0.6202694 -0.564591 -0.54452085 
-0.21269384 -0.9593517 -0.185488 
0.4332983 -0.8680544 -0.24235126 
0.2639737 -0.18268712 0.9470709 
0.20528795 0.7278292 0.6543099 
0.09856971 0.39672858 0.91262835 
-0.5222156 0.6788665 -0.51616967 
-0.24772194 0.91521287 -0.3178353 
-0.25868595 0.8985232 -0.354595 
-0.6007244 0.6419321 -0.47650135 
0.7947588 0.59756655 0.10617405 
0.4339991 0.78616256 0.43999264 
-0.2191486 0.9749899 0.036996536 
-0.0881063 0.84163594 -0.53280985 
0.38939738 0.6257272 -0.6758959 
0.8728478 0.48566693 0.047586106 
0.59330946 0.79034275 -0.15278229 
0.816126 0.5272818 -0.23645778 
0.35361847 0.6795205 0.64281094 
0.11215123 0.7301219 0.6740506 
-0.5266604 0.07047691 0.84714925 
-0.8226798 -0.36182097 0.4385014 
-0.09872182 -0.76235455 0.6395855 
-0.08060332 -0.31234506 0.946543 
-0.15276389 -0.95548457 0.25241345 
-0.19946824 -0.95920295 0.20035495 
-0.46857607 -0.562089 0.68153685 
-0.49026614 -0.5608339 0.6671615 
-0.14058408 -0.7750283 0.6160904 
-0.5941768 -0.16193512 0.7878648 
-0.51468647 0.17266135 0.8398131 
-0.97739947 -0.018012267 0.21063237 
-0.5535642 -0.82837087 0.08583947 
-0.17143443 -0.4929448 0.853004 
-0.45671058 -0.8232938 -0.33705008 
-0.25654897 -0.94870466 -0.18477613 
0.6631067 -0.74595517 0.061971694 
0.72884685 -0.67700756 -0.10219145 
0.9001321 -0.42676193 0.08738746 
0.85671806 0.041910034 -0.51407945 
0.22163643 0.8268199 -0.5169587 
0.7116315 0.57887125 -0.39810652 
0.10041094 0.9758369 0.1940623 
0.88248986 0.45065397 -0.13462079 
0.40181187 0.5945962 -0.6964214 
-0.37806973 0.82105577 -0.42770416 
-0.09223252 0.29400435 -0.9513436 
-0.043339267 -0.51536405 -0.85587484 
0.85264677 -0.28004515 -0.441099 
0.7677977 -0.2852427 -0.5736928 
0.79372126 -0.14028417 -0.59188414 
0.5969876 -0.5419544 -0.59151614 
0.85453993 -0.51753354 0.043823123 
0.30872402 -0.94586045 0.10018783 
0.6157714 -0.7872003 -0.033783678 
0.111051366 -0.9544309 -0.2770005 
0.21110475 -0.20033377 -0.95671374 
0.545694 -0.7162034 -0.43505275 
0.28583577 -0.9575363 0.03771363 
0.8048262 -0.4774476 0.35256028 
0.3985485 -0.337127 0.8529388 
-0.017088613 -0.07747057 0.99684817 
0.17227463 0.5617909 0.80914307 
-0.15967226 0.8746209 0.4577586 
0.31631964 0.7661762 0.5593888 
0.5620445 0.58570397 0.58400077 
0.46818793 0.375269 0.7999834 
-0.7911481 0.57869697 0.19797641 
-0.9168186 0.21557091 -0.3361144 
-0.9050609 0.33322397 -0.2642472 
-0.92719334 -0.31260076 -0.20638122 
-0.15560974 -0.76049954 -0.63041747 
-0.38592586 -0.91981757 0.070689715 
-0.8100437 -0.37808636 -0.44819653 
-0.7807787 -0.55252147 -0.2917272 
-0.23300558 -0.97207934 -0.02775068 
-0.5262547 -0.55195296 -0.6468415 
-0.1733999 -0.96728295 0.18519269 
0.61053723 -0.020951318 -0.79171044 
0.8340041 -0.43799552 -0.33555487 
0.90444416 0.1374848 -0.40383017 
0.92527366 -0.29899728 -0.23338689 
0.9838193 -0.16146785 0.077638894 
0.14626504 -0.47362813 0.8684947 
0.30978736 0.39414406 0.86526424 
0.26171693 -0.47863093 0.83810306 
0.30363077 -0.6188139 0.7244845 
0.88235795 0.05908986 0.46685424 
0.29054293 -0.60781264 0.73901874 
-0.2664878 -0.21023668 0.94062996 
-0.46630847 -0.23566805 0.85265297 
-0.9852196 -0.12939274 -0.112250045 
-0.9568987 0.06652139 -0.28270116 
-0.38561028 -0.90064937 -0.20033811 
-0.9582905 -0.28570756 -0.007108246 
-0.085738994 -0.256126 -0.9628335 
0.80461997 -0.5732666 -0.15476468 
0.35803223 0.012696187 -0.93362296 
0.6974534 -0.6080403 -0.37927017 
0.43649128 -0.89968926 0.0058852346 
0.0915994 -0.7902231 0.6059348 
0.15960482 -0.9185653 0.36161354 
0.018697895 -0.92303205 0.3842684 
-0.30608767 -0.94580173 -0.1084868 
0.3654029 -0.93063796 -0.01984239 
0.61458254 -0.19830015 -0.76352173 
0.5514426 -0.54234153 0.6338587 
0.7231854 -0.6561603 0.21553783 
0.19890231 -0.1673709 0.9656215 
-0.73581886 -0.6769354 -0.018141825 
-0.0793672 -0.59657246 0.7986253 
0.039936703 -0.57510453 0.8171046 
-0.5499191 -0.64455116 0.53117114 
-0.61543936 -0.4899928 -0.6173667 
0.20572193 -0.08698616 -0.9747368 
-0.088593036 0.1513474 -0.9845026 
0.917325 0.397843 0.015359882 
0.84313196 0.4623308 -0.27455184 
0.71059066 0.48811468 0.50675935 
0.78726333 -0.42361927 0.44806594 
0.85565144 0.4031627 0.32453117 
-0.3478726 0.4779574 0.8065614 
0.0973798 0.850473 0.5169264 
0.333254 0.38143545 0.8622347 
-0.08541854 0.8419358 0.5327737 
-0.1995525 0.4854618 0.851179 
-0.5655621 0.5431136 0.6206184 
-0.39885068 0.4941577 0.77248067 
-0.98705196 0.052191474 0.15167211 
-0.25066927 0.95253676 0.17273884 
-0.98711646 -0.10241319 0.12293402 
-0.5451749 -0.2944571 -0.7849072 
-0.6101728 -0.46774456 -0.63945615 
0.17234477 -0.9771697 -0.12424445 
-0.23511033 -0.86630386 0.44072762 
-0.31357315 -0.30365914 0.89970165 
-0.42008734 -0.5797009 0.69819313 
-0.25063297 0.009472775 0.9680359 
-0.46148783 -0.053988125 0.8855023 
-0.53889 0.15099414 0.828733 
0.7295416 -0.30396563 0.6126777 
0.018583186 -0.41085 0.91151357 
-0.7197661 -0.41718647 0.55488056 
-0.5616788 -0.4330245 0.70498705 
-0.06990807 -0.055987567 0.9959811 
-0.55995405 -0.78236854 0.27267376 
0.066326424 -0.61923677 0.78239805 
-0.5750483 -0.8069546 0.13469851 
-0.3854025 -0.76451534 -0.5167025 
0.076919936 -0.64181346 -0.7629934 
0.69184035 -0.7047743 -0.15700369 
0.95912945 -0.02975468 0.28139907 
0.35570562 -0.045765426 0.93347687 
-0.4173821 0.3796454 0.825628 
-0.9687069 0.11356518 -0.22070312 
-0.83619225 0.43347096 0.3359845 
-0.58138514 -0.086206906 -0.8090486 
0.12720816 -0.2035198 -0.97077173 
-0.12363673 0.48890898 -0.8635289 
-0.34385604 0.8658916 -0.36331102 
0.014257281 0.8044235 -0.5938852 
-0.26127207 0.29684842 -0.9184868 
0.19802618 0.31102872 -0.9295412 
-0.2843185 0.30672342 -0.90834117 
-0.89180684 -0.2724761 0.361161 
-0.6712103 -0.57168615 0.47185984 
-0.10768755 -0.989106 0.10036337 
-0.2600369 -0.9300059 0.2597497 
-0.81919 -0.5647729 0.09979628 
-0.6140179 -0.6547135 0.4408313 
-0.19060591 -0.6927032 0.6955801 
-0.81809103 -0.03798148 0.57383317 
-0.46622545 -0.79073054 -0.39671013 
-0.5537196 -0.53977793 -0.6340618 
-0.39722523 -0.561528 -0.7258777 
-0.18479575 -0.70541555 -0.6842803 
0.39838976 -0.7031031 -0.589009 
0.12460427 -0.29386923 -0.9476892 
0.3797342 -0.2540303 -0.889534 
0.5279274 -0.4095629 -0.7440101 
0.81603354 -0.40854472 -0.40887722 
-0.38170305 -0.10052816 -0.9188019 
-0.29985455 0.08956482 -0.94977134 
-0.055514336 0.5100334 -0.85836136 
0.58775175 0.31878456 -0.74358886 
0.47243267 0.41950998 -0.77512497 
0.7883713 0.3490152 -0.5066154 
0.083700456 0.32237506 -0.94290435 
0.3170269 0.19244905 -0.9286859 
0.7921782 0.45978314 -0.40131438 
0.76536494 0.124478266 -0.63144416 
0.6726505 0.7106068 0.2063474 
0.85703915 0.37256804 -0.3559171 
0.049955547 0.9556004 0.2904005 
-0.17894213 0.94744766 0.26518455 
0.085530646 0.9581197 0.27329698 
0.23925208 0.7662941 0.5962817 
0.6787259 -0.24870813 0.69099605 
0.45457062 -0.61986727 0.63963294 
0.059078388 0.032658897 0.997719 
0.35520548 -0.16607594 0.91991735 
-0.9505104 -0.23985548 0.1974828 
-0.20073938 -0.50646996 -0.8385654 
0.23849064 -0.79065824 -0.5638988 
0.07148852 -0.8929947 -0.4443533 
0.32277405 -0.89509594 -0.30760384 
0.27238375 -0.8181985 -0.5063184 
0.3864007 -0.8739489 -0.2948014 
0.42751813 -0.70915365 -0.5606509 
0.023181874 -0.7520144 -0.6587389 
0.38277212 0.27673876 -0.88142 
0.28206718 0.7935592 -0.5391679 
-0.2778346 0.16182882 -0.94689995 
0.48357707 -0.4109125 -0.7728545 
0.48915607 -0.5130133 -0.70536786 
0.41993067 -0.17316633 -0.89088255 
-0.2226604 0.2432413 -0.9440636 
-0.38840425 -0.7632675 -0.5162992 
-0.4026159 -0.91509885 -0.022241004 
0.58801454 -0.5862901 -0.5572279 
0.36414745 -0.8961776 -0.25350058 
0.82186276 -0.28898892 -0.49094525 
0.83796805 -0.43916926 0.3239447 
0.614753 -0.6926953 0.3771631 
0.31807196 -0.9376169 -0.14037433 
0.45585507 -0.864352 -0.21234871 
0.79966086 -0.5981076 0.05300963 
0.69017655 -0.56421673 0.45311797 
0.16057892 -0.70098156 0.6948664 
0.1682382 -0.41562352 0.89384174 
0.409426 0.67601925 0.61267316 
-0.66055024 0.016570901 0.750599 
-0.9347097 0.17723751 0.30806592 
-0.6139759 0.712734 0.3391813 
-0.97968644 0.19913007 -0.023700694 
-0.47283494 0.87573725 -0.09752621 
-0.99151564 0.03040259 0.12638247 
-0.47063887 0.5202627 -0.712619 
-0.13254732 0.5517031 -0.82344097 
-0.47081608 -0.5711229 -0.6724217 
-0.11000454 -0.7263327 -0.6784835 
0.045630734 -0.976434 -0.21093765 
-0.30112275 -0.7630547 -0.5719027 
-0.2539558 -0.23784785 -0.93751526 
0.042629693 -0.34620824 -0.9371887 
0.43158484 -0.65258217 -0.62279296 
0.14072694 -0.469483 -0.87165457 
0.49995053 -0.4416691 -0.74496835 
0.5862705 -0.23251739 -0.77603006 
0.5564431 -0.5561087 -0.6173445 
0.46177146 -0.88529193 -0.05500418 
-0.26758295 -0.85713834 0.44012886 
0.019919418 -0.58290046 -0.8122993 
0.5212842 -0.4665625 -0.7145503 
0.5325841 -0.48709062 -0.69216835 
0.8634829 -0.35862342 -0.35466424 
0.5644031 -0.6631571 -0.49160135 
0.30103543 -0.8950394 -0.32906258 
0.655323 -0.25490412 -0.7110385 
0.5546182 -0.42028788 0.7181621 
0.6769668 0.4441614 0.58688724 
0.785825 0.59586525 0.16560113 
0.53629625 0.8440297 -0.00046165756 
0.484396 0.8638304 -0.13841073 
0.29017004 0.9376698 -0.19125055 
0.6264111 0.6903551 -0.36196548 
0.6230278 0.7429769 -0.24458487 
-0.103947006 0.96542716 0.23905149 
-0.44692087 0.8832852 0.14166513 
-0.43044266 0.8976681 0.094398856 
0.10880596 0.5673608 -0.8162493 
0.9597537 0.2265881 -0.1659237 
0.8006902 0.59646916 0.055855732 
0.951561 0.29971915 -0.06855814 
0.7993545 0.28843966 0.5271005 
-0.08101337 0.32992423 0.9405248 
-0.3354981 0.44988236 0.8276756 
-0.5063079 0.36344656 0.7820224 
-0.42440653 -0.7763362 0.46602723 
-0.07514779 -0.7117796 0.69837147 
0.059817635 -0.8428465 0.5348194 
-0.0882538 -0.8645917 0.494664 
-0.106050074 -0.41488972 0.9036703 
-0.3319416 -0.2100857 0.919608 
-0.018892046 -0.4857998 0.87386596 
-0.35686722 -0.3751942 0.85549706 
-0.5001317 0.021789562 0.8656752 
-0.40195346 0.7008618 0.5892591 
-0.76325095 0.18314384 0.6196018 
-0.21562739 -0.63983446 0.7376427 
0.15877448 -0.87201136 0.4630192 
0.19037196 -0.9751035 -0.11371838 
0.92032164 -0.39078373 0.01720942 
0.9294488 -0.20303667 -0.30806038 
0.72153956 -0.6916722 0.031150425 
0.96505684 0.20061383 -0.16858041 
0.09344919 0.9776581 -0.18828695 
0.70873624 0.5094848 -0.48797348 
0.37151682 0.59109336 -0.71594965 
0.7749251 0.24787389 -0.58142054 
0.5761447 0.6037351 -0.5509639 
0.7527082 -0.012128739 -0.6582426 
-0.05867325 -0.20231771 -0.9775608 
-0.054696206 0.37239084 -0.9264629 
0.46668676 -0.011412985 -0.884349 
0.13907409 0.4958222 -0.8572158 
0.22168651 -0.054528777 -0.9735922 
0.8562912 -0.20027749 -0.47608235 
0.7790714 -0.55304337 0.29528117 
0.48333335 -0.7448972 -0.45991006 
0.15782683 -0.8230333 -0.5456253 
0.5743319 -0.79575264 -0.19214728 
0.8008367 -0.15419601 -0.57869184 
0.67296916 -0.6109124 -0.41701168 
0.8697153 -0.42932177 -0.2434713 
0.69695234 -0.66638935 0.26492023 
0.15294048 -0.18562442 0.97064555 
-0.14230242 0.327256 0.93415934 
0.37828603 0.5574956 0.7389847 
0.7860686 0.54710984 0.28769267 
0.32267815 0.8633116 0.3880363 
0.48885417 0.5252567 0.6965106 
0.85782874 0.49788722 0.1274293 
0.099319965 0.40307024 0.90976375 
-0.84986186 0.42149413 0.31635028 
-0.9274557 -0.02303853 0.3732225 
-0.911728 -0.014339887 -0.41054398 
-0.67252594 -0.6376911 -0.37557817 
-0.49595445 -0.84510136 -0.19958234 
-0.54105383 -0.8295089 -0.13847634 
-0.41749403 -0.68103683 -0.601571 
-0.15821955 -0.7104915 -0.6856884 
-0.32987803 -0.6723527 -0.6626632 
-0.51326305 -0.46948752 -0.7184306 
0.02495774 -0.20377669 -0.97869927 
0.9686614 0.24671853 -0.02872459 
0.8339211 -0.5409622 0.109249525 
0.6994415 -0.54655635 -0.4604973 
0.80603546 -0.5802052 0.11691333 
0.60924476 -0.6621469 0.4363282 
0.96874326 0.21357761 0.12617938 
0.97404665 0.15536705 -0.16460359 
0.37217575 -0.43504548 0.8198907 
0.27130488 -0.49550292 0.8251488 
0.40786418 -0.1168738 0.9055316 
-0.6175023 -0.2829611 0.73391014 
-0.26315168 -0.5064189 0.8211524 
-0.7992741 0.17375146 0.5753012 
-0.89543056 0.27444234 0.35055062 
-0.36712915 -0.5689652 -0.7358633 
-0.94890255 -0.31556904 -0.0004701509 
0.022212196 -0.38177168 -0.9239897 
0.5465525 -0.40302873 -0.73406285 
0.42984644 -0.29793233 -0.85233116 
0.78218776 -0.32855824 -0.52936924 
0.4598261 -0.71039605 -0.53282034 
0.6401421 -0.7641162 0.07965178 
0.5000193 -0.8655701 -0.02773503 
-0.17768554 -0.9421003 0.28438523 
-0.4801999 -0.49627092 -0.7232727 
-0.1266414 -0.39108446 -0.91160023 
0.30124423 -0.80063856 -0.5179093 
0.20960477 -0.8909103 0.40292025 
0.49965125 -0.29589438 0.8141224 
0.46160388 -0.42023432 0.78123313 
-0.2393212 -0.8673278 -0.43642637 
0.037254374 -0.9982589 -0.045731336 
-0.26317236 -0.92305386 0.28055626 
-0.5919843 -0.8038511 0.058122024 
-0.47068942 -0.36819112 -0.8018023 
0.45297527 -0.70617604 -0.54417723 
0.1579228 -0.51390964 -0.8431828 
0.8602496 -0.164147 -0.48272812 
0.8331667 0.5221529 -0.18218032 
0.8279634 0.46093753 0.3193949 
0.92982244 -0.3586581 0.082429975 
0.97629255 -0.12989098 0.17315093 
0.5362499 0.4391542 0.72081876 
0.20081215 0.6669587 0.71752393 
0.20529966 0.5035323 0.8392301 
-0.17110811 0.7700994 0.6145477 
-0.8267713 0.47530273 0.30089307 
-0.47818395 0.015280846 0.87812674 
-0.44904432 0.27736694 0.8493686 
-0.47651398 -0.047316033 0.8778928 
-0.8542085 0.40132475 0.3305545 
-0.8469211 0.43730786 0.30246753 
-0.68009216 -0.73301655 0.01270555 
-0.56888163 -0.7291573 -0.3803988 
-0.411853 -0.88612163 0.21252243 
-0.5001865 -0.7762148 0.38380212 
-0.44271278 -0.8655432 0.23418027 
-0.36817032 -0.73373485 0.57103753 
-0.23081844 -0.62134993 0.7487638 
-0.3509113 -0.5545721 0.7545271 
-0.53580093 -0.45214474 0.7130796 
-0.46634313 -0.81154346 0.35202464 
-0.16198877 -0.25041345 0.9544909 
-0.7037798 -0.6604834 0.26164034 
-0.6902968 -0.5384496 0.48328304 
0.13434432 -0.7727236 0.6203626 
-0.83302546 -0.46648887 0.2974171 
-0.6629892 -0.7486272 -0.001656648 
-0.26217365 -0.57720566 -0.7733683 
0.09299611 -0.021475652 -0.9954349 
0.7786728 -0.43725446 -0.44997475 
0.7979605 -0.50101095 -0.33503324 
0.9276397 -0.35073587 0.12833108 
-0.03973705 -0.016028844 0.9990817 
-0.4133482 0.2837668 0.86522824 
-0.92538184 0.36703295 -0.094632 
-0.52136284 0.7886703 -0.32585245 
-0.4419306 -0.3626084 -0.82049537 
-0.47024956 0.12919632 -0.87302566 
0.22699434 0.5324338 -0.8154679 
-0.26248243 0.71472204 -0.64828664 
-0.42126966 0.42066202 -0.80347717 
-0.2634821 0.39855906 -0.87848043 
0.29055768 0.8506675 -0.43811083 
0.27995485 0.6841446 -0.6734771 
-0.27827075 -0.9131849 0.29775637 
0.14452848 -0.88484406 0.44290265 
-0.22662961 -0.96610516 0.123612195 
-0.45717528 -0.8481962 0.26749602 
-0.28535354 -0.9444873 0.16284053 
-0.39889207 -0.87377274 0.27821982 
-0.20227593 -0.69979995 0.6851018 
-0.3186793 -0.94573253 0.0635113 
-0.5143995 -0.73432416 -0.4429009 
-0.9850221 -0.058393154 -0.16223979 
-0.8395121 -0.19563347 -0.5068995 
0.11169777 -0.6635371 -0.73975825 
0.32901293 -0.023237439 -0.94403946 
-0.057256263 -0.772251 -0.63273233 
-0.17648895 -0.31949514 -0.9310073 
-0.4513053 -0.44500697 -0.7734936 
0.029183058 -0.5214873 -0.85275984 
-0.38894266 0.17341672 -0.904793 
-0.3680558 0.17522475 -0.9131437 
-0.37988707 0.13519447 -0.9151002 
0.39032426 0.8290871 -0.40032694 
0.48862886 0.34808493 -0.80004925 
0.4957983 0.86793536 -0.029533742 
0.4592447 0.85293555 -0.24818392 
0.5908903 0.28313607 -0.7554354 
0.7206998 0.66084486 -0.2094657 
0.9104407 0.05785259 -0.40957412 
0.056973193 0.13136716 0.9896953 
-0.02620267 0.36455822 0.93081194 
-0.31866598 0.5493426 0.7724473 
0.10503498 0.14244919 0.98421335 
0.09061113 0.9677742 0.23495261 
0.29275772 0.18400624 0.9383148 
0.32408747 -0.59516525 0.7353542 
-0.18912587 -0.96846956 0.16216722 
-0.13789433 -0.8019108 0.5813125 
-0.103383854 -0.7147201 0.6917276 
-0.36957183 -0.92114586 -0.1220944 
-0.7989108 -0.59248304 -0.10346656 
0.041796267 -0.6171423 -0.78574073 
0.14236708 -0.8606014 -0.48897538 
-0.5568407 -0.5379812 -0.6328544 
0.08230059 -0.068986654 -0.9942171 
0.5656832 -0.10064913 -0.8184573 
0.3949827 -0.1733864 -0.90217847 
0.15312274 0.10922008 -0.98215294 
0.6021349 0.5335572 -0.59392786 
0.5448288 0.38678384 -0.74401605 
0.47003365 -0.028582487 -0.88218564 
-0.09653873 0.29351842 -0.95106643 
0.3140977 0.063962184 -0.9472336 
0.46371302 0.67727184 -0.5712032 
-0.07967885 0.69520366 -0.7143831 
0.09807022 0.11867123 -0.9880786 
0.2513472 -0.7340619 -0.63085485 
0.45848867 -0.6899271 -0.5601685 
0.87327033 -0.22810562 -0.43054244 
0.8045977 -0.018091502 -0.5935448 
0.9457408 0.23957829 -0.21949156 
0.5134399 -0.8558743 -0.062119298 
-0.102342516 -0.81368625 -0.57222456 
0.57433766 -0.48985973 -0.65587634 
0.70813787 -0.6500896 -0.2755437 
0.855426 -0.43717182 0.27771804 
0.47548753 -0.7998173 0.36633855 
0.5480269 -0.5360129 0.64215016 
-0.25874358 -0.46839315 0.8447839 
-0.755198 -0.2512988 0.60541296 
-0.7769651 0.6077965 0.16403912 
-0.7884215 0.56618583 0.24046901 
-0.55991066 0.5009158 0.65998757 
-0.9287127 0.32149503 -0.18475321 
-0.42714983 0.2940753 -0.855022 
-0.30738413 0.72932917 -0.6112234 
-0.12522045 0.49679655 -0.8587858 
-0.5245041 0.13392112 -0.8408095 
0.017080236 -0.5288475 -0.848545 
0.07968476 -0.41707423 -0.90537256 
-0.15922825 -0.39697418 -0.90391266 
0.22956517 -0.6193701 -0.75078666 
0.7915337 -0.24920502 -0.5580066 
0.6163721 0.10151615 -0.7808841 
0.5124507 -0.39147198 -0.76429313 
-0.5425281 -0.3665249 -0.7558591 
0.4619346 0.25698388 -0.8488674 
0.28419045 0.5580194 -0.7796474 
0.15388286 0.23479848 -0.95978636 
0.1271225 -0.4012601 -0.9070999 
0.1527469 0.13409862 -0.9791251 
0.45812505 -0.8108684 -0.36416212 
0.36680242 -0.10694956 -0.92413086 
0.24676712 -0.4569202 -0.8545935 
0.36105993 -0.8219542 -0.44048515 
0.1488321 -0.11507639 -0.9821438 
0.69331044 -0.050710592 -0.71885264 
0.8751822 0.11566002 0.46976486 
0.9375785 0.20980301 -0.27736154 
0.82457393 0.44166118 0.35357204 
-0.032529652 0.9854802 0.16664587 
-0.7961701 0.45056993 0.4038564 
0.29293138 0.7032089 0.64783365 
0.50555557 0.75973576 0.40891945 
0.27123225 0.7610679 0.5892443 
-0.487717 0.588385 0.6449305 
-0.28700107 0.66470873 0.6897773 
-0.6921476 0.7020174 0.16764054 
-0.043604508 0.95993173 -0.27682087 
0.76985794 0.5941294 -0.233086 
0.39533395 0.9182048 0.024718428 
0.427007 0.30669832 0.85064757 
0.85394555 -0.008850215 0.5202872 
0.21168536 0.09280594 0.9729216 
-0.03241885 -0.19491428 0.9802844 
-0.30692187 -0.15427539 0.9391476 
-0.69114685 -0.60846937 0.38997576 
0.32122916 -0.94264 -0.09078383 
-0.13301142 -0.98634183 0.09714851 
0.18354446 -0.90255964 0.38948387 
0.4591099 -0.8847553 0.080163226 
0.20144847 -0.93766826 -0.28319025 
0.1650708 -0.9198119 0.35594624 
-0.26000845 -0.64569783 0.7179623 
-0.3613494 -0.40050766 0.8420334 
-0.79520166 -0.033724498 0.60540646 
-0.37883413 -0.8886767 0.25833756 
-0.0117439795 -0.96566963 0.25950766 
0.3369107 -0.8123727 0.47596413 
0.54742914 -0.5791711 0.6040548 
0.3095567 -0.9507493 0.01582625 
0.5116681 -0.80815357 0.2916912 
0.18098813 -0.8538391 -0.4880595 
0.6800466 0.67476416 -0.2867578 
0.4011092 0.76410323 0.5052305 
-0.0058884686 0.983053 -0.18322721 
0.6907919 0.7143951 -0.11156294 
0.65117645 0.054132503 -0.7569933 
0.19369888 0.72383744 -0.6622237 
0.3701903 0.7849779 -0.49675846 
-0.23832066 0.49466217 -0.83577067 
-0.25202885 0.533559 -0.8073391 
-0.00756588 0.5651239 -0.8249713 
0.28861213 0.5808849 -0.76110184 
0.27689126 0.46579 -0.84045887 
0.30809107 0.73157907 -0.60817105 
0.39935923 0.14805916 -0.90476 
0.31448913 -0.8299377 -0.4607603 
0.28220692 -0.55990916 -0.7790128 
0.4112908 -0.2756725 -0.868818 
0.37956285 0.37049454 -0.84774166 
0.49638867 -0.5268184 -0.68997157 
0.9866789 -0.12798427 0.10042309 
0.6435807 -0.6355249 0.42651147 
0.72232383 -0.28314468 0.63093376 
0.29524308 -0.20965391 0.93213564 
0.68523127 0.2516601 0.68346566 
-0.42139015 0.4366784 0.79482216 
0.22294343 0.8532978 0.47135863 
0.18846855 0.1803101 0.96538484 
0.20509401 0.09464165 0.97415584 
0.5750523 0.32784948 0.74955297 
-0.9060231 -0.1353747 0.4009936 
-0.93326026 0.21355589 0.2888239 
-0.87167203 0.2507848 -0.42106396 
-0.88056284 -0.1414119 -0.45234042 
-0.79213125 -0.19183227 -0.5794208 
-0.26459244 -0.14553626 -0.9533154 
0.16746561 -0.41888627 -0.8924627 
-0.10731299 -0.5301106 -0.8411105 
0.47922897 -0.41565302 -0.773028 
0.4325101 -0.30169228 -0.84965694 
0.44217256 0.17213845 -0.88025665 
0.56960183 0.15177928 -0.8077852 
0.9952027 -0.08166148 -0.053878807 
0.7879754 -0.40506244 0.46370187 
0.72136307 -0.57107204 -0.39180627 
0.998268 -0.033807505 0.04814737 
0.9015372 0.40032443 -0.16422892 
0.7571076 0.10825976 0.6442578 
0.9395304 -0.30496442 0.15581854 
0.6993888 -0.1251 0.70370823 
0.40781677 -0.581078 0.7042967 
-0.8550269 -0.044241946 0.516693 
-0.057821367 0.10601481 0.9926821 
-0.45727 -0.10284537 0.8833613 
-0.91841364 -0.054282267 -0.39187983 
-0.71633583 0.044433404 -0.6963395 
-0.58885556 0.4256382 -0.6870817 
-0.46205077 0.32478192 -0.825243 
0.47184488 -0.27806947 -0.8366839 
0.019879883 -0.5396217 -0.8416729 
0.5701218 0.1253511 -0.8119411 
0.15824588 -0.74416006 -0.648987 
-0.2368574 -0.5719896 -0.78531945 
0.28670704 -0.45674124 -0.84213215 
0.2752309 -0.86600703 -0.41746837 
0.4837295 -0.54615736 -0.6838991 
0.75720406 -0.069044985 -0.6495191 
0.5978461 -0.44381428 0.66753954 
0.41693327 -0.8648699 -0.27958336 
-0.5792112 -0.72159 0.3792392 
-0.32963565 -0.85536647 0.39961052 
-0.49036032 -0.8541587 -0.17308882 
0.061684553 -0.8894867 0.45277876 
-0.65941346 -0.63365805 0.40453866 
-0.9228979 -0.23756023 -0.30302605 
-0.49453083 -0.673535 -0.54935414 
0.67430127 -0.43954518 -0.5933952 
0.35411373 -0.19852151 -0.9138889 
0.92114854 0.07770525 -0.38137555 
0.6484484 0.71917826 -0.24959427 
0.71759075 0.5976059 0.357674 
0.82421976 0.56352985 -0.05563999 
0.89003795 0.3552897 -0.28566033 
0.8738159 0.26431865 0.40814412 
0.22444105 0.5993854 0.7683512 
0.112652 0.979394 0.16762125 
0.46644983 0.6669992 0.5809791 
-0.80939263 0.33225638 0.48424098 
-0.62638885 0.5643108 0.5377642 
-0.8085427 0.36934033 0.45808995 
-0.84629285 0.3708752 0.38241354 
-0.3715118 0.39132357 0.8419292 
-0.9300893 -0.2971629 -0.21593581 
-0.94498754 -0.32139903 -0.06083798 
-0.82632226 -0.5177201 -0.22171499 
-0.6455757 -0.66129977 -0.38198772 
-0.19908111 -0.881633 -0.42789033 
-0.04416072 -0.88883615 -0.4560923 
0.23761661 -0.8564276 -0.4583339 
0.57796955 -0.7712953 -0.26656103 
0.018706437 -0.9996448 0.018981691 
-0.22691 -0.696465 0.68077046 
-0.53480726 -0.27821156 0.7978594 
-0.40681532 -0.91091627 0.068796955 
-0.2804155 0.07290063 0.9571064 
-0.7328879 -0.19786273 0.65094215 
-0.51507187 -0.14781803 0.844305 
-0.23244731 -0.78315187 0.57675076 
-0.60229504 -0.60620624 -0.51937914 
-0.28673252 0.2500705 -0.9247969 
0.18827611 -0.37045726 -0.9095678 
0.12651953 -0.08996567 -0.987876 
0.88645643 0.016102392 -0.46253204 
0.316413 0.7914823 0.5229136 
-0.06212438 0.39881566 0.91492444 
0.040726162 0.8281797 0.55898106 
-0.11564437 0.5164487 0.8484735 
-0.7597904 0.41943747 0.49678043 
-0.53261304 0.8386986 -0.11361307 
-0.60637784 0.5379566 -0.5855841 
-0.13524076 -0.30099255 -0.94398814 
0.082318336 0.7546621 -0.6509292 
0.14372253 0.5637636 -0.81333536 
-0.25702187 -0.03609963 -0.96573114 
0.17224234 0.9001383 0.4001045 
0.797449 0.2960477 -0.52576697 
-0.8393351 -0.53218913 0.11086739 
-0.83301616 -0.5067164 -0.22208688 
-0.42643234 -0.4302141 -0.7956579 
-0.29424897 -0.90600306 -0.30426306 
-0.19830981 -0.97922987 -0.042214375 
-0.50944465 -0.6572676 -0.55539674 
-0.53074145 -0.83655185 0.13599525 
-0.80148876 -0.5975437 -0.023605611 
-0.83841074 -0.5428687 0.048590336 
-0.3643966 -0.92245334 -0.1276515 
-0.34052765 -0.39172503 -0.85474694 
-0.16088602 -0.7721562 -0.61472815 
-0.15715767 -0.05024144 -0.98629475 
-0.011781523 -0.9987531 -0.04851458 
0.2353187 -0.54221857 -0.8066128 
0.6074783 -0.17877783 -0.77395654 
0.34001872 -0.8781964 -0.33639032 
0.8695775 -0.09165556 -0.48521554 
0.8037518 0.19265693 -0.562909 
0.37261638 0.057266712 -0.9262168 
0.31669357 0.2669703 -0.9101825 
0.6262662 0.7608813 -0.16985385 
0.16753654 0.98580724 -0.010759565 
0.24835269 0.9679615 0.037034154 
0.25533405 0.94450754 -0.20666447 
0.24258843 0.55570483 0.7952 
0.6858259 0.19954045 0.6998761 
0.48529807 -0.045897868 0.87314326 
0.7213068 -0.27071723 0.6375177 
-0.08776609 -0.058721136 0.99440885 
-0.49099335 0.02765908 0.8707241 
-0.57506865 0.51395726 0.6365093 
-0.52485424 -0.093189724 0.84607553 
0.3574429 -0.18132491 0.91616374 
0.070765115 -0.8653662 0.4961186 
0.03402381 -0.93186426 0.3612083 
-0.34292796 -0.72608113 0.5959922 
-0.40907815 -0.8489923 -0.33446577 
-0.8061795 -0.09690659 -0.58368117 
0.43315288 -0.5117171 -0.7419733 
0.14011672 -0.81527257 -0.5618702 
-0.35411084 -0.50455356 -0.7874206 
-0.0003004333 -0.49328297 -0.8698689 
-0.41560382 -0.093679674 -0.9047086 
0.4611826 0.5596509 -0.68855035 
0.5926554 0.2509615 -0.76536137 
0.38112044 0.9113624 -0.15545404 
0.6804363 0.17867024 -0.7106923 
0.6050719 0.7211399 -0.33740973 
-0.17115086 0.76459455 -0.6213715 
-0.491282 0.76571894 -0.41511026 
0.17781948 0.938061 -0.29735792 
0.13519537 0.591677 -0.7947582 
-0.09244304 0.6544969 -0.750392 
0.34065574 0.6015574 -0.7225528 
0.28906873 -0.29945004 -0.90926844 
0.3457882 -0.043355577 -0.93731046 
0.7113955 0.08738552 -0.69733804 
0.7604945 -0.15196545 -0.6313119 
0.7484852 0.20137496 -0.63183707 
0.98095465 -0.19314353 0.020581989 
0.9988342 0.0076842466 -0.047658686 
0.79167426 -0.55980575 -0.24468228 
0.8911812 0.317341 0.32417727 
0.6090104 -0.38457003 0.6936946 
0.038185824 -0.9278455 0.3710049 
-0.017343488 -0.2762534 0.9609283 
-0.28569815 0.25946337 0.92252666 
-0.6447332 0.7200923 0.2564882 
-0.8067367 0.29595065 0.5114578 
-0.6701113 0.30636948 0.67608327 
-0.9517433 0.24457619 -0.18538421 
-0.15411882 0.50224376 -0.85088116 
-0.09986273 0.79844457 -0.59372866 
-0.10132334 0.6581599 -0.7460289 
-0.42696634 0.44879124 -0.785039 
-0.3472303 -0.03419037 -0.93715644 
0.087381005 0.02030547 -0.995968 
-0.25043023 0.34903294 -0.9030286 
-0.16332753 0.55161417 -0.81795233 
0.18256032 0.5724461 -0.7993605 
0.6076549 0.5514597 -0.57153106 
0.6358164 0.13407291 -0.7601066 
0.31054622 -0.10515995 -0.94472355 
-0.012470991 0.12315414 -0.9923093 
0.35608432 -0.04086272 -0.93356 
0.41485956 -0.10135928 -0.90422225 