# OOMMF: rectangular mesh v1.0
# Segment count: 1
# Begin: Segment
# Begin: Header
# Desc: Time (s) :  4.570000000000005e-07
# Title: m
# meshtype: rectangular
# meshunit: m
# xbase: 2e-09
# ybase: 2e-09
# zbase: 5e-10
# xstepsize: 4e-09
# ystepsize: 4e-09
# zstepsize: 1e-09
# xmin: 0
# ymin: 0
# zmin: 0
# xmax: 1.024e-06
# ymax: 1.024e-06
# zmax: 1e-09
# xnodes: 256
# ynodes: 256
# znodes: 1
# ValueRangeMinMag: 1e-08
# ValueRangeMaxMag: 1
# valueunit: 
# valuemultiplier: 1
# End: Header
# Begin: Data Text
-0.81735015 -0.367718 -0.44353384 
-0.68789417 0.06915937 -0.72250855 
-0.70114326 0.052148193 -0.7111109 
0.41752002 0.14950082 -0.8962849 
0.27165532 -0.68243426 -0.6785919 
-0.25289303 -0.17449257 -0.9516289 
-0.4366435 0.18181336 -0.88107115 
0.52704364 0.4217144 -0.7378225 
-0.29705858 0.25116652 -0.92123383 
0.09108828 -0.5824354 -0.8077574 
-0.09751259 -0.994161 -0.046208385 
0.07783167 -0.7205262 -0.68904597 
0.053918168 -0.98725724 -0.1497197 
-0.58780825 -0.79962647 -0.12279619 
-0.8712879 -0.4885994 0.04613171 
-0.77341515 -0.60075146 -0.20230329 
-0.9164984 -0.32751182 0.22971003 
-0.87860906 -0.45220324 0.15348765 
-0.5985216 -0.5852148 -0.5470792 
-0.9926516 -0.049249943 -0.11053201 
-0.5341345 -0.16662014 0.8288173 
-0.5696257 -0.80215186 0.17910635 
-0.9748197 -0.21531257 -0.058026567 
-0.23830354 -0.32343492 -0.9157518 
-0.18017337 -0.76506776 -0.6182304 
-0.346252 -0.5303917 -0.773818 
0.3622328 -0.92589253 -0.1072868 
0.2623898 -0.67773914 -0.6868925 
0.05754794 -0.53989244 -0.83976454 
0.052775662 -0.71474534 -0.6973908 
0.46965927 -0.07089577 -0.87999666 
0.7276834 0.4292269 -0.53501505 
0.29344878 0.94571394 -0.1396893 
0.39702246 0.688489 -0.6069235 
0.04637817 0.84096926 -0.5390917 
0.31929085 0.27361634 -0.9072968 
0.6576621 0.52957237 -0.53575534 
0.8225784 0.32556155 -0.4662344 
0.26886386 0.8011658 -0.5346453 
0.25400937 0.41762164 -0.87239414 
0.06345323 -0.34363666 -0.9369565 
-0.3592277 -0.15320785 -0.9205883 
0.36697152 -0.023761543 -0.92992866 
0.6631805 0.32105133 -0.67610484 
0.9998224 -0.015449753 -0.01080282 
0.8676815 -0.011887015 0.49697858 
0.9531161 -0.22646062 0.20071197 
0.8687984 -0.46662113 -0.16569267 
0.28389364 0.7823917 0.55431724 
0.40488183 0.3263021 0.85416496 
0.8740305 0.41955572 0.24503802 
0.6832518 0.3075537 0.66225207 
-0.28446075 0.010367144 0.95863163 
0.5148846 -0.3706783 0.7729757 
-0.55915785 -0.47221616 0.68143564 
-0.71717465 0.21318243 0.6634861 
-0.5738883 0.70252687 0.42084238 
-0.21217947 -0.6357971 0.74211997 
-0.60147744 -0.67276114 0.43083343 
-0.96185136 -0.04668651 0.26955986 
-0.048913393 -0.8954404 0.44248623 
0.11496092 -0.34326398 0.932177 
0.4600461 -0.23850235 0.8552627 
-0.2836284 -0.33352426 0.89906424 
-0.7031433 -0.7085099 0.060027454 
-0.7865498 -0.5599757 -0.2603201 
-0.3437707 -0.76691324 -0.5419095 
-0.31773663 -0.71183336 -0.6263679 
-0.6957107 -0.3998251 0.59676343 
-0.3308387 -0.6878133 -0.6461105 
-0.904994 -0.33496034 0.26227358 
0.044964813 0.08194219 -0.99562234 
0.45023087 -0.29627478 -0.8423262 
-0.02419487 -0.98537153 -0.16869417 
-0.028582849 -0.99745214 -0.065362036 
-0.51718485 -0.8267113 -0.22151369 
0.4051176 -0.7448621 -0.5301512 
0.7312918 -0.5829217 0.35413957 
-0.3895524 -0.29029956 0.8740568 
-0.23984143 -0.9171011 -0.31843653 
-0.77857304 -0.56427217 0.27462855 
-0.19043764 -0.8552959 0.4818738 
0.4030096 -0.33948115 0.84990346 
-0.014750465 -0.14633109 0.9891257 
-0.34070686 0.09921702 0.9349198 
0.091882944 -0.1918575 0.9771122 
-0.7899027 0.2901214 0.5402623 
-0.75872135 -0.6461003 -0.08304434 
-0.9348151 0.1559024 -0.31908524 
-0.61178267 -0.37402758 -0.69701177 
-0.00769896 -0.31912416 -0.94768167 
0.13079366 -0.064451255 -0.98931247 
0.45356327 0.19030474 -0.870669 
0.4753681 0.00042738143 -0.87978697 
0.97709066 -0.2020251 0.066931516 
0.9015801 -0.31176755 0.29992387 
0.8686932 -0.4354112 0.23619765 
0.87669516 -0.40160137 0.26480553 
0.65290767 0.24772634 0.71578157 
0.98155475 -0.012673837 -0.19076121 
0.90454435 -0.18812346 0.38263437 
0.51293063 -0.5292558 0.6758628 
-0.026207138 -0.83674127 0.5469711 
-0.016441764 -0.6849791 0.7283772 
-0.054572098 -0.91031414 -0.41030487 
0.26558673 -0.9447529 -0.19210893 
0.42805395 -0.122125626 -0.8954637 
0.3736683 -0.38138524 -0.8455278 
-0.14111876 0.21585037 -0.9661751 
-0.0052427733 -0.06434104 -0.99791425 
0.715763 -0.2522179 -0.6512062 
0.9695298 -0.24220484 -0.036726717 
0.6356612 -0.64989597 -0.41661748 
0.64277285 -0.6870538 0.3388219 
0.55257595 -0.8186535 0.15641725 
-0.46270907 -0.8192471 -0.33872458 
-0.20951739 -0.61360514 -0.7613089 
-0.4464547 -0.41590795 -0.7922744 
-0.24052334 -0.20250684 -0.9492837 
0.15778264 0.06806178 -0.98512554 
0.7287176 -0.30868474 -0.61129737 
0.47626883 -0.42336902 -0.7706664 
0.7669306 0.19167262 -0.612437 
0.8240678 0.18102026 -0.5367906 
0.7464324 -0.022379976 -0.66508484 
0.6893767 -0.6428063 -0.33400577 
0.935734 -0.10300455 -0.33733067 
0.8983397 0.42098814 -0.12551822 
0.85210526 -0.31613672 0.4171022 
0.4863477 0.6273431 0.6081994 
-0.08187111 -0.10345648 0.99125874 
-0.8947842 -0.27244192 0.35374677 
-0.21141136 0.63588876 0.74226063 
-0.86761516 0.4747005 -0.14799815 
-0.823133 0.23350951 -0.5176151 
-0.41781655 0.64906013 -0.6357283 
0.029392779 0.17167825 -0.98471457 
0.0632869 0.06601643 -0.9958095 
0.5614313 0.3544268 -0.74778116 
0.10737394 -0.15947956 -0.98134464 
0.564164 -0.25457966 -0.785435 
0.5275009 -0.3303701 -0.78268665 
0.63865733 -0.6694897 -0.37934223 
0.21792336 -0.44452804 -0.8688523 
0.13511118 -0.9900735 -0.038724605 
0.4675033 -0.836588 -0.28558913 
0.45662236 -0.59007645 -0.66581225 
-0.09086959 -0.90989614 -0.40476125 
0.61204636 -0.15136886 -0.7762002 
0.57762855 -0.7613818 -0.29435208 
0.90909696 -0.15307091 0.387443 
0.25581133 -0.6445799 0.7204703 
0.19223997 -0.4278088 0.8831894 
-0.18551348 0.24932425 0.9504853 
0.30565464 -0.19791342 0.9313461 
-0.076322764 -0.2919187 0.9533931 
0.11099145 -0.79494315 0.59644485 
-0.14565778 -0.92515856 -0.35052174 
0.41737527 -0.62986135 -0.65503633 
-0.26648274 -0.9635885 0.02200829 
-0.2745226 -0.74068826 0.6132033 
-0.50574744 -0.5823378 0.6364764 
-0.9753282 0.20830682 0.07309662 
-0.8470908 0.25794682 0.46465123 
-0.77142525 -0.4441028 -0.45571467 
-0.4685403 -0.29544252 -0.8325767 
-0.37878948 -0.6360628 -0.6722668 
0.6187067 -0.4046448 -0.6733979 
0.82143253 -0.37556255 0.42918715 
0.5853012 -0.60075796 0.5445296 
0.6900844 -0.723716 -0.0043356298 
0.24597983 -0.96911657 0.017523931 
0.4075948 -0.64134425 0.65003395 
0.34805208 -0.92213035 -0.16892454 
-0.29807255 -0.89421195 0.33397266 
-0.51371115 -0.42398897 0.7458782 
-0.64033943 -0.34297937 0.6872632 
-0.9294787 -0.03157412 0.3675222 
-0.41212356 0.7565682 -0.5076996 
-0.9359105 0.13817039 -0.324007 
-0.95841753 -0.008689556 -0.28523752 
-0.8826111 -0.22408114 -0.41326204 
0.25568295 0.43196297 -0.8648898 
-0.090838686 -0.84962845 -0.5194997 
0.37465116 -0.92338717 -0.08362299 
-0.2007843 -0.96740746 -0.15430014 
-0.34852496 -0.91862464 -0.18617015 
-0.018445311 -0.65790343 -0.75287634 
-0.24462754 -0.911891 -0.32956395 
-0.37114814 -0.8183267 -0.43885133 
-0.47259942 -0.8183258 -0.3270974 
-0.3438748 -0.80168885 -0.48892245 
-0.14840996 -0.98128587 0.12268902 
-0.11330341 -0.9921974 -0.05202705 
-0.29656717 -0.84795123 -0.43934792 
0.07749533 -0.83164304 -0.54987675 
0.08519165 -0.72282207 -0.6857629 
-0.5409995 -0.6961786 -0.4718632 
-0.86960834 -0.44982007 -0.20357652 
0.065022364 -0.8283885 -0.55636734 
0.52939355 -0.7574761 0.38206357 
-0.3706392 -0.61669207 0.69449085 
0.016451173 -0.2126373 0.9769928 
0.34931442 -0.7632436 0.5435427 
-0.08593805 -0.65591425 -0.74992746 
0.36249045 -0.4411383 -0.8209737 
0.11995323 -0.73614866 -0.66610545 
-0.15576203 -0.5321746 -0.83218294 
-0.14321308 -0.7809901 -0.6079016 
0.88656795 -0.32219836 -0.3319422 
0.64268285 0.70322806 -0.30402154 
0.61102915 -0.68478036 0.397139 
0.2183692 -0.50788367 0.83328825 
-0.06902712 -0.6864671 0.72387725 
0.5108392 -0.5576855 0.65424025 
0.1602064 0.16309305 0.9735166 
-0.29395524 0.3167805 0.90179855 
0.5465832 0.64309174 0.53635806 
0.3156446 0.594227 0.73977214 
0.5417738 0.60643727 0.5819922 
-0.43782684 -0.6885824 0.57806736 
0.41309452 -0.048017636 0.9094214 
0.3837994 0.121508576 0.91538715 
0.24053742 -0.8598155 0.450399 
0.4821741 -0.10823132 0.86936426 
-0.44102186 -0.89745694 -0.008415512 
0.055905607 -0.8672632 -0.49470112 
-0.43515018 0.13704032 0.8898676 
0.20462625 -0.44884843 0.869864 
-0.88031536 -0.339144 0.33170208 
-0.88957345 -0.06962612 0.4514546 
-0.7033103 -0.6934561 0.15643954 
-0.8956602 -0.36255002 -0.25758556 
-0.5194377 -0.85450757 -0.0011383476 
0.052132428 -0.46910632 -0.8816017 
0.60479665 -0.7929819 -0.073490344 
0.88992566 -0.45178324 -0.062644966 
0.68392944 0.4254002 0.59268486 
0.6521904 -0.64067495 -0.40519556 
0.823387 0.165168 0.5429119 
0.715812 -0.13254811 -0.6855978 
0.7356779 0.45790008 0.49910492 
0.6547476 0.10102291 0.74906605 
0.3481935 0.24189001 0.90567684 
0.11602412 0.44971105 0.88560635 
0.5125294 0.40808144 0.755502 
0.0044613793 0.4047603 0.9144119 
0.21934184 0.17814142 0.95924705 
0.36908197 0.47673473 0.79781115 
0.0011490271 0.67087555 0.74156916 
-0.8087905 0.019644815 0.5877687 
-0.70635605 -0.5830471 -0.4013942 
-0.32676414 -0.9083092 -0.26115078 
-0.276845 -0.75431836 -0.5952821 
0.08255448 -0.6226546 -0.7781299 
0.39785367 -0.71271497 0.57771087 
-0.90909153 0.2475978 -0.33503446 
-0.9459126 0.3238978 0.018428456 
-0.7179711 0.336033 -0.60958964 
-0.39702135 -0.52983284 -0.74943405 
0.2484679 -0.14732082 -0.95737153 
-0.209771 0.4322458 -0.8770176 
-0.1993594 0.547083 -0.81299204 
0.8563621 0.10820057 -0.5049126 
0.47840273 0.45221847 -0.75274783 
0.9491293 -0.1893426 -0.25160077 
0.8757207 -0.28501412 0.38971806 
0.16118877 -0.98619694 -0.03786761 
-0.656205 -0.7488918 0.092499405 
-0.30001453 -0.9443824 0.13465966 
-0.14638786 -0.60583746 0.78200495 
-0.42867878 -0.83510065 0.3447338 
-0.5130896 -0.5162449 0.6857335 
-0.76882917 -0.6053272 0.2061089 
-0.82479924 -0.26785997 -0.4979532 
-0.70628524 -0.61731637 0.3465281 
-0.9701949 -0.23612899 -0.054453705 
-0.46547496 -0.5564749 -0.688236 
0.56842756 0.07026981 -0.819727 
0.7762642 -0.3632299 -0.5152457 
-0.23136754 -0.7212931 -0.65284413 
-0.47424248 -0.45066926 -0.7563011 
0.53514904 -0.11273417 -0.8372016 
0.27970868 -0.035744924 -0.9594193 
0.16580027 -0.73919594 -0.6527631 
0.37969846 -0.740664 -0.5542977 
0.5246078 0.09784123 -0.8457032 
-0.0046343445 0.7560076 -0.65454644 
0.73737115 0.4487577 -0.5048767 
0.3161577 0.9487057 0.0013669055 
-0.09604709 0.97095776 -0.21912564 
0.38685066 0.5023849 -0.7732761 
-0.0700015 0.6596304 -0.74832314 
0.32626578 0.6654422 -0.6713698 
0.2642622 0.77509266 -0.57393116 
0.29172206 0.67233014 -0.6803459 
-0.56419 0.42565233 -0.7074672 
-0.39527118 -0.03611872 -0.91785413 
0.0074002557 0.33378056 -0.9426218 
0.53482455 0.07783243 -0.84137076 
0.60168606 0.10953884 -0.791186 
0.78357637 -0.065714374 0.6178105 
0.9770334 -0.00035937238 -0.21308613 
0.98717415 -0.040396035 -0.15445185 
0.85082114 0.3986249 -0.34234712 
0.9236051 0.18442206 -0.33606878 
0.90848184 0.4178765 0.0063222665 
0.19483161 0.5601224 0.80517316 
-0.25888592 0.6780039 0.68795997 
-0.4698617 0.26037222 0.84346694 
-0.5743368 -0.5009865 0.6474177 
-0.9251066 -0.17106918 0.33898833 
-0.9977962 0.0654795 -0.010741038 
-0.57874936 -0.81463426 -0.03768697 
-0.6725059 -0.6346805 -0.38067916 
-0.86582834 -0.49177527 0.09218655 
-0.15393344 -0.3551959 0.92203057 
-0.42318773 0.16284953 0.8912869 
-0.60067886 -0.26981485 0.75258553 
-0.59906155 -0.7947918 -0.09711493 
-0.6796631 -0.70247185 -0.21116658 
-0.72902846 -0.63416016 0.2576014 
-0.96045434 -0.2777681 0.019301265 
-0.92163736 -0.3842395 -0.054263797 
-0.8566408 -0.24356498 0.45479968 
-0.74809825 -0.6634767 -0.012154042 
-0.8943049 -0.44694048 -0.021518812 
-0.06757854 -0.5710608 -0.8181216 
0.17268641 -0.74940693 -0.63919383 
0.06906101 -0.35228056 -0.933343 
0.85818845 -0.46176502 -0.22424476 
0.025002522 -0.8786194 -0.47686774 
0.24491523 -0.9040126 -0.35039666 
0.2876789 -0.86602634 0.40894893 
0.4250243 -0.6616654 0.61770004 
0.07059335 -0.9087475 -0.41133258 
-0.055727422 -0.6364133 0.7693326 
-0.13370706 -0.5966261 0.79130256 
0.11060399 -0.4342062 0.89399767 
-0.19065647 -0.5894842 0.7849577 
-0.2532065 0.069392726 0.9649203 
-0.5625891 -0.5240864 0.63939583 
-0.8443658 -0.03756663 0.53444856 
-0.98833627 0.0490429 -0.14417426 
-0.49144366 0.065829076 -0.8684179 
-0.09230581 -0.65673566 -0.74845046 
-0.060175598 -0.22296642 -0.97296715 
0.13564721 -0.6731629 -0.72694683 
0.49556544 -0.6175825 -0.61074287 
0.10124595 -0.6132653 -0.7833613 
0.8279051 -0.16100211 -0.537263 
0.94480896 -0.3035096 0.1233615 
0.8481681 -0.45626402 -0.26913604 
0.75780773 -0.45586365 0.46681476 
0.112285875 0.74540365 0.6570886 
0.46396822 -0.2796861 0.84054106 
0.07806631 -0.5149241 0.8536737 
-0.3462069 -0.61591536 0.70766455 
-0.80125576 -0.4605777 0.3819127 
-0.46717936 -0.88414997 -0.004732136 
-0.51660395 -0.7374716 0.43503582 
-0.6350812 -0.25324368 -0.7297531 
-0.43559465 0.23075713 -0.8700624 
0.52992046 -0.29597697 -0.79472136 
0.43006504 0.50160444 -0.75062454 
0.31407136 0.35915783 -0.8788429 
0.27187395 0.009871462 -0.9622823 
0.80393934 0.091354646 -0.5876528 
0.7248644 0.12628467 -0.67721766 
0.12857853 -0.48772597 -0.8634761 
0.026100252 -0.34237772 -0.9391998 
-0.1334413 -0.82843506 -0.5439565 
-0.021628115 -0.40460062 -0.91423774 
-0.7153294 -0.16799644 -0.6782928 
-0.33336243 -0.10805192 -0.93658656 
-0.1825743 -0.43342662 -0.88250107 
0.23387782 0.19046469 -0.9534278 
0.5751722 -0.575748 -0.581112 
0.6581125 -0.46922746 -0.58882385 
0.5152385 -0.59276974 -0.6189938 
-0.040149067 -0.3712951 -0.9276465 
0.3627207 -0.5086942 -0.7808099 
0.8971698 -0.2935992 -0.32997864 
0.6998308 0.7101032 -0.07739703 
0.35140532 0.81807905 -0.45525938 
0.5841382 0.70396864 0.4039935 
0.44274083 0.75277996 0.48713756 
0.32244524 0.8174919 0.47721717 
-0.21568683 0.84889466 0.48255277 
-0.25145406 0.80890656 -0.5314518 
-0.6542106 0.6932631 -0.30231565 
-0.7319992 0.374585 -0.5690899 
-0.31447405 0.33290157 -0.8889785 
-0.23866275 0.41931865 -0.87590635 
0.06669344 -0.09465737 -0.99327344 
0.061964925 -0.24159949 -0.9683957 
0.03717933 -0.89062196 -0.45322224 
0.4936081 -0.8084829 -0.32047856 
-0.049880866 -0.60041684 -0.79813 
0.25442743 -0.34935236 -0.901787 
0.14823307 -0.6873812 -0.7110092 
0.05885463 -0.3861822 -0.920543 
-0.03676805 -0.7108284 -0.7024038 
-0.13972884 -0.41146973 -0.900649 
0.6293538 0.12380348 -0.7671939 
0.47987214 0.87141675 0.101762824 
0.98169583 0.1602821 -0.102873564 
0.8993316 0.34833026 0.26432696 
0.7506784 -0.11858007 -0.64993894 
0.62605906 0.6623195 0.41156167 
-0.67428935 0.6883883 0.26731175 
-0.33443648 0.42125478 0.84302837 
-0.44696188 -0.19095142 0.8739351 
-0.581527 -0.8003378 0.14589693 
0.18580996 -0.79249996 -0.58087736 
-0.1198696 -0.9601447 -0.2524946 
-0.0654078 -0.74643505 0.6622361 
-0.6964042 -0.47509313 0.53787345 
-0.5286495 -0.70765287 0.4687826 
-0.9239877 -0.32141992 0.20721027 
-0.64124274 -0.74532187 -0.18249139 
-0.8921882 -0.37873417 -0.24609081 
-0.08778848 -0.5486277 -0.83144504 
0.94881254 0.024785822 -0.3148657 
0.43318483 -0.86810607 0.24236895 
0.60064554 -0.50805783 0.61733484 
0.08640598 -0.96181184 -0.2597154 
-0.05969437 -0.9933154 -0.098799095 
0.20584895 -0.8911164 0.40439838 
-0.21416354 -0.8529644 0.47601035 
-0.6097721 -0.7792402 -0.14478499 
0.03879081 -0.8126455 0.5814659 
-0.7012493 0.042865552 0.7116263 
-0.8164363 0.51741874 0.25633878 
-0.2632709 0.7137015 -0.64909065 
-0.1051343 -0.27492383 -0.9557007 
-0.8154988 -0.47834074 -0.32580978 
-0.48925534 -0.5238885 -0.697259 
-0.6742909 -0.6740157 -0.30171955 
0.18800282 -0.71595097 -0.672361 
-0.29860067 -0.78236574 -0.5465725 
-0.41468042 -0.49017102 -0.76666325 
-0.6370691 -0.5146898 -0.5737922 
-0.28656372 -0.8170485 -0.500313 
0.55544364 -0.8178864 -0.15014781 
-0.24316366 -0.8967093 -0.36984316 
-0.079292305 -0.97035587 -0.22830285 
-0.25551474 -0.7869465 -0.56162935 
-0.073877566 -0.9782274 0.19394188 
-0.84307504 -0.43653592 -0.31410342 
-0.50036603 -0.23397581 -0.8336001 
0.2588067 -0.5382988 -0.802031 
0.38690495 -0.92019403 -0.05956264 
0.14923573 -0.98267174 -0.10993153 
-0.28404495 -0.88542163 -0.36789542 
0.44295406 -0.75924647 -0.47679842 
0.76769954 -0.55089116 -0.32734767 
0.7496971 -0.6132111 0.24885018 
-0.042582653 -0.93259245 0.35841048 
0.10228425 -0.7792923 -0.6182569 
0.8403389 -0.4941211 -0.22287878 
0.60381407 -0.3628413 -0.7097569 
-0.05517778 -0.58575845 -0.8086054 
0.13924189 -0.6867241 -0.7134576 
0.385894 -0.25142923 -0.88762003 
0.8363248 -0.3776506 -0.39741787 
0.8894377 -0.45143813 0.07144457 
0.88234365 -0.009159354 0.47051653 
0.2179599 -0.3995655 0.8904162 
-0.42946765 -0.5063764 0.7477571 
-0.14871864 -0.7899054 0.59492207 
-0.13603541 -0.92228585 0.36177793 
-0.106281 -0.2883768 0.9516004 
0.042669818 0.25869474 0.96501625 
-0.67851514 0.046106104 0.7331381 
-0.6830001 -0.032761145 0.7296833 
-0.31578448 -0.78401375 0.53441817 
0.4342531 -0.8239854 0.36396778 
0.75733536 -0.1310127 0.63974905 
-0.23979464 -0.671438 0.7011916 
-0.9115784 -0.38436761 0.1458986 
-0.7511149 -0.65084046 0.11060339 
-0.5540887 -0.71404016 0.42793983 
-0.6472095 -0.63629544 0.41981897 
-0.8675674 -0.48799902 -0.09583284 
-0.75172555 -0.16642697 -0.63813066 
-0.18884353 -0.71658266 0.6714518 
-0.23910753 -0.92566985 -0.29319438 
-0.78590584 -0.57595867 -0.22499745 
-0.2880364 -0.9135974 -0.28701037 
0.22557557 -0.8070853 -0.54564565 
-0.1026099 -0.845927 -0.52333444 
0.4809862 -0.47115463 -0.7393684 
0.72815555 -0.6652568 0.16499352 
0.7949672 -0.35450938 0.4922909 
0.9374371 0.3092118 0.15999949 
0.694943 0.31881714 0.64452296 
0.949038 -0.28334957 0.13798559 
-0.06458439 -0.01417348 0.9978116 
0.04068594 -0.3505595 0.93565637 
-0.41695255 0.10397525 0.90296173 
0.3232009 -0.3166855 0.8917688 
-0.39719486 -0.20636466 0.89423144 
0.1173863 -0.31238997 0.9426733 
0.16509844 -0.29705086 0.9404804 
-0.18049021 -0.2721812 0.94516706 
-0.8827397 0.037538663 -0.4683604 
-0.8564176 -0.51549363 -0.028551789 
-0.58823013 -0.7953672 0.14620706 
-0.24645695 -0.6456011 -0.7228128 
-0.46918893 -0.29280195 -0.83314395 
0.40487465 -0.7888496 0.46237734 
-0.9926689 0.033363625 0.1161691 
-0.7976172 0.25521275 -0.5465102 
-0.99989223 0.014680142 0.0004072929 
-0.30783945 -0.43949488 -0.8438478 
-0.3261159 -0.36333668 -0.87271696 
-0.20886537 0.46856943 -0.858381 
-0.14773145 -0.39918628 -0.90488994 
0.32189655 0.088131905 -0.94266397 
0.5108104 0.6607171 -0.55002344 
0.5617274 0.5239784 -0.6402413 
0.75941885 -0.56427974 0.3238385 
-0.17041765 -0.8849049 0.43347576 
0.3023191 -0.8585913 0.41403392 
0.20797056 -0.8932206 0.3986292 
-0.7335907 -0.42297897 0.5319149 
-0.3774966 -0.9259855 -0.0068766885 
-0.13388745 -0.9887993 0.06595644 
-0.21066305 -0.8892722 -0.4059753 
-0.60016257 -0.70392686 -0.37985778 
-0.6366659 -0.49999008 -0.58708316 
-0.68848073 -0.5979774 -0.41038695 
0.2986136 0.005236055 -0.9543598 
0.68789315 -0.040506415 -0.72468084 
0.9155991 0.109079376 -0.38701406 
0.70241773 0.26592234 -0.6602232 
0.2597375 0.3995384 -0.8791504 
0.86059463 -0.117993526 -0.49543375 
0.4349604 0.051118746 -0.89899737 
0.88302416 -0.023160376 -0.468756 
0.8664881 -0.063287295 -0.49516973 
0.68975526 0.64379954 -0.33130014 
0.2502395 0.8728024 0.41904214 
-0.09271929 0.8952673 -0.43577492 
-0.00033193937 0.99987566 -0.015763855 
0.51934284 0.71271193 -0.47151333 
0.6682179 0.6996246 -0.25300282 
-0.21719505 0.9611267 -0.17047553 
-0.1059785 0.9941523 0.020735124 
0.432515 0.83261687 -0.3459481 
-0.116068594 0.5377407 -0.8350827 
-0.7920214 -0.10409098 -0.6015541 
-0.2662883 0.11803923 -0.9566385 
0.4274488 0.347032 -0.83477926 
0.17488243 0.035703145 -0.9839418 
0.7034869 -0.06637859 -0.70760167 
0.98078316 -0.1915138 0.03724046 
0.99117905 -0.09859483 0.08856259 
0.60170025 -0.11590012 0.79026836 
0.82129973 -0.04190035 0.56895614 
0.9844215 0.13844968 0.10837868 
0.8858575 0.103198856 0.4523345 
-0.04770391 0.043496504 0.997914 
-0.6313773 0.0005790654 0.77547556 
-0.7739742 -0.3270416 0.54222494 
-0.77538234 -0.3957504 0.49210155 
-0.60438097 -0.76088625 0.23616898 
-0.4681488 -0.023059282 0.8833487 
-0.9063496 -0.29416323 0.30331236 
-0.63072324 -0.77486676 0.042068925 
-0.6935364 -0.65177524 -0.30691427 
-0.92343366 0.013279892 0.3835285 
-0.5817481 -0.7394897 0.33870965 
-0.6490785 -0.485116 0.58596903 
-0.9957149 -0.09163865 0.012417197 
-0.35450685 -0.93437123 0.03571248 
-0.8452988 -0.2961263 -0.44472384 
-0.42630568 -0.7494358 -0.50656646 
-0.51840496 -0.81862414 -0.2472061 
0.31336948 -0.6640934 0.67880756 
-0.7454814 -0.65438145 -0.1266587 
-0.5341851 -0.8374183 0.115658365 
0.2817938 -0.48856902 -0.8257678 
0.22901069 -0.10181167 -0.96808505 
0.34532475 0.049993478 -0.9371508 
0.36201715 -0.39462242 -0.84452164 
0.59054226 -0.7173339 -0.36971873 
0.31361747 -0.53559095 -0.7840832 
0.21406667 -0.7192726 -0.6609255 
0.5857749 -0.78434896 0.20411891 
0.05775139 -0.9858644 -0.15727769 
-0.3792524 -0.75810987 0.5305065 
-0.47771132 -0.8199017 0.31552032 
0.058021653 -0.9834762 0.17148769 
0.5929266 -0.70137256 0.39561933 
-0.21071844 -0.4877638 0.84716254 
-0.2611338 -0.73053914 0.6309689 
-0.28191808 -0.9566971 0.07247656 
0.17176163 -0.81284153 -0.5565848 
0.24583995 0.014471274 -0.96920246 
0.0010939117 -0.6927481 -0.7211789 
-0.23636995 -0.70237035 -0.6714203 
0.2873737 -0.25961265 -0.9219641 
0.41404617 -0.36146483 -0.83540946 
0.86855084 -0.2179276 -0.44511473 
0.99505895 0.07849863 0.06079368 
0.7329144 -0.6457742 0.21403812 
0.98520744 0.03665516 0.16740029 
0.900865 -0.18164079 0.39427006 
0.7428139 -0.56417584 0.36046255 
0.25355905 -0.57255954 0.7796688 
-0.18071872 -0.15153137 0.9717916 
-0.64007586 -0.1700037 0.74926746 
-0.92720497 -0.18536352 -0.32547104 
-0.8179625 -0.29026604 -0.49667192 
-0.27680477 -0.58009416 -0.7660743 
-0.7564999 -0.41694626 -0.50384885 
-0.046407778 0.24036743 -0.969572 
0.21013793 -0.105908304 -0.97191846 
0.028379906 0.39465913 -0.9183892 
0.5861338 -0.46029127 -0.6667678 
0.725906 -0.22054328 -0.6514762 
0.8954286 0.011633945 -0.44505334 
-0.34011525 -0.09578937 -0.93549246 
-0.38023832 -0.6555209 -0.6524655 
-0.57333916 -0.2859761 -0.767789 
-0.13779204 -0.65773934 -0.7405352 
-0.014372496 -0.050364293 -0.99862754 
-0.6203488 -0.115868606 -0.7757203 
-0.17792468 -0.21652514 -0.95992696 
-0.62626874 0.23756374 -0.74253017 
-0.040931046 0.58697224 -0.8085718 
0.40313438 0.16899255 -0.8994022 
0.5784335 -0.1543805 -0.8009878 
0.58923095 0.32256052 -0.7407845 
-0.028630517 0.13582094 -0.99031967 
-0.10294997 -0.20729576 -0.9728462 
0.99236614 0.12004518 0.028259903 
0.7281433 0.67857707 0.09664716 
0.4436252 0.8100047 0.383522 
0.33532608 0.78640765 0.5187674 
0.42307287 0.6521623 0.62904197 
0.5583374 0.7829533 0.2743058 
0.33272088 0.31355998 0.8893689 
-0.58954084 0.807727 0.004357025 
-0.88851255 -0.0025048237 -0.45884573 
-0.4295076 0.041955248 -0.90208817 
-0.21673615 0.061746992 -0.9742756 
-0.2126496 0.6259598 -0.750303 
0.13860826 -0.078848064 -0.9872035 
-0.24292134 0.59271705 -0.76790345 
0.07228924 -0.48952988 -0.868985 
-0.14974259 0.17520155 -0.9730784 
0.48978925 -0.05617096 -0.8700295 
-0.116831034 -0.35319993 -0.9282243 
-0.21267961 0.0920044 -0.9727808 
-0.022547424 -0.37388504 -0.92720103 
-0.30170867 0.47943956 -0.82408106 
-0.46421826 0.71678174 -0.5203129 
-0.15362784 0.62081003 -0.7687609 
0.5865411 0.2598221 -0.7671129 
0.58947116 0.34532103 -0.7302583 
0.9810162 0.19392452 0.00080347335 
0.53969145 0.42495334 0.72673786 
0.11339481 0.3464182 0.9312015 
-0.32083085 0.45122448 0.832745 
-0.32878458 0.6112073 0.71994895 
-0.9192682 -0.3388325 0.20034635 
-0.56167644 -0.45013168 -0.69419104 
-0.031113442 -0.9182364 -0.39480877 
0.36390573 -0.8951222 -0.2575442 
0.45678192 -0.87552416 -0.15750466 
-0.2883413 -0.5888624 0.75504994 
-0.2852058 -0.89591485 -0.34057924 
-0.33466268 -0.74623144 -0.5754473 
-0.6332886 -0.51858157 -0.57447255 
0.35254294 -0.742238 -0.56990904 
0.3991258 -0.46389198 -0.7908873 
0.58353645 -0.75136226 -0.30812362 
0.71659255 -0.69660836 -0.035100527 
-0.19146751 -0.9423016 0.27460533 
-0.102081284 -0.92092127 -0.37614295 
0.15055135 -0.9698375 -0.1917019 
-0.41901454 -0.82326853 -0.3829566 
0.360503 -0.90222657 0.23669557 
-0.31780744 -0.3377301 0.88596666 
-0.74471366 -0.5692594 0.34834668 
-0.58824915 -0.77180755 0.2414047 
-0.75155216 -0.62698627 0.20507991 
-0.8795327 -0.292865 -0.37503654 
-0.48097727 -0.13203399 -0.866734 
-0.7550292 -0.4443293 -0.4821851 
-0.083827615 -0.07408311 -0.9937226 
-0.7611682 -0.59405595 -0.26023173 
0.3896394 -0.6077235 -0.69199234 
0.019605942 -0.5530723 -0.83290255 
-0.24247073 -0.77253836 -0.5868497 
0.52283484 -0.8459716 0.104765534 
-0.098416895 -0.9006524 -0.42324874 
0.39089647 -0.9174615 -0.07392206 
0.31871268 -0.9335132 -0.1642417 
0.022675063 -0.99974144 0.0017084426 
-0.39233005 -0.18255211 -0.9015276 
-0.61946243 0.33799544 -0.7085376 
-0.21744213 0.114394955 -0.96934664 
-0.08577403 -0.50982904 -0.855989 
0.17136781 0.084421575 -0.9815835 
-0.031792402 -0.8781914 -0.47725168 
-0.102288306 -0.61126864 -0.78478515 
-0.11126885 -0.36023146 -0.92620325 
0.30128095 -0.7648441 -0.5694238 
0.29776224 -0.8714399 -0.38978252 
0.2983372 -0.8993341 -0.3196767 
0.007693389 -0.6937021 -0.72022104 
0.08844717 -0.5376354 -0.8385257 
0.9748961 -0.16798773 0.14614347 
0.8364305 -0.3974767 -0.37735435 
0.23321564 -0.3569575 -0.9045396 
0.28126854 -0.21927452 -0.93424124 
0.7223577 -0.26784337 -0.6375417 
0.79993016 -0.2788171 -0.53138775 
0.7380673 -0.27798897 0.61479986 
0.049277544 -0.080368795 0.99554646 
0.018463567 -0.40829802 0.912662 
0.09006997 -0.8826395 0.46134034 
0.25637743 -0.6367918 0.7271636 
0.21123947 -0.8575378 0.46904895 
-0.10008665 -0.6969909 0.71006083 
-0.33387986 -0.9276994 0.16702753 
-0.8116381 -0.51857954 0.2689218 
-0.3481093 -0.78207606 0.51689166 
-0.79863554 -0.54920995 0.24606861 
0.042148404 -0.9885433 -0.1449337 
-0.0026122825 -0.92032176 0.39115354 
-0.3152775 -0.8156238 -0.48513716 
-0.25247487 -0.69602793 -0.67216194 
-0.46174 -0.8604573 -0.21542865 
-0.34566826 -0.88609815 -0.3087777 
-0.80884117 -0.30082506 -0.5052527 
-0.5206609 -0.62592137 -0.5806331 
-0.59790206 -0.58097273 -0.5522534 
0.00277408 -0.92424774 0.38178325 
-0.06886447 -0.9941284 -0.08346504 
-0.26669714 -0.8586571 -0.4376994 
0.22097717 -0.9662585 0.13233937 
0.37542108 -0.83038473 -0.41172856 
0.08440191 -0.97694963 0.19607592 
0.53249264 -0.8288074 -0.17184277 
0.9921392 -0.019929456 -0.123542294 
0.81136173 -0.5843104 -0.016537918 
0.7531975 -0.18494092 0.63126093 
0.71926713 -0.57892215 0.38406256 
0.6444915 -0.7643718 0.01914453 
-0.02730696 -0.09889105 0.99472356 
0.46829343 -0.69397986 0.54689425 
-0.07823551 -0.7273697 0.6817716 
-0.23039313 -0.52052635 0.8221749 
-0.20031855 -0.6516485 0.731592 
-0.6629062 -0.5021111 0.5553736 
-0.365974 -0.85778403 0.36092877 
-0.7526595 -0.45780692 0.47319847 
-0.710738 -0.35433784 -0.60769755 
-0.2474359 -0.122021995 -0.96119 
-0.7661339 -0.38772294 -0.51255214 
-0.35382771 -0.93498087 -0.02483465 
0.38539755 -0.2854656 -0.87748396 
0.005604424 -0.76105285 0.6486657 
-0.8991071 -0.17440568 -0.40148374 
-0.9898217 0.007313049 -0.14212556 
-0.7740361 0.15850614 -0.61297965 
-0.26538885 0.39822376 -0.8780585 
-0.71688306 0.14074504 -0.6828393 
0.2903395 -0.5497659 -0.7832372 
-0.118748575 -0.662671 -0.73943627 
0.38468805 0.7404387 -0.5511494 
0.7666798 0.36782166 -0.5262218 
0.88154536 -0.4539101 -0.12978207 
0.52328694 -0.81946045 0.23378463 
0.47457552 -0.096100144 0.8749531 
-0.1970663 -0.87609637 0.4400229 
0.42573324 -0.8953154 -0.13100205 
-0.17136401 -0.67284656 0.71966106 
-0.7831515 -0.6217696 0.008730695 
-0.15397678 -0.8032634 -0.5753774 
-0.60665494 -0.6298629 -0.48501822 
-0.36821982 -0.29039505 -0.8832241 
0.5256365 -0.5551799 -0.6445786 
-0.15342142 -0.44034466 -0.8846233 
0.16527766 0.04910629 -0.9850238 
0.9178499 -0.025867715 -0.3960838 
0.70341027 0.5389162 -0.46344733 
0.17291337 0.9377602 -0.30117586 
0.17120011 0.5214174 -0.83595127 
0.9876692 0.10823644 -0.113112845 
0.50547624 -0.5023989 -0.70149064 
0.5003707 -0.083986826 -0.86172825 
0.42134237 -0.40845555 -0.80971277 
0.08833252 0.9715711 -0.21965238 
0.24449508 0.943882 -0.22205646 
-0.3832548 0.83268446 -0.39969048 
-0.10644235 0.9937469 -0.03372254 
-0.22811872 0.94555897 -0.23212095 
-0.58116585 0.6373158 -0.5060385 
-0.55394506 0.00748878 -0.83251965 
-0.8448029 0.5350343 -0.006812958 
-0.6418396 0.7271637 -0.24346457 
-0.20202579 0.733095 -0.6494285 
0.007776273 0.48778337 -0.8729301 
0.13519767 0.44239676 -0.8865702 
-0.010580635 0.37793136 -0.92577326 
0.35041016 -0.15712781 -0.9233221 
0.67578214 -0.037311174 -0.7361566 
0.67110455 -0.69589674 -0.25562957 
0.1389269 -0.35833475 -0.92319864 
0.95818293 -0.16677229 -0.23253529 
0.9054795 0.307748 0.29222965 
0.43725315 0.85409653 0.2816536 
0.56952786 0.36628398 0.7358492 
-0.7646612 -0.12066214 0.6330355 
-0.7762889 0.33048883 0.5367986 
-0.92514443 -0.31262627 0.21534318 
-0.47605214 -0.7460965 0.46552607 
-0.22844596 -0.9642022 -0.13463502 
-0.8358388 -0.24679519 0.49037316 
-0.38658017 -0.4437992 0.8084541 
-0.8586278 -0.24480145 0.45036715 
-0.5993151 -0.080585025 -0.7964468 
-0.7012245 -0.7043884 -0.110096656 
-0.2936879 -0.89613986 0.33268714 
-0.36602667 -0.88740367 0.28024852 
-0.31111944 -0.88665396 0.34212503 
-0.37687677 -0.9262612 -0.0020313687 
-0.35915697 -0.88955593 0.28230563 
-0.5897626 -0.79594964 -0.13654478 
-0.0022270065 -0.97640574 -0.21593305 
-0.28758055 -0.8033846 -0.52141213 
-0.9839074 0.021853995 -0.17733793 
-0.85102564 0.24145265 -0.46632165 
0.05938425 -0.50885576 -0.8588012 
0.7724886 -0.07914513 -0.6300775 
0.60452837 -0.2019294 -0.77056485 
0.66570586 -0.7352215 -0.12761341 
0.4449382 -0.18561898 -0.8761139 
0.7320308 -0.030882657 -0.68057126 
0.41341755 -0.90565985 -0.094161324 