# OOMMF: rectangular mesh v1.0
# Segment count: 1
# Begin: Segment
# Begin: Header
# Desc: Time (s) :  4.600000000000005e-07
# Title: m
# meshtype: rectangular
# meshunit: m
# xbase: 2e-09
# ybase: 2e-09
# zbase: 5e-10
# xstepsize: 4e-09
# ystepsize: 4e-09
# zstepsize: 1e-09
# xmin: 0
# ymin: 0
# zmin: 0
# xmax: 1.024e-06
# ymax: 1.024e-06
# zmax: 1e-09
# xnodes: 256
# ynodes: 256
# znodes: 1
# ValueRangeMinMag: 1e-08
# ValueRangeMaxMag: 1
# valueunit: 
# valuemultiplier: 1
# End: Header
# Begin: Data Text
-0.104410805 -0.98926055 0.10228428 
0.3205956 -0.94575906 -0.05252049 
0.5223645 -0.7361943 -0.43029457 
0.07442096 -0.81128484 -0.5798953 
0.3848438 -0.6867172 -0.6166967 
0.4730812 -0.8413653 -0.26134017 
0.8070568 -0.4803751 -0.34336442 
0.81543684 -0.4045233 -0.41403365 
0.4168473 -0.71176803 -0.5653535 
0.7188716 -0.50805527 -0.47445083 
0.60199356 -0.22931567 -0.7648648 
0.92456645 -0.32151183 -0.2044679 
0.3259842 -0.48569098 -0.8110726 
0.3300108 -0.09461664 -0.93922347 
0.6018806 0.37868738 -0.7030901 
0.5591009 0.67749274 0.4779225 
0.49833703 0.6195301 0.6065004 
0.17785065 0.39796293 0.89999706 
-0.99225336 -0.005831668 0.12409407 
-0.9710213 -0.105059884 -0.2146631 
-0.63636357 -0.73271275 -0.24119164 
0.0066637467 -0.9998325 -0.017051127 
-0.024824986 -0.98552424 0.16770725 
-0.4060052 -0.55861074 0.72326607 
-0.99204755 -0.12492041 0.015387004 
-0.4204117 -0.17334145 0.8906216 
-0.7220296 0.14243197 0.67704237 
-0.6105678 0.77618885 0.15728317 
-0.9017683 -0.29584405 0.3151036 
-0.70080703 -0.6822313 0.20839873 
-0.12949653 -0.9369372 0.324622 
-0.86185676 -0.50187504 -0.07296885 
-0.85074574 -0.525576 -0.0012944022 
-0.54985017 -0.5429298 -0.6347378 
-0.9618058 -0.00248286 -0.2737214 
-0.8413521 0.24689618 -0.4808004 
-0.15937525 -0.56123567 -0.81216633 
-0.19861491 -0.708035 -0.67767143 
0.69439524 -0.15971388 -0.7016458 
0.73709404 0.075964086 -0.67150724 
0.66258126 -0.51762104 -0.5413451 
0.6096307 -0.64744556 -0.4573453 
0.37230775 -0.92197126 -0.10656498 
0.26003322 -0.8585586 -0.44188222 
0.029758476 -0.47968164 -0.87693787 
0.31677738 -0.9429143 0.1027844 
0.37313434 -0.92700523 -0.03784268 
0.7213542 -0.38845807 -0.57336605 
0.37091494 -0.35809016 -0.8568509 
0.2181851 -0.2799339 -0.93489695 
0.54099256 0.05361374 -0.83931684 
0.15660433 -0.63427275 -0.7570821 
0.011840178 -0.6562912 -0.75441486 
0.9980031 0.060881402 0.016828319 
0.7970735 0.5883912 -0.13590351 
0.6935483 0.6429344 -0.32500172 
0.1985724 0.8222947 0.5332921 
-0.6487769 0.4625548 0.6042613 
-0.25396368 0.19033964 0.94830024 
-0.6710802 0.7413685 -0.004921433 
-0.81752324 -0.33293092 0.46990743 
-0.8075203 -0.41147935 -0.4226058 
-0.61017585 -0.039652046 -0.7912731 
-0.08275845 -0.8881061 0.45212698 
0.5951613 -0.3160785 0.73883516 
-0.23099631 -0.2292581 0.9455588 
-0.324765 -0.46706498 0.82242215 
-0.87340325 0.02865956 0.48615387 
-0.7034915 -0.52423286 0.47987464 
-0.0068928376 -0.45703018 -0.88942444 
-0.32283768 -0.6075725 -0.7256938 
0.018353712 -0.9993996 -0.029387342 
-0.101402596 -0.9534632 0.28394604 
0.3506856 0.24321696 0.90435904 
0.46990794 0.07014047 0.8799243 
0.49420646 -0.2631713 0.8285535 
0.3641174 -0.13591753 0.92138207 
-0.048918765 -0.62346417 0.7803201 
0.56447285 -0.2644054 0.7819592 
0.01758492 -0.7849016 0.61937094 
-0.18087412 -0.35973427 0.9153556 
0.29476267 -0.7941123 0.5315078 
0.6812025 -0.5423744 0.49172476 
0.6980486 -0.7000644 0.15045968 
0.17787775 -0.6735073 -0.717459 
0.35462505 -0.84324634 -0.4039514 
0.56334937 -0.36064076 -0.74335444 
0.82877827 0.3533072 -0.43393636 
0.6092262 0.61076075 0.5057814 
0.29368535 0.6363199 0.71333444 
-0.51529396 -0.17983587 0.8379327 
-0.841839 0.18019545 0.5087601 
-0.40867472 -0.6893058 -0.5981995 
-0.65809107 -0.6198615 -0.4274201 
-0.22018933 -0.57053626 -0.79120487 
-0.18502456 -0.84218985 -0.5064409 
0.30587313 -0.32280266 -0.89567864 
0.8789679 -0.004017333 -0.47686413 
0.9148606 0.20795465 0.34609953 
0.9175898 -0.077395216 0.38992184 
0.5867503 0.03788712 0.80888116 
-0.10639922 0.2976522 0.9487267 
-0.0848335 -0.28669253 0.9542592 
-0.6129974 0.24786825 0.7501971 
-0.99573576 -0.05658719 0.07285689 
-0.9593176 0.0073634256 -0.2822333 
-0.464149 -0.87058693 0.16323046 
-0.31341517 -0.8941986 -0.31965563 
-0.7532122 -0.5766249 0.31650445 
-0.59025645 -0.7891653 0.16975145 
-0.36163878 -0.7768491 0.51548314 
-0.657412 -0.73789966 -0.15268825 
-0.21804748 -0.69727737 -0.68283206 
-0.5995752 -0.75897884 -0.25389105 
-0.28128064 -0.7772248 -0.5628525 
-0.9127746 0.2669633 -0.309149 
-0.59600204 -0.5624364 -0.57310295 
-0.39280018 -0.71885836 -0.5735423 
-0.14151871 -0.94609535 0.29133523 
-0.39504611 -0.91834235 -0.024207981 
-0.22880726 -0.33241275 -0.91495854 
0.4295762 -0.636074 -0.6409948 
-0.13654178 -0.9738988 0.18132128 
0.013909566 -0.81392074 0.5808094 
0.5769085 -0.79980415 -0.16580062 
0.16409199 -0.6962616 0.6987801 
0.707456 -0.5155709 0.4834178 
0.036833573 -0.98967874 0.13848959 
-0.46946442 -0.88097787 -0.059001505 
-0.6256857 -0.7388027 0.2503758 
0.20015812 -0.9440138 0.26224965 
-0.19067064 -0.89947736 0.39317355 
-0.9145376 -0.10831791 0.3897284 
-0.8539245 -0.2535796 0.45443404 
-0.97584105 0.086246684 -0.20073803 
-0.8358846 -0.43750998 -0.33148482 
-0.3665053 -0.6894221 -0.62479687 
-0.3751165 -0.90588546 0.19661959 
0.15886188 -0.9677816 -0.19535016 
-0.1470016 -0.9860024 0.07867563 
0.36441886 -0.83562726 -0.4110061 
0.66710955 -0.5522845 0.49994683 
-0.17619595 -0.49886096 0.84858274 
-0.218722 -0.33945552 0.91483915 
-0.5641645 -0.44720557 0.69406456 
-0.0027487506 -0.5028331 0.8643792 
0.17375901 -0.9842117 -0.03369247 
-0.06568395 -0.7959439 -0.6017965 
0.34157848 -0.7355895 -0.5850063 
-0.09944438 -0.9767161 -0.19009613 
0.20130396 -0.9331853 -0.29772818 
0.2575244 -0.63826406 -0.72546554 
0.9977703 -0.066221096 -0.008326874 
0.5998221 -0.11251911 0.7921824 
0.58468604 0.012563583 0.8111624 
0.30871227 -0.06738983 0.9487652 
-0.061442558 -0.6790471 0.7315189 
0.66829336 -0.56048566 0.48912147 
0.5533028 0.0051817354 0.83296406 
0.005741475 -0.15974164 0.98714215 
-0.5475455 -0.5288285 0.64848626 
0.36470383 0.0014642301 0.9311225 
0.95648754 0.21210465 0.20035775 
0.52865046 0.098192856 0.843141 
0.55032384 -0.054004677 0.8332031 
0.82221895 0.30353314 0.48148075 
0.12285932 0.040385373 0.9916021 
-0.40606612 -0.6701367 0.62131083 
0.4086387 -0.44748715 0.79546815 
0.5432466 0.33258203 0.7708906 
-0.9488663 -0.28492916 0.13589738 
-0.77414227 -0.44639954 0.4488109 
-0.7542027 -0.50357217 0.42141825 
-0.88951683 -0.26936656 0.36905488 
-0.66052824 -0.14985701 0.73569375 
-0.07461853 -0.9299395 0.3600621 
-0.92368454 -0.38312897 0.004390713 
-0.56797475 0.039566513 -0.82209444 
0.22200215 -0.6513571 -0.7255681 
0.11886478 -0.9833728 0.137292 
0.27536672 -0.94704276 0.16517681 
0.39625925 -0.6896117 0.60614717 
0.5443223 -0.51320994 0.6635728 
-0.3858115 -0.6005704 0.70033187 
-0.11500564 -0.9107434 0.396636 
0.38885844 -0.8627464 -0.3231993 
0.51300323 -0.8278912 -0.22676869 
0.39049166 -0.86070865 0.3266452 
0.91223866 -0.3656629 0.18469284 
0.98192257 -0.15193088 0.11289469 
0.5008549 -0.013052782 0.86543286 
0.78896594 0.34783372 0.50650233 
0.790856 0.50942457 0.339166 
-0.62454236 0.5922771 0.50907236 
-0.7972014 0.5794373 0.16947672 
-0.10570802 0.38978595 -0.91481847 
-0.5534335 -0.31945765 -0.7691933 
0.1376307 -0.93573505 0.32474253 
0.34691963 -0.9194777 0.18495283 
0.49999592 -0.729972 0.46598825 
0.42534596 0.057163887 0.90322375 
-0.34910008 -0.34479278 0.8713479 
-0.5727854 -0.1299148 0.8093448 
-0.521001 -0.6360272 0.5692341 
-0.77000034 -0.5000791 0.39625818 
-0.59884214 -0.74339795 0.29790542 
-0.95441264 0.0086725205 -0.2983643 
-0.77073294 -0.61558694 -0.16438802 
-0.8470289 -0.2552327 -0.4662599 
-0.010134996 -0.6737282 -0.7389097 
0.82016814 -0.5371874 0.19686021 
0.16752045 -0.8690318 0.46553275 
-0.43827772 -0.8479237 0.29822493 
-0.8009313 -0.5667146 0.19324543 
-0.28484133 -0.9157348 0.28336436 
0.041542705 -0.4310645 0.9013643 
0.17280065 -0.84118867 0.51238805 
0.08742057 -0.5363531 0.839454 
-0.3324175 -0.89660895 0.29255977 
0.8592107 -0.42764467 -0.28085056 
0.68554294 -0.69177157 0.22689871 
0.84490657 -0.41227052 -0.3408311 
0.65424806 -0.70406896 0.27612758 
0.62480325 -0.037309248 0.77989036 
0.6065553 -0.021099571 0.7947613 
0.47873452 -0.66442275 0.5738952 
0.24581885 -0.58969563 0.7693063 
0.2289247 -0.9643171 -0.13298911 
0.64294004 -0.3738571 0.66847515 
-0.2856127 -0.47807792 0.8305822 
-0.6473215 -0.74020785 -0.1818441 
-0.38442355 -0.8858053 -0.25993773 
-0.12910233 -0.9800314 0.151232 
-0.43655086 -0.82627296 -0.35594425 
-0.60357654 -0.57066035 -0.5568143 
-0.1549753 -0.6794937 -0.71712697 
0.3552817 -0.384954 -0.851813 
0.7456083 -0.6663796 -0.002565096 
0.29259384 -0.5919611 0.75097996 
0.5892853 -0.8005341 0.10903198 
-0.15870987 -0.6850721 0.7109764 
0.73730356 -0.67424023 -0.04223272 
0.65538716 -0.5748908 0.4898657 
0.17358182 -0.81887645 0.5470931 
0.057273716 -0.8513865 0.5214028 
-0.2243222 -0.64015543 0.73476565 
-0.40709102 -0.47318223 0.7812654 
-0.22737484 -0.4564216 0.8602209 
-0.10936717 -0.98121715 -0.15890826 
-0.57042456 -0.40470505 0.7147235 
-0.07524791 -0.8825383 0.46418098 
0.022043025 -0.83571416 0.5487222 
0.15069567 -0.7104968 0.6873756 
0.7764536 0.013754837 -0.63002425 
0.5715769 0.2704651 -0.77469265 
0.20468897 0.23332237 -0.950612 
-0.003830855 -0.8251387 -0.5649173 
0.10844746 -0.88259155 -0.4574619 
-0.22694953 -0.9551585 -0.19017465 
0.1715536 -0.9393078 -0.29710308 
0.09866398 -0.9784698 0.18127947 
0.11888534 -0.9794682 0.1628138 
0.26994634 -0.84823734 -0.45565617 
0.008427386 -0.8252874 -0.56465 
0.35353282 -0.6537474 -0.6690508 
0.8243268 -0.22252065 -0.5205477 
0.6527692 -0.06220731 -0.7549985 
0.7841795 -0.11184007 -0.6103723 
0.6575611 0.18867445 -0.7293939 
0.91916376 0.048802745 -0.39084047 
0.71355367 0.39251566 -0.58032125 
0.08877264 0.55817544 0.8249604 
-0.43208694 0.690712 0.5798429 
-0.49070662 0.06453164 0.8689319 
-0.9415118 0.28263903 0.18349573 
-0.18730606 -0.38696104 -0.90287185 
-0.025772687 -0.6114424 -0.7908692 
-0.09549332 -0.67968804 -0.7272587 
0.24949424 -0.32406056 -0.9125445 
0.43453932 -0.62297034 0.6504488 
-0.6858516 -0.7186222 0.11484691 
-0.97003853 -0.050632954 -0.23761642 
-0.8511287 0.2714124 0.4493498 
-0.9417792 0.06367501 0.33014765 
-0.90234226 -0.2418932 0.35674378 
-0.4277421 -0.6882025 -0.58601546 
-0.6497759 -0.76007193 0.009054364 
-0.8768652 -0.08042296 -0.4739617 
-0.98427397 0.026341923 -0.17467356 
-0.50404066 0.6943122 -0.51368624 
-0.48528782 0.37924412 -0.787826 
-0.6120443 0.26966023 -0.74342805 
-0.31660816 0.47629014 -0.8203091 
-0.21175724 -0.07277749 -0.97460884 
-0.012356634 -0.15235622 -0.9882484 
0.6726122 0.574123 -0.46687862 
0.77877474 -0.08337797 -0.62173796 
0.56760955 -0.20068125 -0.7984652 
0.6384412 -0.19406202 -0.7448039 
0.5692013 -0.16335794 -0.8058065 
0.651885 -0.26707903 -0.7097287 
0.32585165 -0.29792082 -0.8972536 
0.8720917 -0.4509718 -0.18994892 
0.06970413 -0.7831344 -0.6179336 
-0.06887493 -0.37318942 -0.92519504 
-0.50312406 -0.55976164 -0.6584323 
0.18060425 -0.7142513 -0.6761858 
0.2433922 -0.35754824 -0.9016205 
0.43116137 -0.20389359 -0.8789353 
0.38152707 0.36212656 -0.85047126 
0.65722185 0.46034023 -0.59678 
0.6984571 0.71555424 -0.011825056 
-0.55615073 0.79818994 0.2314937 
-0.68654215 0.4003409 0.6069491 
-0.7528167 0.5414389 0.37431407 
-0.7882907 -0.05731253 0.61262816 
-0.9524155 0.2998643 -0.054644752 
-0.6036293 -0.041379467 -0.7961906 
0.67986095 -0.2856542 -0.67541903 
0.061635844 -0.9908276 -0.12025662 
0.5330605 -0.7352041 -0.41871414 
-0.109485954 -0.7669859 0.63225436 
-0.044568095 -0.47067395 0.8811809 
-0.57766706 -0.5572627 0.5964554 
-0.9138425 -0.34477705 -0.2145243 
-0.3370351 -0.3540569 -0.87238246 
-0.3039333 -0.12342796 -0.944664 
0.11197667 -0.71504194 -0.6900553 
0.35797888 -0.9322275 0.052945253 
0.73870647 -0.28402364 0.6112638 
0.07856628 -0.2562005 0.9634255 
0.6765419 0.43731764 0.59249 
0.5280871 0.12929493 0.83928955 
-0.04361454 -0.7875629 0.61468893 
-0.012283209 -0.78565866 0.6185384 
0.008686433 -0.69892824 0.71513915 
-0.021332905 -0.6236793 0.7813893 
0.75663376 -0.6451827 0.10604073 
0.72311735 -0.6481737 0.23868853 
0.28331113 -0.9236927 0.2579279 
0.11554713 -0.67410535 -0.72954154 
-0.025493564 -0.8005644 -0.5987042 
0.48679745 -0.35070822 -0.8000201 
0.87793386 0.40613002 -0.253556 
0.9619271 0.19578898 0.1906906 
0.100427054 0.18987265 0.976659 
-0.23332253 -0.36464506 0.90144026 
-0.5925538 -0.7930973 0.1409851 
-0.82297075 -0.37901056 -0.42316693 
-0.7390058 0.055377726 -0.67141926 
-0.29583347 0.78019017 -0.55116785 
0.12343413 -0.08117322 -0.98902726 
0.683573 -0.7168552 -0.13728267 
0.8817084 -0.44899145 0.1449033 
0.9223397 -0.1831341 -0.34022287 
0.6392009 -0.48549774 0.5964179 
0.89070106 0.14535765 0.4307236 
0.15761532 0.682926 0.71328086 
0.013672993 -0.45430186 0.89074296 
-0.24056205 -0.14565657 0.9596427 
-0.8624329 -0.3745587 0.3404635 
-0.9431234 0.27752045 0.1830319 
-0.6671038 -0.7298782 -0.14916553 
-0.7885684 -0.5461523 -0.28262645 
-0.83729094 -0.12042002 -0.5333319 
-0.5564802 -0.5048059 -0.65992486 
-0.14784977 -0.8536866 -0.4993594 
0.22781375 -0.77378964 -0.59105897 
0.16860883 -0.9689834 -0.18067202 
0.36068565 -0.9153844 -0.17882204 
-0.1349602 -0.8064194 -0.5757375 
-0.2643362 0.49673155 -0.8266706 
0.34092915 -0.5711463 -0.746699 
-0.050918557 -0.74164516 -0.66885716 
-0.3449268 -0.74505895 -0.5708876 
-0.46073174 -0.87319845 -0.15890533 
-0.37692225 -0.8907238 -0.2540489 
-0.6715014 -0.2744625 -0.68829954 
0.23474565 -0.7326871 -0.63879895 
-0.28585982 -0.9389357 -0.19153054 
-0.45054784 -0.8905178 0.06312523 
-0.033959236 -0.95224774 0.30343205 
0.21437958 -0.9066751 0.36329284 
0.45089173 -0.7589332 -0.46980527 
-0.29857686 -0.9087502 -0.2915908 
-0.14676748 -0.98315495 -0.10892937 
0.10317968 -0.99453557 0.0159064 
-0.3048247 -0.9229651 0.23498358 
-0.7823691 -0.59792644 0.17430653 
-0.802426 -0.59555566 -0.03776241 
-0.9424004 -0.32653934 0.072481364 
-0.8306034 -0.33444768 -0.44524455 
-0.7563508 -0.09051951 -0.64787334 
-0.4738031 -0.3045476 -0.8262938 
-0.3495657 -0.56672364 -0.7460752 
-0.26933667 -0.9627823 -0.022539556 
-0.041081786 -0.76493055 -0.64280134 
0.5997228 -0.79791355 -0.060554 
0.32390052 -0.8652105 0.38275233 
0.28762048 -0.58567274 0.75780076 
-0.33201137 -0.8556523 0.39702338 
-0.018493205 -0.99920565 0.03530158 
0.018368637 -0.860562 -0.50901425 
-0.009618176 -0.6921347 -0.72170436 
0.07560058 -0.94386405 -0.32156685 
-0.08145487 -0.6925326 -0.7167732 
0.6161539 -0.64853674 -0.44693908 
0.7552442 -0.09650689 -0.6482998 
0.5376122 -0.8045892 0.25220874 
0.74914426 -0.2895859 0.5957541 
0.3304147 -0.93543285 -0.12566428 
0.4657262 -0.51319444 0.7209234 
0.47395766 -0.70533466 0.527131 
0.12069245 -0.85424834 0.5056612 
0.42655662 -0.8850885 0.18619306 
0.36706126 -0.055547744 0.9285368 
-0.47915697 -0.6404653 0.6001774 
0.11317347 -0.2028522 0.97264737 
0.3114514 0.30030617 0.90156215 
0.55248594 0.25574893 0.793317 
0.6039274 -0.34796184 0.71707344 
0.3654947 0.77736706 0.511971 
0.2635013 -0.316466 0.9112718 
0.014910881 -0.192699 0.9811447 
0.22512648 0.2155768 0.9501815 
-0.40448543 0.09349391 0.9097529 
-0.2572 0.33958152 0.90472794 
-0.43009508 0.06722875 0.90027696 
-0.49817786 -0.4197789 0.75868607 
-0.9501359 0.24618101 0.1914076 
-0.46438235 -0.6099607 0.6421037 
-0.07159813 -0.7744665 0.6285502 
-0.7483627 -0.50984657 -0.42427552 
-0.8078603 -0.45171613 -0.3785688 
0.11473155 -0.98545957 -0.12532483 
0.36026308 -0.72074914 0.5922256 
-0.39706397 -0.9171254 0.034947444 
-0.21875276 -0.8885167 -0.40334275 
-0.52288973 -0.75620204 -0.39337623 
-0.2641146 -0.88940144 -0.3731066 
-0.1037437 -0.8407285 -0.5314252 
0.2866671 -0.95661277 0.0520964 
0.30744106 -0.9058056 -0.2915411 
0.5931005 -0.6195466 -0.5141925 
0.6921514 -0.5871631 0.41972128 
0.70453227 -0.25285062 0.6630994 
0.2984963 0.7382977 0.6048277 
0.638792 0.44060433 0.630724 
-0.02029599 0.0789518 0.99667186 
-0.37604445 0.4689723 0.7991594 
-0.7564245 -0.40239936 0.5156517 
-0.24834047 -0.23112908 0.9406947 
-0.5354979 -0.83247364 0.14223118 
0.034333996 -0.8966025 0.4415035 
0.6321233 -0.77017045 -0.08519176 
0.43364668 -0.73536927 0.52075195 
0.7287583 -0.17206752 0.6628003 
0.19530353 -0.4366049 0.8781986 
-0.35159862 -0.47033608 0.8094211 
-0.8431129 0.45205584 0.29121515 
-0.4321954 -0.5393014 0.72274566 
-0.7672879 -0.64123845 0.009094762 
-0.9938168 -0.107978016 0.02586705 
-0.8744749 -0.42974517 -0.22497278 
-0.6666941 -0.3653591 -0.6496398 
-0.0115302205 -0.9258763 -0.37765077 
0.44348606 -0.7390685 0.5070482 
0.3867004 -0.90023977 -0.20007771 
0.04026243 -0.99394 -0.10228496 
-0.31292638 -0.9227545 0.22494707 
-0.048465364 -0.9181997 0.3931417 
-0.15978087 -0.94280463 -0.2925569 
-0.007920468 -0.9998753 0.013661464 
-0.059102036 -0.8720669 0.48580492 
-0.14236724 -0.9843745 0.10362653 
0.3326174 -0.6933725 -0.63921857 
0.5114952 -0.0037550784 -0.8592779 
0.5691388 0.050513957 -0.82068837 
0.78924453 -0.59244555 -0.16155954 
0.5788637 -0.37658775 0.7232555 
0.90582037 -0.3367821 0.25703585 
0.7467695 -0.011092625 0.6649905 
0.65801495 -0.2135626 0.7220854 
-0.59588796 -0.17979309 0.78268254 
-0.33815125 -0.35772184 0.87045324 
0.08047226 -0.61175007 0.78694737 
-0.8301205 -0.5497744 -0.09299478 
-0.19509982 -0.8947447 -0.40170658 
-0.6065397 -0.5427316 -0.5809924 
-0.26613057 -0.22240996 -0.9379277 
-0.53819597 -0.1277733 -0.83307815 
-0.24331962 -0.4912577 -0.8363381 
-0.17168064 -0.15278906 -0.97323245 
0.4192367 -0.79807276 -0.43280545 
-0.68748945 -0.68294936 0.24685715 
-0.037332896 -0.7263353 -0.686326 
0.37447378 -0.8803771 -0.29104218 
0.45758352 -0.6246814 -0.63276416 
0.6016431 -0.7950874 0.07656248 
0.6660474 -0.7357596 -0.122632906 
0.45379525 -0.89110196 -0.0026820751 
-0.15224254 -0.98665935 0.057667147 
-0.6817481 -0.7155917 0.1521452 
-0.79700273 -0.41663176 -0.4372694 
-0.28482482 -0.94327843 0.1705893 
-0.34187326 -0.81145424 0.47398823 
-0.25065824 -0.96805835 0.0057908134 
-0.49405292 -0.6742959 -0.54885054 
0.24733783 -0.9671591 -0.0585425 
0.49108195 -0.19811304 -0.84828645 
0.3198449 0.07970381 -0.9441115 
-0.09068195 0.54022026 -0.8366236 
0.009966294 -0.7154373 -0.69860595 
-0.03614914 -0.8049374 -0.59225756 
0.6015222 -0.7886682 0.12717564 
-0.43930307 -0.42086545 -0.793653 
-0.17202005 -0.70392424 -0.68912977 
0.42218795 -0.37891766 -0.82351613 
0.66662484 -0.60013396 -0.44209787 
0.4112625 -0.21561731 -0.8856481 
0.7685122 -0.09154628 -0.6332523 
0.61057997 -0.051845454 -0.7902559 
0.2474011 0.35489133 -0.90157914 
0.987657 -0.050586436 -0.1482384 
0.9038453 0.42034516 -0.07983585 
0.96468425 0.26297218 0.015166311 
0.3704878 0.91710514 -0.14716291 
-0.26582778 0.727579 0.63242745 
-0.275827 0.43086052 0.8592315 
-0.6304458 0.5298131 0.5673061 
-0.8915056 0.24148144 0.38328105 
-0.7229397 0.39866513 -0.56429094 
-0.0893282 0.026553202 -0.9956483 
-0.2970516 -0.62054044 -0.72573406 
-0.35626063 -0.8440321 -0.4008596 
0.5888065 -0.3253504 0.7399014 
-0.45807496 -0.82338715 0.33496425 
-0.6868652 0.07762647 0.7226274 
-0.7392489 -0.5503776 -0.38806653 
-0.828778 -0.33429134 -0.44874972 
-0.51093954 -0.7336267 -0.4480321 
-0.44377545 -0.8694528 -0.21706074 
-0.7572358 0.17634241 -0.62888575 
-0.3190933 0.9392992 -0.12608191 
0.2835495 0.738878 -0.6112766 
-0.19868797 0.9079937 -0.36887765 
0.17750666 0.9837635 -0.02647166 
-0.5953835 0.801496 0.055881575 
-0.37624097 0.5709091 -0.72972983 
0.20758207 0.5157484 -0.83121204 
0.2089195 0.47658944 -0.85394096 
0.28043792 0.5766447 -0.7673562 
0.4391558 0.24908833 -0.8631901 
0.2989922 0.33266684 -0.8943917 
0.17235307 0.69598794 -0.6970619 
0.37132964 0.043360703 -0.92748815 
-0.3114275 -0.20042343 -0.9288937 
0.06812992 -0.41081494 -0.9091696 
0.44477826 -0.85078055 -0.27990174 
-0.062094286 -0.06617665 -0.99587405 
0.016113915 -0.23389162 -0.9721291 
0.018767675 -0.9348691 -0.35449627 
0.48361087 -0.060717896 -0.87317467 
0.99514306 -0.091263354 -0.036896072 
0.9391138 0.33631104 -0.07042922 
0.8232526 0.42785177 0.37309268 
0.6344025 -0.11317886 0.7646725 
-0.06483434 0.045741234 0.99684715 
-0.4607306 0.51961064 0.719536 
-0.23777379 0.5618317 0.7923439 
-0.84279335 0.45029128 0.2948512 
-0.98139036 -0.024980681 -0.19039166 
-0.6711576 -0.28218803 -0.68550533 
-0.51014316 0.13113514 -0.85003394 
-0.044749748 -0.7377485 -0.6735909 
0.31838274 -0.71590096 -0.6213842 
-0.11170191 -0.70886534 -0.69644284 
-0.11595756 -0.9930343 -0.020900948 
-0.024220858 -0.9786587 0.20406035 
-0.52896184 -0.8303181 0.17541713 
-0.54633486 -0.79584044 0.26106772 
-0.52332157 -0.35233656 -0.7758824 
-0.14058155 -0.7005033 -0.69966567 
-0.6285259 -0.7462073 -0.21938531 
-0.4474024 -0.88684005 -0.11552405 
0.86671346 -0.40125123 -0.29631963 
0.33413547 -0.92214775 -0.19492851 
0.56569105 -0.6886492 0.45360348 
0.76641846 -0.625779 0.14492555 
0.07411997 -0.9381072 0.33832127 
0.2080482 -0.84188646 0.49793893 
0.21913423 -0.84947765 0.47996667 
0.017297393 -0.707897 0.70610386 
-0.1686734 -0.80523926 -0.56845325 
-0.064748876 -0.9174973 0.39243662 
0.13655351 -0.49809185 -0.8563047 
0.525446 0.114744246 -0.84305423 
0.39418325 -0.23277698 -0.88906384 
0.90134543 0.120421775 -0.41602296 
0.8462308 -0.073620394 -0.52770597 
0.99044865 0.11432438 -0.07708124 
0.5908707 0.24207856 0.76959074 
-0.10396107 -0.99210197 0.07018399 
-0.72016597 -0.67487586 0.1609463 
-0.13822679 -0.8579109 -0.49485594 
-0.83938617 -0.056505736 -0.5405904 
0.3854258 0.1465971 -0.9110194 
0.37096885 0.22901992 -0.8999622 
0.29345626 0.2757377 -0.91534275 
0.85467297 0.5189861 0.013702733 
0.913548 0.39702573 -0.08832163 
0.9940537 -0.08398328 0.06931227 
0.99579996 -0.05926299 0.06978933 
0.35456848 0.56860477 0.7422735 
-0.040215943 0.5208709 0.8526877 
-0.26852924 0.32826635 0.9056122 
-0.4827662 -0.32994753 0.811216 
-0.59187376 -0.31937912 0.74005574 
-0.9053925 -0.4007902 -0.14011262 
-0.9203405 0.20012093 -0.3360434 
-0.6645613 -0.6272947 -0.4060292 
-0.9976341 -0.038728006 -0.05680088 
-0.7685211 -0.28837833 -0.57115084 
-0.049697477 -0.18174414 -0.9820893 
0.0058071013 -0.5614358 -0.82749987 
0.11890141 -0.6688509 -0.7338262 
-0.18436764 -0.59865963 -0.7794968 
0.6116841 -0.6175457 -0.49444914 
0.22382236 -0.3229661 -0.9195632 
0.07851683 -0.94888157 -0.30571055 
-0.388167 -0.87394696 -0.2924775 
-0.86583537 -0.18610124 -0.46443018 
-0.11063404 -0.6815087 -0.723399 
-0.6855368 -0.5645377 -0.45971355 
-0.10480015 -0.30803043 -0.94558674 
-0.014602176 -0.40480253 -0.9142876 
0.6378154 -0.36183873 -0.6799002 
-0.28247055 -0.33655828 -0.89829785 
0.11502344 -0.93538827 -0.33439273 
0.31936568 -0.7711921 -0.5506981 
0.5907105 -0.73175794 -0.3399875 
-0.1354066 -0.87972546 -0.45579416 
-0.1481677 -0.7739086 -0.6157206 
0.3795068 -0.83774287 -0.39263412 
0.33982006 -0.8561977 -0.38916296 
-0.6002043 -0.4572586 -0.6562542 
-0.84713894 0.29843 -0.4396534 
-0.8673335 0.49160367 -0.0778362 
-0.109915376 0.050059643 -0.99267954 
0.08173601 -0.2692831 -0.9595863 
-0.28090015 0.27997676 -0.9179914 
0.46268108 0.047304623 -0.88526183 
-0.32317185 -0.4443179 -0.8355487 
-0.23821193 -0.6627717 -0.70992166 
0.18617216 -0.7059497 -0.68335575 
0.7027969 -0.6818186 0.20297794 
0.6131583 -0.7855878 -0.08299874 
0.10230089 -0.5711725 -0.8144303 
0.01975239 -0.6021026 -0.7981744 
0.045767646 0.39315015 -0.91833454 
0.17560954 -0.87611145 -0.44898778 
0.7611007 -0.5768618 -0.2965744 
0.2874754 -0.93049574 -0.2270143 
0.79691654 -0.50929266 0.32487684 
0.3648037 -0.10243497 0.92543256 
0.8014888 -0.0777853 0.5929294 
0.63261324 -0.5936759 -0.49734253 
0.1884488 -0.79883844 0.57126534 
0.44531053 -0.5855759 0.6773474 
0.37237203 -0.75171304 0.5443038 
0.4575095 -0.7154282 0.5280603 
0.39816967 -0.7335133 0.5508351 
0.42269963 -0.7896908 0.44465005 
0.15536505 -0.63216275 0.75909954 
-0.26884905 -0.82153815 0.5027874 
0.06787224 -0.47631994 0.8766486 
0.37021384 -0.6605519 0.65315616 
0.38704407 -0.3924688 0.8343651 
0.13183255 0.22491989 0.96541774 
0.11244805 -0.6587369 0.7439229 
0.13926671 -0.052547943 0.9888598 
-0.49254766 -0.5983836 0.6319287 
-0.6967799 -0.37466368 0.61165756 
0.06964411 -0.55168563 0.8311394 
-0.59216136 -0.10791949 0.7985602 
-0.9313704 -0.1517665 0.33093223 
-0.85632676 0.5150038 0.038413703 
-0.8913768 -0.1147902 -0.43848693 
-0.5901475 -0.7806175 -0.20582144 
-0.60208666 -0.38532317 -0.699298 
0.09650595 -0.70255655 -0.7050539 
-0.44496384 -0.8909485 0.09065405 
-0.635403 -0.7721077 0.0106228795 
-0.67610914 -0.6831595 0.27598843 
-0.09554785 -0.8288365 -0.551272 
-0.36533225 -0.91888636 -0.1489307 
-0.54513466 -0.66599625 -0.5091927 
0.05540044 0.053829614 -0.99701214 
-0.10768418 -0.3641451 -0.9250959 
0.5071806 -0.34843785 -0.7882634 
0.5781832 -0.8151102 -0.036050938 
0.54719955 0.82710373 0.12834448 
0.6414422 0.54978794 0.53505623 
0.48633456 0.20781042 0.8487012 
-0.6827667 -0.22891854 0.69384867 
-0.5983873 -0.1693314 0.783109 
-0.49430016 -0.30607474 0.81362504 
0.07849278 -0.9413971 0.32804042 
0.18948957 -0.8778191 -0.4399173 
-0.23715585 -0.9096706 -0.34096396 
-0.059298497 -0.9923792 -0.108015686 
0.48903754 -0.8244922 0.2847012 
0.256428 -0.54437965 0.7986836 
0.10344874 -0.98694843 0.12341427 
0.2743549 -0.768475 -0.57807934 
0.23569703 -0.9713515 0.030385423 
-0.33537441 -0.5782581 0.74373496 
-0.57610935 -0.55411637 0.6008769 
-0.7875815 -0.4546435 0.41595063 
-0.46753308 -0.22339714 -0.8552816 
0.07938827 -0.3910883 -0.9169228 
-0.43742847 -0.60645366 -0.66398066 
-0.20485765 -0.8293468 -0.51982427 
-0.39556348 -0.6501119 -0.6487558 
0.17771895 -0.9678221 -0.17814761 
0.10286228 -0.8957567 -0.43248034 
-0.35557118 -0.86151457 -0.3624388 
-0.71726274 -0.5790622 0.38758382 
-0.49981093 -0.8634436 0.068222806 
-0.3045188 -0.9399382 -0.15422297 
-0.18878143 -0.74489295 -0.63991886 
0.3734282 -0.69127965 -0.61861455 
0.61041814 0.2176836 -0.76157963 
0.920093 -0.26434955 -0.28904706 
0.5134431 -0.8287637 -0.22254634 
0.88423765 -0.41248238 0.21904838 
0.6844231 -0.58524823 0.43479836 
0.66990745 -0.20275463 0.7142231 
0.21173736 -0.17041074 0.96235526 
-0.53984046 -0.5982089 0.59221494 
-0.37474483 -0.4786159 0.7940361 
-0.029471625 -0.7868706 0.6164139 
-0.6328322 -0.68941367 -0.35246593 
0.33285356 -0.89807576 -0.28752115 
-0.34108552 -0.6409158 -0.6876682 
-0.35140297 -0.39347506 -0.84952533 
-0.21385616 -0.43383372 -0.87524503 
-0.40158725 -0.3582408 -0.8428471 
0.19452268 -0.45705056 -0.86790884 
0.69474226 -0.6415782 -0.32513192 
0.68781877 -0.49960777 0.5265904 
0.46245015 -0.8808747 0.10099343 
0.5803305 -0.3688409 -0.72606677 
0.37687704 -0.040373724 -0.9253831 
-0.37126487 -0.9175502 0.14235228 
-0.0140500115 -0.98552126 -0.16896908 
0.37042877 -0.83880824 -0.39897773 
-0.15727329 -0.9758393 0.15166704 
-0.63339806 -0.7700509 0.07634461 
0.07745718 -0.9533869 -0.29164007 
-0.6000323 -0.79185194 -0.113717854 
-0.3985232 -0.8051394 0.4392378 
-0.24513833 -0.9196169 -0.30693987 
-0.582172 -0.8121419 0.03874751 
-0.4533785 -0.41661376 -0.78796005 
-0.6814283 0.11338595 -0.7230485 
0.108199574 0.82720137 -0.5513898 
0.028168477 0.9913762 -0.12798376 
-0.5119342 -0.8362219 -0.1966122 
-0.23361476 -0.90129066 -0.36482772 
-0.27174336 -0.53062403 -0.802866 
0.17843378 -0.69191086 -0.69958615 
-0.49025422 -0.107269816 -0.86495316 
0.6007284 -0.092368826 -0.7940991 
0.6592603 -0.73000616 0.18018612 
0.76686835 -0.60075593 -0.22584365 
0.9088875 0.05831694 -0.41294405 
0.4976568 0.21287276 -0.84084654 
0.32795736 0.12675387 -0.9361504 
0.5573797 -0.012246098 -0.83016735 
0.410713 0.83599424 0.3639073 
0.44629332 0.7308607 0.51639605 
-0.28006715 0.43740088 0.85454255 
-0.41263637 0.3040006 0.85867035 
-0.5209076 0.5765823 0.6294508 
-0.20801443 0.4554482 0.8656195 
-0.98016393 0.15413456 0.12458432 
-0.8783815 0.20602271 -0.43127805 
-0.9089784 -0.2412025 -0.33997 
-0.47656345 -0.7477151 -0.46239528 
-0.71924806 -0.65753394 0.22434658 
-0.69003624 -0.7139793 -0.118674815 
-0.8884014 -0.40995935 0.2065829 
-0.8864056 -0.44619736 -0.123260826 
-0.9895773 -0.1419976 -0.023948537 
-0.3115601 -0.33998027 -0.8873239 
-0.01560422 -0.2011704 -0.979432 
-0.21333112 -0.12795235 -0.968565 
-0.24240929 0.6545609 -0.716092 
-0.019040415 0.9996073 -0.020561107 
-0.42130443 0.87302136 0.24563454 
-0.029371599 0.9357511 -0.351436 
-0.4298482 0.635806 -0.6410783 
-0.20046403 0.97398436 -0.105682075 
-0.7610992 0.6004886 -0.24523765 
-0.4021953 0.538649 -0.74033517 
-0.30925572 0.40677363 -0.8595907 
-0.44009113 0.5885977 -0.67813903 
-0.7694345 -0.035330337 -0.63774794 
-0.28709033 0.60550755 -0.7422532 
0.1775497 0.40735438 -0.8958452 
0.5227795 0.52662784 -0.67034674 
0.0603261 0.14457513 -0.98765326 
0.33358988 0.2617308 -0.9056572 
-0.20977706 -0.3536858 -0.91153723 
-0.05119367 -0.24886146 -0.9671852 
0.43628034 0.349233 -0.82927424 
-0.012564934 -0.7927001 -0.60948235 
0.70319533 0.104504704 -0.70327455 
0.950826 0.28366914 -0.124345206 
0.7392317 0.634368 0.22608377 
0.9213365 0.3841155 0.059954513 
0.84453845 -0.12017614 0.5218356 
0.456433 0.04426088 0.88865626 
-0.76786584 -0.09323602 0.6337896 
-0.52082956 -0.32472497 0.78948736 
-0.90370023 -0.41747102 -0.0950995 
-0.96493006 -0.015096549 -0.2620727 
-0.69437325 -0.29517686 -0.65628994 
-0.06338995 -0.96093905 -0.2694029 
-0.033742942 -0.95610607 -0.29107165 
0.043282256 -0.73738694 -0.67408246 
0.03701194 -0.97794664 -0.20554945 
-0.09483552 -0.9706846 -0.2208568 
-0.3269211 -0.94051105 -0.09252918 
-0.23493442 -0.83935547 0.4901921 
-0.6712738 -0.3368148 -0.660263 
-0.42745534 -0.44751942 -0.7854988 
-0.62462264 -0.28076434 -0.7287098 
-0.28735778 -0.71226954 -0.6403886 
-0.63299036 -0.77128875 -0.06660971 
0.92467666 -0.37533087 -0.064030915 
0.65780705 -0.6542112 -0.37322608 
0.29367068 -0.93403816 -0.20329845 
0.111438245 -0.98352855 0.14231336 
0.13915098 -0.87256587 0.46825853 
0.28311497 -0.8859742 0.36728162 
0.2562032 -0.96122813 -0.10198308 
-0.35658023 -0.47035283 -0.8072291 