# OOMMF: rectangular mesh v1.0
# Segment count: 1
# Begin: Segment
# Begin: Header
# Desc: Time (s) :  4.720000000000006e-07
# Title: m
# meshtype: rectangular
# meshunit: m
# xbase: 2e-09
# ybase: 2e-09
# zbase: 5e-10
# xstepsize: 4e-09
# ystepsize: 4e-09
# zstepsize: 1e-09
# xmin: 0
# ymin: 0
# zmin: 0
# xmax: 1.024e-06
# ymax: 1.024e-06
# zmax: 1e-09
# xnodes: 256
# ynodes: 256
# znodes: 1
# ValueRangeMinMag: 1e-08
# ValueRangeMaxMag: 1
# valueunit: 
# valuemultiplier: 1
# End: Header
# Begin: Data Text
-0.4620184 0.08138322 -0.88312846 
-0.3508986 0.5089426 -0.78603286 
-0.05106354 0.98722684 -0.15091649 
-0.14671472 0.6599796 -0.73681873 
-0.69130033 -0.18655838 -0.6980687 
-0.8749626 0.16027868 -0.45689315 
-0.77404857 -0.11453152 -0.62268084 
-0.041468304 0.8384396 -0.5434147 
0.31104365 0.76071495 -0.5697058 
0.96522903 0.16903876 -0.19939604 
-0.29474843 -0.77152556 -0.56380117 
0.5468349 -0.79806423 0.25311103 
0.9710234 -0.23724607 0.0287752 
0.59632045 -0.15841594 0.7869602 
-0.061720826 0.30946702 0.9489051 
0.7753073 -0.443456 0.449717 
0.56206304 -0.39384195 0.72730577 
-0.22136542 -0.7123731 0.66597456 
0.5649773 -0.48831013 0.6650969 
0.3033112 0.0016903181 0.9528901 
0.2531452 0.6247973 0.73861086 
0.5660658 0.27911955 0.7756687 
-0.013685585 0.32375336 0.9460426 
0.062120575 0.00068838877 0.9980684 
0.46511337 0.030225208 0.884735 
0.836465 -0.2415149 0.49193192 
0.041579753 -0.013375716 0.99904567 
-0.7755811 -0.14964087 0.613255 
-0.68044263 -0.7307458 -0.054849874 
-0.73016775 -0.67480433 0.10721068 
-0.9024383 -0.34056452 0.26385778 
0.052299198 -0.14402974 -0.9881905 
-0.48188552 -0.77767783 -0.403737 
-0.18210195 -0.64401203 -0.7430259 
0.14465794 -0.7083248 -0.6909053 
-0.009319595 -0.96276903 -0.27016482 
-0.6185453 -0.7435776 -0.25395694 
-0.10658179 -0.8955421 -0.4320241 
0.45904303 -0.8507605 -0.2559025 
-0.2533894 -0.7777491 0.5752393 
-0.20515841 -0.97328985 0.103038184 
-0.33725777 -0.83656883 -0.4317519 
-0.76521105 -0.5722212 -0.2949831 
-0.031772826 -0.64569587 -0.7629334 
0.79414475 -0.5322646 -0.29330617 
-0.14541581 0.022784468 -0.9891083 
-0.7562196 -0.2319489 -0.6118266 
-0.726246 -0.68168056 -0.088760726 
-0.39163503 -0.913208 -0.11257558 
-0.77975947 0.44544998 -0.4399427 
-0.83931684 -0.18545465 -0.51103216 
-0.46560752 -0.3297977 -0.82124496 
0.1732233 -0.5016063 -0.84757584 
0.34469613 -0.65846807 -0.6690325 
0.58969826 -0.6954922 -0.41054428 
0.1386367 -0.7151353 -0.6850996 
0.010547735 0.31242198 -0.94988483 
0.20466344 -0.35245764 -0.91317385 
0.23182784 -0.4156424 -0.8794869 
0.1352406 -0.24501356 -0.96004087 
0.50445324 -0.6795802 -0.5326328 
0.47852406 -0.86093605 0.17263834 
0.40275013 -0.008420636 0.91527134 
-0.5331797 -0.28188375 0.7976597 
-0.05395081 0.18941802 0.98041326 
-0.33570072 0.13483903 0.9322679 
-0.2355652 0.5688294 0.7879989 
0.1956238 0.87436795 0.4440856 
-0.72506016 0.17692378 0.66557175 
-0.9575037 0.25894156 0.12702803 
-0.46798068 -0.56250584 0.68160206 
-0.6956128 -0.4847745 0.5302043 
-0.50071526 0.36393315 0.7853898 
-0.45407236 0.47194394 0.7557032 
-0.84193206 -0.17346662 -0.51094 
-0.35403237 -0.059485056 -0.9333395 
-0.051497146 0.27406657 -0.96033096 
-0.7916261 0.33450493 -0.51130694 
-0.46444428 0.20795481 -0.86084056 
0.012398358 -0.55251014 -0.833414 
-0.47907758 -0.3438179 -0.80763483 
0.16943754 -0.9072568 -0.38493657 
-0.1317783 -0.21405831 -0.96789134 
-0.7960906 -0.55011976 -0.25220647 
-0.8745146 -0.014550342 -0.48478106 
-0.42040282 -0.4967398 -0.75928324 
0.34992638 -0.9260064 0.14164692 
-0.09005569 -0.9192883 -0.38314348 
0.43327966 -0.5008128 -0.74930316 
0.64626396 0.012347106 -0.7630142 
0.0155550875 -0.6983803 -0.71555793 
-0.24770898 -0.6108012 -0.75203866 
-0.3901176 -0.6206252 -0.6801711 
-0.3180468 -0.8693597 -0.37823287 
-0.071969785 -0.5435681 -0.8362739 
0.18442558 -0.015202458 -0.9827289 
0.0035487923 -0.3972602 -0.91769916 
0.017065331 -0.4184697 -0.90807045 
0.9221897 -0.38555732 -0.030195648 
0.34793964 -0.45408446 0.8202105 
0.39907032 0.38896233 0.83033204 
0.42520887 0.45796013 0.78068566 
-0.6146448 -0.4819799 0.6244255 
-0.21515988 -0.09330002 0.9721118 
0.23600611 -0.39048833 0.8898427 
0.02248756 -0.340392 0.9400147 
-0.98228145 0.1014221 0.1575969 
-0.8981968 -0.4386878 0.028204508 
-0.8862328 0.08508203 0.4553598 
-0.72257686 0.07367607 0.6873534 
-0.86603105 -0.47245404 0.16363798 
-0.5579042 -0.5026698 -0.660353 
-0.46505883 -0.74549246 -0.4774529 
0.4998715 -0.69040155 -0.5229478 
0.65259147 -0.4098085 -0.63732374 
0.6839992 -0.46393186 -0.5629498 
0.3768623 -0.39136127 -0.8395303 
0.55608195 -0.23678738 -0.7966835 
0.9092136 -0.08284049 -0.40800506 
0.9138484 -0.36012 -0.1876028 
0.3871172 -0.47480276 -0.7903814 
-0.058374483 0.014584875 -0.9981882 
0.56097883 0.24088018 -0.79200983 
0.7045438 -0.57943845 0.40971836 
0.9768038 -0.21307768 -0.021271339 
0.16311286 -0.86612034 0.47247198 
0.5399513 -0.82737076 0.15462966 
0.5363462 -0.83820397 0.09872581 
0.16382648 -0.95642734 -0.24167661 
-0.006103631 -0.9956168 0.09332708 
0.30002528 -0.64660907 0.7013427 
0.340171 -0.50767946 0.7915461 
0.23765527 -0.6780572 0.6955275 
0.22016451 -0.6179822 0.7547355 
-0.54284984 -0.58094966 0.6064748 
-0.68530893 0.3608237 0.63258046 
-0.7605996 -0.5122687 0.39883456 
0.52241194 -0.8332553 0.18102881 
0.3724081 -0.8403868 0.39377943 
-0.1857182 -0.9580099 -0.21846259 
-0.51988316 -0.58648604 -0.6210923 
-0.44099337 -0.54017764 -0.7167517 
-0.17881058 -0.44712836 -0.87641495 
0.7857339 -0.5966794 -0.16308282 
-0.44403252 -0.30515328 0.84244686 
-0.22962491 -0.8002613 0.55394435 
0.43508515 -0.4249722 -0.793788 
0.6560135 -0.60539514 0.45071405 
0.6589829 -0.7049235 0.26234412 
0.50002646 -0.66363406 0.5563843 
-0.35960042 -0.6364887 0.68232673 
-0.23061411 -0.43559492 0.87010014 
-0.37696964 -0.5364135 0.7550859 
0.08852586 -0.82495445 0.55822355 
-0.23131411 -0.9215701 -0.3117729 
-0.047135968 -0.8110802 0.5830328 
-0.46255988 -0.876745 -0.13174486 
0.01649455 -0.7012824 0.7126928 
-0.29450482 -0.8711093 -0.39298314 
-0.99023414 -0.101434655 -0.09564267 
0.11585848 -0.91480494 0.38692215 
0.5749538 -0.7715462 -0.27229503 
0.40316096 -0.9150712 -0.010293346 
-0.2565225 -0.8605524 -0.440052 
0.27203882 -0.69468856 -0.6658849 
0.7311027 -0.48431775 -0.4805468 
0.48823616 -0.67477214 -0.5534511 
0.72943467 -0.6599205 0.18008354 
0.16175468 -0.9615325 0.22201501 
0.7002819 0.2091708 -0.68253416 
-0.23165026 -0.52771753 -0.81722236 
-0.44138116 -0.64643884 -0.6223339 
-0.45299825 -0.38710847 -0.8030813 
0.0042741583 -0.7392816 -0.67338294 
0.09167723 -0.98393446 0.15319352 
0.028635098 -0.053465802 0.9981591 
-0.03338291 -0.4021528 0.9149639 
-0.17753583 -0.96853614 -0.17440963 
-0.13878897 -0.7105651 -0.68980795 
-0.40487167 -0.82063675 -0.40327936 
-0.3359176 -0.6918071 -0.6391888 
-0.5918115 -0.4984158 0.6335147 
-0.77075857 -0.44397828 0.45696214 
0.26903698 -0.53136104 0.80328983 
0.162005 -0.8197293 0.5493616 
-0.09636145 -0.94252366 0.31994313 
-0.8232935 -0.0390944 -0.56626797 
-0.4001554 0.7301819 -0.55381423 
-0.41082433 0.5681075 -0.71307594 
0.06691157 -0.13393682 -0.98872846 
0.66835463 0.12280509 -0.73363554 
0.39008707 0.09517348 -0.91584617 
0.69910026 -0.2957641 -0.65098584 
0.9051117 -0.114308365 -0.40952003 
0.97728187 -0.14750734 -0.1521903 
0.42552215 -0.89686596 0.12067482 
-0.047247436 -0.73287916 -0.6787163 
0.48771685 -0.67697686 -0.551212 
0.48013523 -0.6128053 -0.6276463 
0.4750861 -0.8715262 -0.121389285 
-0.31920388 -0.85373753 0.41138935 
-0.5059658 -0.23764473 0.82917047 
-0.5500332 -0.5943966 0.5866483 
-0.3785805 -0.90227383 0.20634645 
-0.3602359 -0.91600806 -0.1765205 
-0.13279179 -0.90871584 -0.3957294 
0.102578685 -0.46761224 -0.8779616 
0.71273476 -0.41006815 -0.56908107 
0.09659835 -0.47242865 -0.87605935 
0.6497278 0.17436953 -0.739898 
0.8035079 -0.58142114 -0.12776765 
0.419289 -0.6585414 0.6249161 
0.87084883 -0.06100997 0.4877501 
0.28702623 -0.6274754 0.7238029 
-0.05736879 -0.97171247 0.22909302 
0.12359017 -0.93994045 0.3181782 
-0.122803286 -0.96424896 0.23482613 
-0.43129256 -0.66941035 0.60487723 
-0.32512054 -0.8858856 0.33091298 
-0.421265 -0.64254 0.6400612 
-0.91994476 -0.32988778 0.21183884 
-0.84344864 0.39520562 0.36387756 
-0.7503973 0.62680143 0.20981854 
-0.97590804 0.18163614 -0.12087924 
-0.92256296 -0.26308298 -0.28224966 
-0.75324184 -0.1533117 -0.6396266 
0.10513461 -0.04493006 -0.9934426 
-0.5450726 -0.4209088 -0.7250736 
0.6726747 -0.12331272 -0.72959083 
0.49436465 -0.8673787 -0.057078276 
-0.07292448 -0.9689751 -0.23615527 
-0.18306068 -0.94380736 -0.2751662 
-0.12067804 -0.99140126 0.05060127 
-0.20065843 -0.8352418 -0.51196426 
0.5221129 -0.56416243 -0.6396241 
0.9587367 -0.27968973 -0.050967526 
0.4130436 -0.8827203 -0.22405341 
0.50025666 -0.8580658 -0.116045766 
0.84053427 -0.52212167 -0.14453834 
0.7095536 -0.6984803 -0.093053475 
-0.22878061 -0.91203016 0.34038296 
0.97035617 0.055124052 0.23530906 
0.6727813 -0.12837707 0.7286183 
0.7327509 -0.11657658 0.6704372 
0.040311173 0.90085304 0.43224862 
0.46991843 -0.6110916 0.63698024 
0.60319704 -0.15306656 0.78276694 
0.027751382 -0.9918756 0.12414809 
-0.36602142 -0.90834576 0.20232768 
-0.97068053 -0.24030428 -0.0057714 
-0.86712146 -0.1678799 -0.46895278 
-0.6838652 0.28711244 -0.6707421 
-0.1491265 0.3013052 -0.9417943 
-0.27611762 -0.42280638 -0.8631302 
0.06305073 -0.051268566 -0.9966926 
0.62279755 -0.43875575 -0.6477782 
-0.5631512 -0.28727603 -0.77481174 
-0.6454494 0.495301 -0.5814397 
-0.096369945 0.59304774 -0.7993794 
0.27630278 0.501821 -0.8196539 
-0.09097376 0.013337671 -0.99576396 
0.037571773 0.108387075 -0.99339855 
0.29772362 0.19434102 -0.9346616 
0.015422109 0.5751781 -0.81788296 
-0.31638452 -0.20162053 -0.9269574 
-0.3093413 0.16778214 -0.93603265 
0.12543225 -0.08878148 -0.9881218 
0.6511984 -0.6554793 -0.3824756 
0.6928358 -0.7002519 0.17212169 
0.96855575 -0.24682182 0.03128695 
0.67577237 -0.4794793 0.5598493 
-0.1940518 -0.30572152 0.9321364 
-0.08912591 -0.7410926 0.665461 
0.2825207 -0.7785138 0.56044483 
0.69622463 -0.70261693 0.14697213 
0.86925566 -0.33561203 0.36298674 
0.2768013 -0.18039441 0.9438427 
0.81193364 0.07059595 0.57946527 
0.8697296 0.2356581 0.43363094 
0.62284875 0.7190949 0.3081593 
0.65666634 0.60630673 0.4485326 
0.24487989 -0.036694456 0.96885884 
-0.07668557 0.03603686 0.9964039 
-0.6234092 -0.6189118 0.47781712 
-0.91516125 -0.23965801 -0.32410493 
-0.5206122 -0.624841 -0.5818391 
-0.8431391 -0.24885918 -0.47663978 
-0.9845974 -0.016417282 -0.17406487 
-0.61879635 -0.51168925 -0.5960414 
-0.7455861 -0.14632 -0.65014756 
-0.11680954 0.051377945 -0.99182457 
0.54892075 0.07260724 -0.8327151 
0.8230815 -0.04233818 -0.5663429 
0.007711555 -0.9243834 -0.3813868 
0.17509839 -0.961084 0.21367784 
-0.45191178 -0.8365987 0.30964252 
-0.64022666 -0.76244235 0.09376321 
-0.03576627 -0.16983177 -0.9848238 
-0.4906965 0.42255265 -0.7620146 
-0.17064688 -0.12813401 -0.97696537 
0.4026477 0.04830969 -0.9140793 
-0.90627694 0.21960734 -0.36115748 
-0.21544011 0.35192454 -0.9108978 
-0.71111584 -0.09301029 -0.69689554 
-0.3131171 0.38816136 -0.86676896 
-0.53527004 -0.4049833 -0.74126554 
-0.7640708 -0.36278257 -0.5334647 
0.064253815 -0.4384523 -0.8964547 
0.5327725 0.48434415 -0.6939483 
-0.21085519 -0.1644944 -0.9635776 
0.3683311 -0.041879307 -0.92875105 
0.20990127 -0.28957754 -0.93385565 
0.29386902 -0.57309085 -0.7649889 
0.22806622 -0.17945677 -0.9569645 
0.116713986 -0.43024 -0.8951377 
0.40893257 0.111325674 -0.9057487 
0.005712378 -0.8576028 -0.5142809 
0.9384511 -0.107402526 0.32829 
0.55536866 0.14701201 0.8185067 
-0.048353795 -0.12426171 0.9910707 
-0.6874755 0.23484491 0.68718654 
-0.19533376 -0.80006176 -0.5672265 
0.2788089 -0.54025173 0.7939734 
0.18881467 -0.056867708 0.9803648 
-0.5894992 0.26841772 0.7618678 
-0.7646537 0.21902877 0.60607857 
-0.9014477 0.12951885 0.41305798 
-0.3917697 0.01105397 0.919997 
-0.41128767 -0.32359037 0.8521337 
-0.80294615 -0.06474578 0.5925246 
-0.64674634 0.45589918 0.61145335 
-0.42801005 0.6250656 -0.65276366 
-0.66454905 0.7391748 0.1095227 
-0.7062363 0.5538368 -0.44101593 
-0.5100152 0.10269482 -0.854013 
0.066106565 -0.347165 -0.9354713 
0.5662896 -0.6149526 -0.5487708 
0.1962909 -0.40340266 -0.89372045 
0.16776761 -0.2782341 -0.9457483 
-0.1691244 0.022317886 -0.985342 
-0.82523155 -0.22814518 -0.51666486 
-0.4179515 0.07529004 -0.90534407 
-0.33747575 -0.55844796 -0.7577902 
0.43973178 -0.24733332 -0.8634016 
0.4934804 0.10795407 -0.8630313 
0.9472707 -0.2509527 -0.19925107 
0.33636287 -0.75148803 -0.56756127 
-0.21112654 -0.40588877 -0.8892019 
-0.06513457 -0.55582273 -0.8287452 
0.53162897 -0.8428001 -0.0840159 
-0.027780192 -0.85024214 -0.52565825 
0.16174689 -0.25361824 -0.9536854 
0.82299817 -0.5377109 -0.1831421 
0.6992976 -0.14526139 -0.6999158 
0.78274596 -0.55485374 0.2818618 
0.4954462 -0.32609165 0.80510706 
0.48756438 -0.46013483 0.7419952 
0.4425102 -0.2670755 0.85606974 
-0.650803 -0.28181902 0.705006 
-0.9900431 0.09640306 0.10257284 
-0.33185056 -0.53401875 0.777624 
0.25842097 -0.29912946 0.9185534 
-0.3285868 -0.24668267 0.91168994 
-0.17708576 -0.39555228 0.9012099 
-0.44373605 0.32670525 0.8344832 
-0.96738654 -0.15229662 0.20240846 
-0.78085566 -0.46322963 -0.41914546 
-0.99358076 -0.102059595 0.048796296 
-0.5067281 -0.33744937 -0.79331875 
-0.049133047 -0.18584198 -0.9813505 
0.19357523 -0.1325591 -0.9720888 
0.3798925 -0.5395478 -0.75137866 
0.19979331 -0.60788715 -0.7684763 
0.7337669 0.2699096 -0.6234861 
0.850547 0.27199897 -0.45009616 
0.9581036 0.19127625 0.21319252 
0.70101494 -0.6980573 0.14592521 
0.24141948 -0.5437778 -0.8037552 
0.73828 -0.6496989 -0.18120186 
0.7357185 -0.63905233 0.22434482 
0.35673776 -0.86267555 0.3585095 
0.8050876 -0.5908443 -0.052317407 
0.7306529 -0.3163119 -0.6050563 
0.67403764 -0.70836645 0.20950009 
0.49435544 -0.84027916 -0.22258429 
0.30516955 -0.9521461 0.017010488 
0.12598148 -0.77692497 0.61686003 
-0.27834257 -0.87902147 0.38710058 
0.38478193 -0.7126877 0.5865316 
0.59436387 -0.5540984 0.5828435 
0.08034604 -0.96992165 -0.22977498 
-0.6985795 -0.5561413 0.45021513 
-0.4377138 -0.67644405 0.5923091 
-0.38367787 -0.85991913 0.33664578 
-0.6483433 -0.64718586 0.40100053 
-0.46958828 -0.8098519 -0.35160625 
-0.5568845 -0.4068148 -0.72414184 
-0.52375257 -0.4722866 -0.70896316 
-0.06487166 -0.5095679 -0.8579815 
0.11582456 -0.992578 -0.037061926 
0.043276645 -0.8973288 0.43923604 
-0.11404233 -0.86514014 0.48839214 
0.028738352 -0.99242914 -0.11940946 
0.4029604 -0.7226578 -0.5615947 
0.33113196 -0.93966556 0.08590857 
0.3622456 -0.93086714 0.04758722 
0.14172803 -0.5709965 0.8086261 
0.31456584 -0.7657743 0.5609262 
0.27682495 -0.820583 0.50001174 
-0.26930758 -0.95945317 -0.083204746 
-0.39471352 -0.8573197 -0.33046058 
-0.2916867 -0.8862885 -0.35973835 
-0.6093379 -0.70469356 -0.3634754 
-0.7923316 -0.5734558 0.20822884 
-0.53652185 -0.80982727 0.23732722 
-0.67618704 -0.49466798 0.5459623 
-0.40930453 -0.73186636 -0.54483175 
0.55414385 -0.7483155 -0.36462122 
0.6519786 -0.46384147 -0.59981257 
0.23276119 -0.2617626 -0.9366444 
0.5240627 0.10916458 -0.8446547 
0.25418866 -0.6143671 -0.7469547 
0.591921 -0.70388436 -0.39265317 
0.74760365 -0.04452861 -0.6626508 
0.21295863 -0.7287722 -0.6507993 
0.51716423 -0.3395778 -0.7856387 
-0.5456133 -0.7396131 -0.39405409 
-0.0064211898 -0.6554471 -0.75521386 
-0.34764183 -0.8118554 -0.46907994 
0.20278437 -0.8810453 -0.42736152 
0.16857362 -0.91132796 -0.37558556 
-0.01484685 -0.9251501 -0.3793111 
-0.15300177 -0.84495366 0.51248807 
-0.783974 -0.53411794 -0.31639025 
0.05922296 -0.7948054 -0.60396767 
0.66476256 -0.63050705 -0.40068913 
0.1764779 -0.98385775 -0.029655704 
-0.22727251 -0.91794443 0.32515416 
-0.09967233 -0.9947834 0.02171294 
0.36857828 -0.6962072 0.6159916 
0.14628196 -0.9677967 0.20486872 
-0.039650448 -0.82760847 -0.5599038 
-0.31721827 -0.15415663 -0.9357395 
-0.3784371 0.5123731 -0.77088225 
-0.022973513 0.079656616 -0.99655765 
0.057784274 0.01668821 -0.9981897 
0.998072 0.023926215 -0.057270426 
0.7176548 -0.68783414 0.108884476 
0.76946336 0.035921816 -0.63768 
0.669038 0.038041092 -0.742254 
0.81027293 -0.3627776 -0.46027192 
0.2742098 -0.6899792 -0.6698789 
-0.13445356 -0.39783055 -0.9075533 
-0.37601855 -0.5278683 -0.7615545 
0.28928316 -0.94588363 0.14703584 
-0.044502974 -0.99536055 0.08530456 
0.039082788 -0.9990977 -0.016622037 
-0.667659 -0.4023707 0.626362 
-0.78022236 -0.52990204 -0.33235058 
-0.60411555 -0.41029045 -0.683159 
-0.15667297 -0.4288718 -0.8896755 
0.17817676 -0.4576934 -0.87107396 
0.24491905 -0.40363604 -0.8815287 
0.56888795 -0.1549711 -0.8076822 
0.3434607 -0.8778865 -0.3336917 
0.3859937 0.2734323 -0.8810469 
0.45703784 -0.5941818 -0.66186434 
0.81732655 -0.56681085 -0.103454374 
0.96187687 -0.2286726 0.15000561 
-0.21689521 -0.57828933 0.78647184 
-0.12438662 -0.95202816 0.2795895 
0.57639825 -0.8167706 0.02551621 
-0.4654095 -0.7830478 0.41258973 
-0.4892166 -0.6916982 0.5312445 
-0.69249886 -0.5090681 0.51117027 
-0.5872166 -0.55025065 0.5936338 
-0.9516152 -0.25964937 0.16434969 
-0.93115383 -0.22291511 -0.28855056 
-0.88033974 0.47102585 0.05600582 
-0.997025 0.025733681 -0.07265706 
-0.9424208 0.19540454 -0.2714043 
0.25283247 -0.04118097 -0.96663326 
0.18088728 -0.51784706 -0.8361305 
-0.17060545 0.037636988 -0.98462045 
0.1698801 -0.004725251 -0.9854535 
0.13349539 -0.058143523 -0.98934245 
0.44834256 -0.7326763 -0.5120297 
0.032954194 -0.7281988 -0.68457323 
-0.018938908 -0.9680392 -0.25008294 
0.37044376 -0.8371357 -0.40246153 
0.36216244 -0.52445585 -0.77057403 
0.6343268 -0.54811007 -0.54516506 
0.40769106 -0.6649789 -0.6257725 
0.18184528 -0.73480743 -0.65344507 
0.8564668 -0.015598195 -0.5159664 
0.86497647 -0.39111596 -0.31439474 
0.6696802 -0.7232002 0.16884924 
0.91422206 -0.22796343 0.3350086 
0.8997155 -0.3268754 0.28924832 
0.6145567 -0.23901887 0.7517913 
0.4480325 0.13254653 0.88413715 
0.3505342 -0.28526878 0.8920468 
0.29476574 -0.36776713 0.8819641 
-0.0594037 -0.4522584 0.8899065 
0.0051474078 -0.9989654 -0.0451851 
-0.92244655 -0.3805462 0.065398075 
-0.6667234 -0.34743622 -0.6593694 
-0.8232839 -0.042957135 -0.56600213 
-0.63999385 -0.3109786 -0.70263803 
-0.48060086 -0.187222 -0.856721 
0.11834771 -0.08281124 -0.98951316 
-0.11478699 -0.7685829 -0.6293681 
-0.6219707 -0.77221996 -0.12972572 
-0.29460257 0.5910131 -0.7509414 
-0.16460685 0.5843226 -0.79465204 
0.007995043 0.43691888 -0.8994654 
0.15564764 0.3813935 -0.91121507 
0.13572845 0.076551266 -0.98778427 
0.46625 0.41827288 -0.7795248 
0.094914146 0.2941035 -0.95104915 
0.6949719 0.16068844 -0.70085186 
0.8050606 -0.12924045 -0.5789424 
-0.14671364 -0.27337822 -0.9506522 
-0.19189037 -0.73648506 -0.6486663 
0.898117 -0.17865291 -0.40183228 
0.78492916 -0.6105436 0.10546528 
0.8523402 0.3071097 0.42331997 
-0.12954774 0.12280477 0.98393923 
-0.40832773 -0.7783663 0.4768797 
-0.30327114 -0.79385155 -0.5270925 
0.8513677 -0.5013996 0.1541801 
0.45649552 -0.6726422 0.5823783 
0.7863941 -0.33014658 0.52209914 
0.4290972 -0.22207221 0.87553394 
0.7868094 0.16480942 0.5947847 
0.7706366 0.23389596 0.5928 
0.5028283 0.19579749 0.84191877 
0.3476734 -0.4753078 0.80821157 
-0.5913666 -0.38149273 0.7104569 
-0.49944752 -0.71786106 0.4850028 
-0.7758115 -0.5861037 0.23366466 
-0.90182185 -0.06593052 -0.42704853 
-0.55267984 0.049548976 -0.8319195 
-0.76098466 0.45501938 -0.46244964 
-0.7767606 0.1634045 -0.6082286 
-0.66740644 -0.069512226 -0.7414424 
0.19812882 0.14169009 -0.96988094 
0.45976895 0.34609908 -0.81781906 
0.62373525 0.08669688 -0.7768127 
-0.26443365 -0.20740248 -0.9418382 
0.19646342 -0.494255 -0.84682596 
-0.37935197 -0.89304864 -0.24198411 
-0.29797792 -0.9137403 -0.27620286 
0.41697067 -0.6698207 -0.61439055 
0.46929136 -0.05534571 -0.8813073 
0.011342316 0.2680093 -0.96334964 
0.080494836 -0.10672167 -0.99102527 
-0.7961139 0.060900446 -0.6020746 
0.20337456 0.45969668 -0.86447555 
0.48820543 0.8543243 -0.1782849 
-0.028971188 0.31019628 -0.9502311 
-0.069327824 -0.10023241 -0.99254584 
0.3083487 0.16225518 -0.93733364 
0.7418422 0.003274788 -0.67056656 
0.6516852 0.5968973 -0.46799594 
0.80089843 -0.443979 -0.40180144 
0.9163684 0.39769098 -0.045943994 
0.71130687 -0.45797536 -0.53319895 
0.6221927 0.10235165 -0.7761447 
0.704212 0.18622485 -0.685132 
0.70303893 -0.32471764 -0.6326885 
0.56453353 -0.16213381 -0.80932975 
0.8065379 -0.06918745 -0.5871199 
0.8740382 0.32815576 -0.3582889 
0.6788898 0.5318366 0.50621974 
0.50955296 -0.4395318 0.7397078 
-0.50299555 -0.6952023 0.5135068 
0.18789853 -0.9628846 -0.19377176 
-0.7449534 -0.61649716 0.25490355 
-0.33200112 -0.41028202 0.8493786 
-0.3596328 -0.12514876 0.92466325 
-0.7955572 -0.0471799 0.60403883 
-0.74956614 -0.19756697 0.6317579 
-0.66045207 -0.6025289 0.4480648 
-0.4384301 -0.7143188 0.545461 
-0.5874756 -0.08775327 0.80447 
-0.86636305 0.043502126 0.4975166 
-0.6181034 0.77545464 -0.12891264 
-0.6109628 0.7915822 -0.0110458555 
-0.66183525 -0.14130802 -0.7362107 
-0.59888536 -0.08868905 -0.79590875 
-0.3898458 -0.3443372 -0.85407984 
0.24447648 -0.50836337 -0.8257106 
-0.33728373 0.25007284 -0.90758103 
-0.04332204 -0.59117216 -0.80538106 
0.6237303 0.12368537 -0.7717917 
0.39641124 0.020003693 -0.9178551 
0.2737181 0.0056597134 -0.9617934 
-0.15701742 -0.39568573 -0.90486383 
0.22079733 -0.071415566 -0.97270167 
0.7395581 -0.103856 -0.66503215 
0.4698146 -0.43458858 -0.76837957 
0.36467785 -0.5933459 -0.71760064 
-0.6234401 -0.46653634 -0.62742835 
0.19817004 -0.62838423 -0.752238 
0.018011548 -0.729395 -0.6838557 
-0.015954847 -0.9856892 -0.1678163 
0.7293888 -0.22761647 -0.6451224 
0.65474975 -0.66580474 0.35778064 
0.9221421 -0.21136671 -0.3240034 
0.7934419 -0.5946038 0.12998591 
0.6921543 -0.4680182 0.54943746 
0.875234 -0.19774406 0.44143277 
0.22957002 0.21098699 0.9501485 
-0.40045956 -0.29706332 0.866825 
-0.7315211 0.115025744 0.6720461 
0.046929028 -0.70672596 0.70592934 
0.08009182 -0.9832756 0.16356795 
-0.3604635 -0.7700814 0.5263465 
-0.53704375 0.0106279645 0.8434875 
-0.84928936 -0.1748508 0.4981314 
-0.9696898 -0.16982046 -0.17567828 
-0.7861582 0.042758152 -0.6165444 
-0.27986634 0.52234393 -0.8055009 
-0.20951912 0.07137627 -0.975196 
-0.49621886 0.07483512 -0.8649663 
-0.009424452 0.439212 -0.89833397 
0.6104285 0.018362656 -0.79185855 
0.3665016 0.08540194 -0.9264898 
0.44657943 0.5344473 -0.71758837 
0.78572434 0.16049926 -0.5973921 
0.93709743 -0.34839177 -0.021720972 
0.6797557 -0.28454724 -0.67599195 
0.98582774 -0.14994492 -0.07523469 
0.92627317 -0.23735484 -0.29271272 
0.49948874 -0.56761235 -0.65446717 
0.5584323 -0.76369256 -0.32392463 
0.7681991 -0.63225126 0.10064055 
0.918 -0.394184 -0.043532845 
0.8290129 -0.5076334 0.2346193 
0.783022 -0.62047756 -0.043408837 
0.36369842 -0.90149057 -0.23460233 
0.10299324 -0.95939523 0.26258937 
0.031990673 -0.866104 0.49883923 
0.2916559 -0.8163732 0.4984692 
0.5883653 -0.6814125 0.43531987 
0.45763287 -0.19517118 0.86745626 
-0.54342717 -0.11944538 0.8309151 
-0.6820926 -0.67332107 0.2852867 
-0.35371864 -0.93532944 -0.006477652 
-0.56832373 -0.79781795 0.20123334 
-0.4156403 -0.6177856 -0.66752094 
-0.7858834 -0.61748254 -0.033207268 
-0.9193882 -0.37028065 -0.13273165 
-0.58459634 -0.090134926 -0.8063021 
-0.26407236 -0.80089706 -0.5374288 
-0.6310123 -0.63990694 -0.4385688 
-0.39185244 -0.50668794 -0.7679316 
0.028898288 -0.48873714 -0.8719524 
0.5613963 -0.4637721 -0.68538284 
0.1841365 -0.98279774 -0.014227441 
0.27746242 -0.9191041 -0.27975398 
0.1731263 -0.8262043 0.53610986 
0.16959582 -0.9847888 0.03779518 
0.59117997 -0.7199257 -0.36361137 
0.08507958 -0.82381976 -0.5604307 
-0.0332717 -0.3059062 -0.9514802 
0.24285524 -0.4297585 -0.86967176 
-0.067449056 -0.6227115 -0.779539 
0.23162201 -0.84581935 -0.48056316 
0.08972895 -0.9839019 -0.15455037 
0.25548336 -0.95251477 -0.16566195 
-0.08176008 -0.97386605 -0.21189712 
0.079647005 -0.6457151 -0.7594132 
0.41015112 0.21326171 -0.8867332 
0.45505235 -0.20040788 -0.86761975 
0.7417188 0.0013369203 -0.6707096 
-0.061738506 -0.44731897 -0.89224106 
0.1483931 -0.61971444 -0.7706709 
-0.5814874 0.029496962 -0.81302047 
0.12620452 -0.091719896 -0.98775506 
0.35823408 0.24708313 -0.9003434 
-0.48898187 -0.33176035 -0.8067416 
-0.31164277 -0.25160024 -0.91628385 
-0.2472107 -0.4550247 -0.85547626 
0.56098944 -0.64887226 -0.5140581 
0.76868474 -0.6159722 -0.17234297 
-0.4578706 -0.8882193 -0.037695177 
-0.2555131 -0.9602439 -0.112449095 
0.28351155 -0.700461 -0.6549623 
0.13635446 -0.9808156 0.139314 
0.06597743 -0.9142466 -0.3997502 
0.053598452 -0.96364856 -0.26174185 
-0.58791286 -0.7022982 -0.4014172 
-0.17707816 -0.6326905 -0.7538873 
-0.5074654 -0.70432025 -0.4963988 
-0.3324491 -0.38711265 -0.86001253 
-0.17981549 -0.17926301 -0.9672286 
-0.15623043 0.10407363 -0.9822224 
-0.34800887 -0.74979335 -0.5627609 
0.09753398 0.30121675 -0.9485546 
0.7608479 -0.27042636 -0.5898983 
0.967176 -0.10110804 -0.23312633 
0.99807787 -0.009853361 -0.061184164 
-0.09309768 0.30325055 -0.9483522 
0.39639354 -0.01400791 -0.9179739 
0.31711945 -0.0656684 -0.94610935 
-0.34527552 -0.9379135 -0.03321533 
0.11424412 -0.94283193 -0.3130756 
-0.13759808 -0.78914773 -0.5985923 
0.07756227 -0.4542471 -0.8874929 
-0.11663651 -0.59242284 -0.79713947 
0.34141338 -0.8231105 -0.45379063 
-0.06884639 -0.9362734 0.34445962 
-0.39862534 -0.879659 0.25941837 
0.498427 -0.3901676 -0.77417046 
0.090237595 -0.3273569 -0.9405821 
0.6724544 -0.46688345 -0.5743039 
0.25709245 -0.7105014 -0.6550507 
0.7883586 -0.26103896 -0.55709004 
0.7442725 -0.39930376 -0.53536433 
0.9724303 0.15158199 0.17720723 
0.71480834 -0.69119596 -0.10628836 
0.53362375 -0.7761692 -0.3358679 
0.33746535 -0.6716079 0.6595908 
0.28979245 -0.9428749 -0.16433881 
0.11342453 -0.99170244 0.060508784 
0.29630724 -0.9157877 0.27117318 
0.31834072 -0.80877006 0.49452013 
-0.63107574 -0.7727759 0.067534186 
-0.37667504 -0.92118716 0.09762259 
-0.96390444 -0.2652608 0.022911007 
-0.94743824 -0.05199794 -0.31568506 
-0.85974413 -0.102952845 -0.50024086 
-0.56879264 0.15714753 -0.80732876 
-0.82581055 -0.051134963 -0.5616247 
-0.80192655 -0.0014533107 -0.59742105 
-0.078461714 0.05922638 -0.99515635 
0.36662844 -0.25008312 -0.8961261 
0.12687765 -0.40300426 -0.9063607 
-0.0057977675 -0.34205303 -0.93966275 
0.28994453 0.378438 -0.8790433 
-0.47134566 -0.0923431 -0.87710094 
-0.40793866 -0.21717241 -0.8868045 
0.16389489 -0.9785513 -0.12480295 
0.6561673 -0.7533271 -0.044077553 
-0.24361852 -0.57015693 -0.7845834 
0.029449549 -0.8351016 -0.54930705 
-0.56427586 -0.72518253 -0.39459246 
0.10379589 -0.16281712 -0.98118144 
0.96063435 0.08196156 -0.26545054 
0.8261104 0.26411337 -0.49778077 
0.8416089 -0.5121104 -0.1715736 
0.88653797 -0.40067473 -0.23132272 
0.958225 -0.27428347 -0.08107646 
0.4050278 -0.57533807 0.7105904 
0.56251955 -0.46383017 0.6844219 
-0.18073265 -0.91247886 0.36703974 
-0.62007457 -0.78407574 0.027069306 
-0.30121344 -0.8252887 0.47767043 
-0.4148753 -0.821041 -0.39213547 
-0.94858444 -0.21553354 0.23180352 
-0.95249987 -0.30428645 -0.0124029955 
-0.9655369 -0.22496825 -0.13087355 
-0.7228279 -0.18133241 -0.6668121 
0.009551845 -0.27309442 -0.9619398 
0.017790677 -0.017318841 -0.9996917 
-0.22452089 -0.36868578 -0.9020317 
-0.092611745 -0.6944264 -0.7135791 
-0.48224285 0.3055977 -0.8210066 
-0.36913365 0.31208417 -0.87541074 
-0.1341986 0.2064511 -0.9692103 
0.28823945 0.21601722 -0.93287444 
0.38372022 -0.16058704 -0.9093793 
0.3118057 -0.33355513 -0.8896732 
0.12789413 0.14553851 -0.9810513 
0.24327232 -0.4301258 -0.8693737 
0.52049625 -0.50521696 -0.6883601 
0.33411276 -0.1702578 -0.9270281 
0.6119367 -0.79072875 -0.01677869 
0.6248175 -0.20853557 -0.7524069 
0.37998682 -0.8953996 -0.2320984 
0.5003435 -0.6414149 0.5815871 
0.45321792 -0.71379656 0.5339364 
-0.32261515 -0.8479843 0.42052585 
-0.52093625 -0.37789327 -0.7653901 
0.65721846 -0.69942003 -0.28084803 
0.38848954 -0.91779107 0.0820702 
0.038737107 -0.9603419 -0.2761215 
0.9176116 -0.39512086 -0.043226812 
0.62019235 -0.72303194 0.30427992 
0.19086301 0.6266416 0.7555737 
0.8265248 -0.12729591 0.5483181 
-0.54624325 0.28754753 0.78672403 
-0.9161205 -0.29474923 0.27174625 
-0.8399345 -0.41511786 -0.3495529 
-0.30255798 -0.47473085 -0.82649225 
-0.92314833 -0.38155237 -0.047064673 
-0.99796015 0.05718825 -0.02837404 
-0.9164912 -0.38016933 0.12456027 
-0.8914424 0.052601837 -0.4500704 
-0.34097716 0.083431415 -0.936362 
-0.29361966 0.042550515 -0.9549749 
-0.7328493 -0.47250527 -0.48956192 
0.5423879 -0.14298825 -0.8278706 
-0.18830034 0.23303932 -0.9540627 
-0.445325 0.06937304 -0.8926775 
-0.080783665 -0.57922006 -0.81115854 
0.12687619 -0.40666637 -0.9047237 
-0.31782383 -0.18445164 -0.93003535 
0.47313502 0.20198788 -0.8575221 
0.5827425 0.16239806 -0.79626507 
-0.4536454 0.5536764 -0.69831824 
-0.047298923 -0.37561983 -0.9255662 
0.38238248 0.6311084 -0.6748969 
0.22863369 0.3464353 -0.9097853 
0.8927334 -0.0016301345 -0.45058253 
0.7766692 -0.07259761 -0.6257114 
0.573182 0.18403429 -0.7984948 
0.5938515 0.119848 -0.7955985 
0.4873203 0.7582576 -0.433087 
0.7524296 0.07475323 -0.65441704 
0.6074292 -0.4187105 -0.67506397 
0.44707784 -0.3415827 -0.82670605 
0.6764815 0.07283782 -0.73284894 
0.9842594 -0.15082744 -0.09211131 
0.72094494 0.63911235 0.2679063 
0.3559829 0.88723475 -0.29341242 
0.34753588 0.82635206 -0.44312656 
0.97720355 0.17178692 0.124750376 
0.89204925 -0.21757603 0.3961172 
0.71209836 -0.3971574 0.5789491 
0.51475835 -0.84090996 -0.16701645 
-0.13561918 -0.98213804 0.13043198 
-0.5059286 -0.668744 0.54480994 
-0.39290985 -0.84620875 0.35993442 
-0.41401207 -0.30865413 0.856345 
-0.22249864 0.3030495 0.92663664 
-0.24324265 0.103465326 0.96443146 
-0.7134839 -0.20751834 0.669236 
-0.99341255 -0.06753037 0.09258115 
-0.60368186 -0.48365003 0.6337594 
-0.79474646 -0.052444264 0.60467166 
-0.786531 0.6168354 -0.02971691 
-0.24751358 0.8862118 0.3916194 
-0.9983092 -0.057028152 -0.01124946 
-0.9132235 0.28022546 -0.29579845 