# OOMMF: rectangular mesh v1.0
# Segment count: 1
# Begin: Segment
# Begin: Header
# Desc: Time (s) :  4.960000000000006e-07
# Title: m
# meshtype: rectangular
# meshunit: m
# xbase: 2e-09
# ybase: 2e-09
# zbase: 5e-10
# xstepsize: 4e-09
# ystepsize: 4e-09
# zstepsize: 1e-09
# xmin: 0
# ymin: 0
# zmin: 0
# xmax: 1.024e-06
# ymax: 1.024e-06
# zmax: 1e-09
# xnodes: 256
# ynodes: 256
# znodes: 1
# ValueRangeMinMag: 1e-08
# ValueRangeMaxMag: 1
# valueunit: 
# valuemultiplier: 1
# End: Header
# Begin: Data Text
-0.91652244 -0.3231061 0.2357733 
-0.88106585 -0.34768915 -0.32067943 
-0.68661785 -0.58131963 -0.43660453 
-0.25009722 -0.78209865 -0.57076555 
-0.8348222 -0.023329794 -0.55002505 
-0.77842075 -0.5281033 -0.3393642 
-0.36295035 -0.39957356 -0.8417887 
-0.13446188 -0.5249226 -0.8404619 
-0.8074952 -0.2669223 -0.52602667 
-0.46604893 -0.27083302 -0.84228736 
-0.07905934 0.19975565 -0.97665113 
0.15461284 0.49733984 -0.8536674 
0.7482311 0.4354047 -0.5005728 
0.6800795 0.54821813 -0.48677388 
0.92823094 7.892952e-05 0.37200463 
-0.027937818 -0.5920594 0.8054101 
0.5120418 -0.8319709 0.21362984 
0.49823073 -0.61289084 0.6132952 
0.3593917 -0.11421239 0.9261713 
0.2556566 0.042067423 0.96585196 
0.93392193 -0.23030232 0.27340567 
0.858541 -0.50524473 0.08737945 
0.8584296 -0.50838125 -0.068170935 
0.4556744 -0.8435738 -0.28415528 
-0.18582954 -0.87566197 0.44573945 
0.40002516 -0.90468544 0.1467114 
0.3402248 -0.92861253 0.14807421 
0.04998964 -0.846045 -0.5307627 
0.52219266 -0.84070957 0.14325623 
0.12506197 -0.95822924 0.25720844 
0.66198534 -0.6524225 0.36894485 
0.3314242 -0.47558197 0.8148496 
0.7101492 -0.32432938 0.6248989 
-0.13459215 -0.98774904 -0.07897406 
0.637586 -0.34702435 -0.68779236 
0.70181775 -0.3307365 -0.63092417 
0.25634018 0.0031280091 -0.9665816 
0.24907276 -0.31119597 -0.9171259 
0.7368876 -0.45230293 -0.502413 
0.81656104 -0.5744954 0.05641851 
0.5991992 -0.40657598 0.68967843 
-0.61564964 -0.49427885 0.61372966 
-0.5769954 -0.43510237 0.69120353 
-0.7220062 -0.290525 -0.627935 
-0.92578095 0.011843382 -0.37787497 
-0.98576254 -0.02787916 0.1658164 
-0.90723175 0.06072778 -0.41622448 
-0.7459584 0.0380831 -0.6649029 
-0.35348412 0.062940784 -0.9333207 
0.3953512 0.4459375 -0.8030177 
0.11720899 0.21499701 -0.96955574 
0.24773854 -0.6886386 -0.6814709 
0.06313518 -0.15020347 -0.98663723 
0.37764946 -0.05631329 -0.92423475 
0.011761441 -0.41112506 -0.9115031 
0.33657417 -0.75542855 -0.56217945 
0.97790116 -0.16344772 -0.13036169 
0.93040067 0.2021616 -0.30575395 
0.9139242 -0.37910104 0.14499971 
0.71024716 -0.58648616 0.38933676 
0.21154642 0.09021412 0.97319555 
-0.9967901 0.07537075 0.026998153 
-0.98015237 -0.16888422 -0.10382497 
-0.8560876 -0.11900892 0.5029423 
-0.84289384 0.08256618 0.53170747 
-0.9275979 -0.05008386 0.37020797 
-0.8273801 -0.3722768 -0.42053786 
-0.11853025 -0.97681457 0.1782807 
-0.42583507 -0.35544366 -0.8320602 
-0.6943284 -0.71813637 -0.04677966 
0.3658003 0.20380904 -0.9081036 
0.16185455 -0.8793349 -0.44785404 
0.67695904 -0.4325275 -0.5955221 
0.252107 -0.83501554 -0.48907182 
0.6293197 -0.55569726 0.5432839 
0.056919195 -0.15315248 0.986562 
-0.5960044 -0.22175607 0.7717532 
-0.22798286 -0.26449582 0.93705165 
-0.475081 -0.17223322 0.8629216 
-0.47263604 0.3642175 0.80247176 
-0.456446 0.31360665 0.8326512 
-0.84467566 0.1933662 0.49913192 
-0.7073706 -0.70508957 0.049755927 
-0.44010532 -0.106714986 -0.8915825 
-0.86236346 -0.2948077 -0.41160405 
-0.4055843 -0.24901147 -0.87948555 
0.10214644 -0.09948002 -0.98978275 
-0.20343022 -0.8558886 -0.47546902 
-0.72426593 -0.47124916 -0.503352 
0.11081426 -0.44296464 -0.88966435 
0.52863616 -0.20484917 -0.82376015 
0.38045472 -0.13993725 -0.91415083 
0.6917479 -0.5433726 -0.47563756 
0.31950364 -0.8755836 -0.36231306 
-0.6123859 -0.59382504 -0.5218769 
-0.9612556 0.012439097 -0.27537775 
-0.9879758 0.11585498 -0.10237976 
-0.41777486 -0.20920664 -0.8841362 
-0.38177878 -0.6578383 -0.64922553 
-0.36079907 -0.5797375 -0.7305672 
-0.63400865 -0.18656448 -0.7504844 
-0.7870435 -0.3780385 -0.48749292 
-0.73231596 0.4979164 -0.4645349 
-0.59360296 -0.41821986 -0.687552 
0.1475627 0.109362945 -0.9829879 
-0.23802982 -0.4382605 -0.8667581 
-0.4089302 -0.7483855 -0.5222023 
-0.34458295 -0.9387223 -0.007940614 
0.0019891453 -0.99204457 -0.12587191 
0.048210632 -0.9987956 -0.009118526 
0.38433033 -0.8126418 -0.43806815 
0.04931075 -0.9578986 0.28284046 
0.71046746 -0.48393473 -0.51092386 
0.5209852 -0.83170336 -0.19194813 
0.21288769 -0.7666376 -0.6057603 
0.39263055 -0.8817518 -0.26144797 
0.95350415 -0.29860887 0.04077729 
0.61328405 -0.78477556 -0.08949952 
0.26508254 -0.8472504 -0.46032393 
0.62074965 0.26022476 -0.7395627 
0.0890479 0.006378083 -0.9960069 
-0.28991553 0.47831437 -0.82895374 
0.9530726 0.04302415 0.29966936 
0.5553714 -0.43848804 0.7066052 
0.7672884 0.5911187 0.24869086 
0.023503127 0.35171703 0.9358113 
-0.0064433087 0.7101589 0.704012 
-0.5320135 -0.69227177 0.48756686 
-0.9675898 -0.022711981 0.25150394 
-0.9697696 -0.22364952 -0.097610615 
-0.87611336 -0.48159677 -0.022135189 
-0.9076311 -0.35653007 0.22156754 
-0.96361464 -0.019827481 0.26655892 
-0.9516963 0.16890596 0.25640818 
-0.68046004 -0.68911105 0.24919897 
-0.47502968 -0.6101024 -0.63413084 
-0.6341687 -0.5394845 -0.55388325 
0.050654672 -0.28294173 -0.95779854 
0.78430766 -0.059426893 -0.61751914 
0.9405743 -0.05573819 0.33498245 
0.8928133 -0.43247455 -0.12589717 
0.7686746 -0.29085594 0.56968606 
0.15672992 -0.3399873 0.9272779 
-0.3745216 0.15692846 0.91384196 
-0.58596724 0.01606239 0.81017554 
-0.71648663 -0.1560241 0.679929 
0.028004365 -0.31283507 0.9493945 
-0.17276354 -0.37764078 0.90969235 
0.18959163 0.1379587 0.97212267 
0.2522489 -0.85931104 0.44492137 
-0.017904056 -0.9275427 -0.37328812 
-0.62354684 -0.77764684 -0.08034097 
-0.20587301 -0.91970557 -0.33430243 
-0.22928663 -0.80483747 0.5474161 
0.6938183 -0.71042603 0.11794535 
-0.17373206 -0.7602422 0.62597847 
0.0857787 -0.8988762 0.42972505 
-0.056840785 -0.5306522 -0.84568167 
0.24568012 -0.8459323 -0.47332865 
0.38693374 -0.6705286 -0.6329879 
0.079514824 -0.9299923 -0.3588757 
-0.31946307 -0.72841036 0.6061038 
-0.40623215 -0.2726307 0.8721513 
-0.66982675 0.014739059 0.7423712 
-0.34437314 0.1827529 0.92087376 
-0.3793246 0.36277565 0.85117966 
-0.392851 -0.7247647 0.566025 
-0.6781731 -0.67642975 0.28726992 
-0.5436441 0.07288952 -0.8361449 
-0.025835413 -0.4865225 -0.87328595 
0.46742147 -0.41937047 -0.7782324 
0.9460435 -0.20556304 -0.2504909 
0.9100649 -0.41422457 -0.014141375 
0.14023557 -0.82549924 0.54670376 
-0.13633116 -0.9551953 -0.2627087 
0.14407757 -0.95244366 -0.26850107 
0.47268102 -0.8800062 -0.04649677 
0.6025914 -0.49854356 0.62316775 
-0.03259967 -0.0026846433 0.9994649 
-0.6402928 0.7262362 0.25021207 
0.14755563 0.35195026 0.92431515 
0.3487253 0.9372055 -0.006055747 
-0.4925404 0.7430688 -0.4530483 
-0.9221956 0.15468185 -0.35444146 
-0.033227008 0.99943954 0.0040693013 
-0.6877242 0.47753477 0.5468053 
-0.66203207 -0.1950042 0.7236622 
-0.51865375 -0.5925334 0.61636233 
-0.30472764 -0.57088864 0.7623827 
-0.61203384 -0.78639644 0.08363821 
-0.09391869 -0.5682908 -0.81745034 
-0.16984053 -0.6308453 -0.7570922 
-0.30399016 -0.9511633 -0.053650934 
-0.33497894 -0.9420137 0.019988025 
-0.5520086 -0.6107484 0.56769085 
-0.42752147 -0.044206027 0.9029237 
-0.64803183 -0.5366191 0.54045796 
-0.6803968 -0.73000896 -0.06439854 
-0.81612223 -0.4436192 -0.37033308 
0.60407 -0.51623976 -0.6071211 
0.33500087 -0.69745135 -0.6335109 
0.054457504 -0.9672217 -0.24802567 
-0.07025784 -0.2886763 -0.9548455 
-0.676787 0.12755953 -0.7250434 
0.6549444 -0.1102759 -0.74758756 
0.47258496 0.6427586 0.6029302 
-0.021880532 0.8305108 0.5565726 
0.11767711 0.5855179 0.80207294 
-0.4421437 -0.0532894 0.89535975 
-0.4699922 0.6919536 -0.54800326 
-0.48626247 0.12614451 -0.8646597 
-0.8455566 -0.18711095 -0.5000234 
-0.8512668 0.44072825 -0.28478676 
-0.4607747 -0.48833135 -0.74109334 
0.62899303 -0.39713794 -0.6683183 
0.33263558 -0.92924607 -0.16079617 
-0.19084488 -0.8709993 -0.45270136 
0.1233817 -0.6303898 -0.7664109 
0.39690384 -0.38935187 -0.8311874 
0.5108972 -0.29985493 -0.8056496 
0.93513495 -0.022282822 -0.35359028 
0.9070254 0.2814212 0.31322047 
0.68914896 -0.004903653 0.7246032 
-0.14805941 0.25954378 0.9543142 
0.4715481 -0.033813484 0.8811919 
-0.30607757 -0.0070730695 0.9519804 
0.04075114 0.7124476 0.70054114 
-0.74467 0.5818832 0.3269229 
-0.66917664 0.39891005 -0.62695575 
-0.11875283 -0.3138719 -0.94200975 
0.14604786 -0.95439065 -0.2604007 
0.5056596 -0.8624305 0.022849424 
-0.82040447 0.028955275 -0.5710499 
-0.39220947 -0.18188581 -0.9017146 
0.18771203 -0.83636504 -0.51503193 
-0.025799043 -0.9786275 -0.20401613 
0.98524076 -0.16702387 0.03746632 
0.61818826 -0.68471265 0.38602075 
0.3162937 -0.89649385 -0.31025338 
-0.9256375 -0.31950247 -0.20276499 
-0.48907542 -0.37332258 -0.78831184 
-0.3770249 -0.13371314 -0.9165005 
0.35894603 -0.2884434 -0.8876701 
0.26108524 -0.5527738 -0.7913759 
-0.3128158 -0.9493103 0.030925568 
-0.51070696 -0.7200972 0.46972167 
-0.67139494 -0.7142307 0.19774576 
-0.2748839 -0.5680469 -0.77573293 
-0.10716796 -0.9703785 0.21651939 
-0.085532546 -0.55013937 -0.830681 
-0.43758774 -0.7319524 -0.5222668 
-0.2387351 -0.68315357 -0.69014984 
0.18905501 -0.9437809 -0.27117485 
0.068492055 -0.6913093 -0.7193055 
0.90662795 -0.16649498 0.38769227 
0.42324084 0.13628489 0.89570844 
-0.7653458 -0.080825746 0.6385241 
-0.8662835 -0.45211563 -0.21247211 
-0.70506215 -0.6825738 -0.192303 
-0.34190252 -0.9379041 -0.058639247 
-0.6796967 -0.50977725 -0.52738947 
-0.09708126 -0.2983366 -0.94951075 
-0.35951418 -0.40205827 -0.84208006 
-0.11183189 -0.58321875 -0.8045804 
0.17635413 -0.43960136 -0.88070995 
-0.06140976 0.30340233 -0.95088166 
-0.07674191 -0.6020055 -0.7947957 
0.6504273 -0.4196863 -0.63309383 
0.94225013 -0.0707888 -0.3273435 
0.8525548 0.25984254 -0.45346704 
0.64487076 0.4313799 0.63091445 
0.59434474 -0.5533505 0.58357316 
0.19456011 -0.85226685 -0.48557982 
0.63926905 -0.74632114 0.18531024 
0.78126484 -0.2751582 0.56027967 
0.735466 -0.64983416 0.19184726 
0.87446475 -0.48407254 0.03139001 
0.8169905 -0.4397409 -0.37303436 
0.9136154 -0.40657893 0.0007704007 
0.12513381 -0.95969206 -0.25166008 
0.24205768 -0.9586603 0.14959407 
0.15156464 -0.98580503 -0.07222729 
0.2928105 -0.88356954 0.36546803 
0.31525183 -0.48807323 -0.81388015 
0.40126002 -0.88295597 -0.24367839 
-0.4020207 -0.6672693 -0.62700176 
0.7456467 -0.22811663 -0.6260781 
0.14064352 -0.5444362 -0.82692724 
-0.18154588 -0.5821215 -0.7925753 
0.4812492 -0.33004355 -0.812078 
0.49491996 0.10769495 -0.862239 
0.92954934 -0.28399625 0.23512591 
0.8577409 -0.42252338 0.29283878 
0.4643879 -0.5886334 -0.6617059 
0.7348362 -0.31167674 -0.6023898 
0.9391119 -0.11288455 0.3245399 
0.41235656 -0.29468575 0.86204547 
-0.6147778 -0.55020595 0.56508565 
-0.8055899 -0.57908607 -0.12523738 
-0.21455397 -0.7156707 -0.66466695 
-0.65042424 0.010363702 -0.7595004 
-0.7983753 -0.03083138 -0.6013705 
-0.95369357 -0.12444634 -0.27382806 
-0.9210265 -0.16716102 -0.35180593 
-0.6067853 -0.49529386 -0.62168777 
-0.12462618 -0.23555695 -0.9638368 
-0.22208528 0.33000222 -0.9174839 
0.25289693 0.6440754 -0.7219488 
0.061325416 0.402681 -0.9132838 
0.72334224 -0.47795042 -0.49833676 
0.4016557 -0.026307052 -0.91541284 
-0.010210465 -0.17099059 -0.98521984 
0.22795576 -0.1925927 -0.9544341 
0.9430541 -0.2404952 -0.22980663 
0.96514976 -0.24130727 -0.10127561 
0.8348757 -0.44066194 -0.32984814 
0.57966787 -0.4052528 0.70693386 
0.3257548 -0.30881694 0.89359725 
-0.3146634 -0.9329597 -0.17485192 
-0.19129339 -0.74825734 0.6352306 
-0.6532063 -0.57592773 0.4915576 
-0.96064943 -0.276475 0.026726052 
-0.9210449 -0.38453567 0.061714083 
-0.3315218 -0.94344497 0.0022500653 
-0.4004227 -0.4583984 -0.7934309 
-0.2958371 -0.87758744 -0.3772543 
-0.6208144 -0.21196373 -0.7547589 
-0.4605428 -0.21181041 -0.8619959 
-0.038395405 -0.79860425 -0.6006306 
-0.1716131 -0.7460413 -0.6434061 
-0.081298724 -0.99535507 -0.051564705 
0.2990326 -0.9265917 -0.22805135 
-0.5312035 -0.74000883 -0.41256493 
-0.4490187 -0.7503637 0.485115 
-0.5435387 -0.72475404 0.42343515 
-0.4528447 -0.5729074 0.6831609 
-0.6546609 -0.09618141 0.7497789 
-0.33811507 -0.273581 0.900462 
-0.35958615 -0.76467043 0.5347683 
-0.9321542 -0.36201426 0.005860289 
-0.9137161 -0.16011176 -0.37347978 
-0.9349235 -0.14041162 -0.32588762 
-0.9244874 -0.3342229 -0.18335249 
-0.50157 -0.3772044 -0.7785527 
-0.35289648 0.33891773 -0.8721232 
-0.59288937 -0.15648842 -0.7899327 
-0.36890602 -0.44497538 -0.8160303 
-0.46426085 -0.82817173 -0.3139959 
-0.33091947 -0.41022506 -0.8498282 
0.10289882 -0.55536467 -0.8252164 
-0.7786826 -0.62676084 0.028713735 
-0.88818616 -0.22174335 -0.4024367 
-0.7912191 -0.54901826 0.2693534 
-0.8488891 -0.2259932 -0.47782266 
-0.6659893 -0.28742978 -0.6883621 
-0.644982 0.2679941 -0.71566576 
-0.33370346 -0.104138166 -0.93690836 
-0.53798443 -0.31986183 -0.7799111 
-0.82518107 0.45980597 -0.3281079 
-0.7581395 0.6220522 -0.19564143 
0.11915154 0.1997687 -0.9725715 
-0.19337922 -0.39501286 -0.89809203 
0.3213892 -0.565493 -0.759557 
-0.44679478 -0.87226987 -0.19879541 
-0.47887874 -0.5565771 -0.6788941 
-0.01944825 -0.8146668 -0.579603 
0.4942883 -0.46551916 -0.73414654 
0.4719654 -0.33481267 -0.8155669 
0.5320858 -0.5220935 -0.66656077 
0.5204883 -0.80039024 -0.29743463 
-0.1562038 -0.7038889 -0.692922 
0.07617905 -0.86714554 -0.49219447 
0.13155307 -0.8961983 -0.42370102 
0.2570554 -0.76094824 -0.59571844 
-0.028784584 -0.15618436 -0.9873085 
-0.40352756 0.24354823 -0.881958 
-0.3847184 0.11838871 -0.9154103 
-0.076215036 0.033327773 -0.9965343 
0.7919112 0.27566242 -0.5448733 
0.6389198 0.4309124 -0.6372567 
0.2988659 0.5286542 0.79448354 
0.18673983 -0.018547282 0.98223436 
-0.6495834 0.5276215 0.54740936 
-0.82549447 -0.50327057 0.25549522 
-0.8859844 -0.41017756 0.21630119 
-0.76081556 -0.30108947 -0.5748956 
-0.73823035 -0.33327633 -0.58646643 
-0.45144692 -0.541948 -0.7088639 
-0.3967581 -0.8986437 0.18714282 
-0.8930332 0.045655042 0.4476689 
0.08004672 -0.9316482 0.35443503 
-0.4402693 -0.8521752 -0.28277293 
-0.023020454 -0.8804661 -0.4735499 
0.50213826 -0.57580906 -0.6452141 
0.8444368 -0.19513844 -0.49884635 
0.97454524 0.17284748 0.14277752 
0.98572665 0.10221303 0.13377397 
0.55226153 -0.34495345 0.758956 
0.4594788 -0.07754443 0.88479733 
0.19640593 -0.95630425 0.21658014 
-0.12725066 -0.79897004 0.58775353 
-0.472193 -0.775833 0.41846973 
-0.60347503 -0.7434209 0.2883459 
-0.0297755 -0.6022551 0.7977483 
-0.77754235 -0.62028116 0.103340335 
-0.27260253 -0.891658 -0.36143327 
-0.406871 -0.7323017 -0.54606795 
-0.45485678 -0.7253168 -0.5167407 
-0.02168138 -0.6151346 -0.7881239 
0.7129895 -0.6524699 -0.25676662 
0.6723373 -0.7093735 -0.21154633 
0.2057154 -0.89356023 -0.39903808 
-0.15414324 -0.88839716 -0.4324239 
-0.10019924 -0.7388907 -0.66633373 
-0.05642871 -0.9048303 -0.42201674 
-0.3333485 -0.9404487 -0.06659692 
-0.578645 -0.7735563 0.2584196 
-0.38981476 -0.52227616 0.758467 
-0.49185243 -0.64937955 0.5799892 
-0.77564895 -0.2969457 0.5569489 
-0.1081178 -0.23915307 0.9649437 
-0.28890076 -0.47108427 0.8334363 
-0.97699374 -0.19073942 -0.09540276 
-0.5398502 -0.7581832 -0.3656776 
-0.49742514 -0.22034112 -0.8390579 
0.4118862 -0.59373593 -0.6912507 
0.49355718 -0.12022626 -0.8613634 
0.13144708 -0.9910839 -0.021778757 
-0.34004518 -0.92857325 0.14873151 
0.23439649 -0.9721013 -0.008798374 
-0.29033312 -0.58157784 -0.759917 
0.24764353 -0.81712514 -0.52055675 
0.3836632 -0.8696912 -0.31054747 
0.87577975 -0.32654265 -0.35549948 
0.87488633 0.14572965 0.46188417 
0.5994256 0.50834095 0.6182868 
0.39109042 0.46770787 0.7926524 
-0.49666104 0.8230304 0.27558827 
0.11791803 0.98153067 -0.15064147 
0.012182495 0.9051899 -0.42483276 
0.13599607 0.9106749 0.3900979 
-0.0154754035 0.49460548 0.8689798 
-0.14908966 -0.55023426 0.8215927 
-0.8198745 -0.5311143 0.21383044 
-0.29090783 -0.6577733 0.6947711 
-0.6325287 -0.64444816 -0.42964405 
-0.20624456 -0.3177532 -0.9254708 
0.13123149 -0.81147194 -0.5694663 
-0.06317763 -0.5670731 -0.8212411 
0.092901506 -0.88634664 -0.45360667 
-0.45632023 -0.8764788 0.15348224 
-0.7394609 -0.4935161 0.45786414 
-0.89147955 -0.026103621 0.45230845 
-0.9763812 -0.114308275 0.18334003 
-0.7866612 -0.5035127 -0.3572665 
-0.118057735 -0.40673602 -0.9058854 
0.25558573 -0.65306383 -0.71286994 
0.301394 -0.05925272 -0.9516569 
-0.03827143 0.32739168 -0.9441134 
0.17757052 -0.16004942 -0.97100616 
0.7765186 0.41090557 -0.4776774 
0.27431023 0.7180455 0.6396599 
0.04157483 0.5016472 0.8640727 
-0.21126267 0.75608975 0.6194324 
-0.62960523 0.17407976 0.75716156 
-0.93106014 0.26866865 -0.24686903 
-0.36094555 0.65993583 -0.65894085 
-0.81287664 -0.24404131 -0.5288435 
-0.6893433 -0.30745012 -0.6559575 
-0.4915091 -0.5971757 -0.633877 
0.052411526 -0.43556434 -0.89863044 
0.10856208 -0.63083315 -0.7682863 
0.12609386 0.3434572 -0.93066514 
-0.052804686 0.4931584 -0.8683355 
0.3268847 0.28850207 -0.89995164 
0.96453065 0.10061923 -0.24404229 
0.94708097 -0.06155855 -0.31503692 
0.61861044 -0.12712377 0.77534556 
0.44182107 -0.2873378 0.8498419 
0.42816064 -0.05589056 0.9019728 
0.24631317 -0.7590037 0.6026967 
-0.66517496 0.016387552 0.7465077 
-0.9105131 -0.31159556 0.2717979 
-0.4493106 0.7479314 0.48858842 
-0.574147 0.7736247 0.26806763 
-0.72748464 -0.3025836 -0.6157997 
-0.41869435 -0.65299946 -0.63109976 
0.00530755 -0.66653097 -0.74545854 
-0.10599248 -0.2751097 -0.9555524 
0.19307344 0.37523827 -0.90659744 
0.5802287 -0.37424096 -0.72337985 
0.4834921 -0.43389705 -0.7602426 
0.50088155 -0.76455307 -0.40568006 
0.0809744 -0.96945536 -0.23151577 
0.00015080241 -0.99976766 -0.021555273 
0.16521753 -0.8278489 -0.5360684 
0.61553794 -0.031624403 -0.7874725 
-0.02432397 0.109143175 -0.99372846 
0.32813907 0.34524375 -0.879279 
0.62116903 -0.29425368 -0.72633594 
-0.028329566 -0.78340507 -0.6208656 
-0.035204783 -0.9935923 -0.10740074 
0.17568517 -0.9654795 0.1923122 
0.21082418 -0.7575018 -0.6178546 
-0.15142351 -0.97446495 -0.16579846 
-0.1661945 0.21066006 -0.9633285 
-0.3055027 0.043268766 -0.95120764 
0.08346986 -0.031369433 -0.9960165 
0.39653447 0.20900024 -0.8939124 
0.6262863 0.006009 -0.7795701 
0.81505835 0.5071244 -0.28018683 
0.493231 -0.62139773 0.60875946 
-0.939412 -0.2937056 -0.17675489 
-0.7815465 -0.6229333 -0.0337519 
-0.4762692 -0.8015334 -0.36154118 
0.18282174 -0.3472336 -0.91978544 
-0.05978605 -0.14310312 -0.9879004 
-0.20730068 -0.38367584 -0.8998997 
0.5075466 -0.3532408 -0.78588635 
0.80630624 -0.1899853 -0.56015694 
0.7626932 -0.22151442 -0.60764337 
0.41918835 0.013763297 -0.90779495 
0.16703896 -0.43490565 -0.88484746 
0.17421843 -0.12178444 -0.97714716 
0.49557218 -0.5645667 -0.66005516 
0.9814338 0.18056715 -0.06467759 
0.5771406 0.2932701 0.76216894 
0.6629594 0.15799884 0.73179317 
0.82164896 -0.5374128 -0.18994854 
0.9207263 -0.004675093 -0.39018118 
0.9403706 -0.34013075 -0.0037712574 
0.867078 -0.426346 0.2576914 
0.6946438 -0.6521515 0.3035926 
0.70350456 -0.60028976 0.3804386 
0.21376847 -0.97079587 -0.10889688 
-0.028031312 -0.97294253 -0.22934066 
-0.257983 -0.8151327 -0.5186555 
0.37543395 -0.91293144 -0.16001756 
0.19820565 -0.86447656 -0.46194693 
0.38644803 -0.5559443 -0.7359239 
0.4015462 -0.54133505 -0.7387267 
0.70954573 -0.11287648 -0.69556004 
-0.29629254 0.0038426858 -0.95508957 
0.5385906 -0.02922927 -0.84206057 
0.7981858 -4.4454737e-05 -0.6024115 
0.5686969 0.4573665 -0.68366647 
0.6895299 0.67986083 -0.2496756 
0.7666359 -0.11279922 -0.63209635 
0.87986475 -0.20990513 -0.4263542 
0.7728992 -0.63419 0.020735927 
0.49473795 -0.8511373 -0.17549859 
0.9079742 -0.33025834 0.25789976 
0.83041024 -0.032892384 0.55618083 
0.17129375 -0.75040656 0.6383953 
-0.43582705 -0.81554645 -0.38070843 
-0.8260822 -0.56035393 0.059930872 
-0.64473855 -0.5967627 -0.4776888 
-0.0033677535 -0.56380296 -0.8259025 
-0.7914444 -0.2946927 -0.5355109 
-0.40256804 -0.67811394 -0.61489874 
-0.44434553 0.29835415 -0.84471416 
0.12703192 -0.10849927 -0.9859467 
0.10481405 0.070924416 -0.99195963 
-0.047084905 -0.12967491 -0.99043804 
0.42276263 0.010279598 -0.9061821 
0.3035228 -0.38853166 -0.87000984 
0.24741784 -0.2866015 -0.92555064 
0.3896617 0.19675252 -0.89969575 
0.32374242 -0.1946722 -0.9259016 
0.69489574 0.07207936 -0.71548903 
0.8883244 -0.4364081 -0.14292553 
0.90757364 -0.0692398 -0.41414493 
0.90969664 -0.41469148 -0.02198024 
0.68668926 -0.19101776 0.7014059 
0.55131066 -0.6697847 0.49743843 
-0.34454334 -0.71470845 0.60867214 
0.28532255 -0.93201333 -0.22347784 
-0.019806458 -0.48884803 -0.8721441 
-0.6547471 -0.32007945 -0.6847302 
-0.45113376 -0.3792593 -0.8078618 
-0.14434697 -0.736326 -0.66105074 
-0.6202525 -0.598712 -0.50678486 
-0.82427144 -0.3817886 -0.41810757 
-0.61840796 -0.10828572 -0.778361 
-0.3828468 -0.1315101 -0.9144033 
-0.26123512 0.025665104 -0.964934 
0.60227007 0.28929353 -0.7440296 
0.09327965 -0.6585544 -0.7467296 
-0.57098347 -0.7817752 -0.25061 
-0.46797466 -0.88238156 0.04901463 
0.64177036 -0.7653736 -0.048312448 
0.6069526 -0.76941586 0.19901726 
-0.6147944 -0.78738886 0.04524048 
-0.8138805 0.35428527 0.46052197 
-0.9896451 -0.050756704 0.13426222 
-0.6454069 -0.61799026 -0.4489298 
-0.9424483 0.09085392 -0.32177147 
-0.9120356 -0.2566296 -0.31989422 
-0.8945631 -0.37977 -0.2356517 
-0.21341448 0.12877855 -0.96843714 
-0.13414648 0.21560207 -0.96722305 
-0.090768635 -0.614374 -0.78377664 
0.29447278 -0.29466143 -0.9090987 
-0.56051594 -0.8137096 -0.15394394 
-0.39526433 -0.8746255 -0.28070712 
-0.814867 -0.4954932 -0.30079627 
-0.20836021 -0.73592484 -0.6442056 
0.101514295 -0.2754057 -0.9559533 
-0.41949767 -0.5718551 -0.7049848 
-0.9142513 0.3363986 -0.22578903 
-0.5976255 -0.2746589 -0.7532638 
-0.5146141 0.514648 -0.6857913 
-0.49888662 0.054251783 -0.86496764 
0.086494766 -0.24514338 -0.96562076 
0.004828464 0.39066643 -0.9205197 
-0.24478452 0.044537477 -0.9685541 
-0.20127596 0.8401699 -0.50358963 
-0.421613 0.32438 -0.8467704 
-0.9232026 -0.04903324 -0.38117307 
-0.54209346 0.006458157 -0.8402934 
-0.55123955 -0.3833474 -0.74106663 
0.16692388 0.26357365 -0.95008713 
-0.29425964 0.3468305 -0.89057285 
-0.7462464 -0.083426595 -0.6604213 
0.14772893 -0.6230118 -0.7681357 
-0.2474939 -0.6046788 -0.75704056 
-0.33482262 -0.8468644 -0.4131763 
-0.023098182 -0.92274237 -0.38472444 
0.37643722 -0.9138926 -0.15197176 
0.24751595 -0.054536488 -0.96734774 
-0.2126254 -0.6765043 -0.70507616 
0.20057394 0.021541638 -0.97944176 
0.5213276 0.495048 -0.6950864 
-0.24977669 0.23175664 -0.9401598 
0.46615583 0.3707436 -0.80327326 
0.3866195 0.30452323 -0.870512 
0.54539037 -0.14019728 -0.82637405 
0.23598756 -0.61847216 -0.7495346 
-0.011415738 0.60290533 -0.79773104 
-0.89101434 -0.30795363 -0.33355373 
-0.56169724 -0.75851727 -0.33037528 
-0.1091569 -0.6741825 -0.73045385 
-0.3904326 -0.2709304 -0.87986314 
-0.40954825 -0.28019983 -0.8681927 
-0.38711068 -0.5195593 -0.761711 
-0.55867475 -0.70312226 -0.43988824 
-0.35884407 -0.7382945 -0.5710974 
-0.06846153 -0.50408894 -0.860934 
0.026858307 -0.42200962 -0.9061935 
0.89185375 0.009124578 -0.45223182 
0.9081542 0.27422014 -0.3163216 
0.9683145 0.1266874 0.21521486 
0.56422 -0.7844193 -0.25756952 
0.35681587 -0.9304664 -0.083155595 
0.28939 -0.95680207 0.0279869 
0.2615188 -0.9586851 -0.111941375 
0.53488517 -0.82599103 0.17786759 
0.11777769 -0.94291687 0.31150636 
0.6741236 -0.5654369 0.47522482 
0.4406799 -0.6975468 0.5650043 
-0.49438626 -0.7102263 0.5011595 
-0.4483405 -0.89368063 -0.018045112 
-0.8059416 -0.41844139 -0.4187661 
-0.6526172 -0.606032 -0.4547703 
-0.13956083 -0.9600155 -0.24267909 
0.12941983 -0.98683643 -0.09697583 
0.9145562 -0.03390262 -0.4030354 
0.09191916 -0.54224867 -0.83517504 
-0.12275956 -0.4130932 -0.9023769 
0.003994978 -0.7951552 -0.60639286 
0.28835434 -0.49945316 -0.8169446 
-0.05355418 -0.7681819 -0.63798785 
-0.2513261 -0.9640629 0.08612688 
-0.1015504 -0.8969541 0.4303033 
0.18434201 -0.85982555 0.47614932 
0.27816734 -0.67496145 0.68341064 
-0.33173853 -0.60952467 0.7200203 
-0.15961313 -0.6562306 0.7374857 
-0.31475836 -0.5892561 0.7441132 
-0.70423114 -0.7016348 -0.108477 
-0.5927583 -0.4384146 -0.67559624 
0.17844883 -0.8527934 -0.49081522 
0.3894294 -0.90157217 -0.18844725 
0.74275285 -0.65855926 0.12090464 
0.6803065 -0.7247484 0.10919242 
0.45524016 -0.87532604 0.16297464 
0.24093963 -0.8923124 -0.38174185 
0.7761801 0.13014668 -0.6169331 
0.52901024 -0.24483912 -0.8125282 
0.9336527 -0.29447085 -0.20391072 
0.8897679 -0.10850142 0.44332913 
0.7749903 0.5675293 0.27802968 
0.09346912 0.80964094 0.5794352 
-0.24808511 0.90822786 -0.33701038 
-0.19334151 0.8425797 0.5026715 
0.14889087 0.8459667 0.5120272 
-0.2611942 0.8515312 0.4546121 
-0.32606974 0.59738934 0.7326695 
-0.2975599 -0.47409073 0.82867134 
-0.21068451 -0.27346188 0.9385258 
-0.5579883 -0.61634004 0.5556745 
0.09484142 -0.7496186 -0.65503985 
-0.21134579 -0.7726648 -0.59860015 
-0.2695839 -0.91589284 -0.2974305 
-0.3914343 -0.7529078 -0.5290644 
0.07572461 -0.9526177 -0.29459354 
0.24292797 -0.96334326 0.113823965 
0.19556624 -0.9664046 -0.16678113 
-0.5054062 -0.8421806 0.18787357 
-0.9309245 0.0728658 -0.35786918 
-0.55060405 0.19237801 -0.81229675 
0.4013053 -0.010558876 -0.9158835 
0.19493112 0.1327172 -0.9717963 
0.057442665 0.72700834 -0.6842216 
-0.49583158 0.861716 -0.107688695 
0.11050281 0.5117964 -0.8519705 
0.7924341 0.43054014 -0.43206894 
0.7960322 0.6050071 -0.017295908 
0.43946993 -0.014259068 0.89814425 
-0.1193278 0.6353362 0.76296055 
-0.8928259 0.44391394 -0.07617347 
-0.68804425 0.19490176 -0.69900537 
-0.58710456 0.6608032 -0.4675976 
-0.37066066 -0.25457573 -0.89319754 
-0.4182679 0.21415338 -0.8827176 
-0.7098153 0.2873207 -0.64312446 
-0.5130455 0.011371026 -0.8582862 
-0.5347093 -0.077439524 -0.84148043 
0.50494826 0.41906342 -0.7545947 
0.5246693 -0.06887889 -0.84851503 
0.59026724 0.15668142 -0.7918558 
0.50696254 0.1366516 -0.8510672 
0.98550475 -0.104241885 0.13384365 
-0.08655301 0.30274975 0.9491318 
0.12650381 -0.7310921 0.6704485 
0.37302923 -0.6966051 0.6128544 
-0.44067684 -0.20403138 0.8741712 
-0.81979436 0.46035975 0.34059688 
-0.6581885 0.47331098 0.58546114 
-0.9150998 0.22748786 0.3329289 
-0.5108797 0.08779599 0.85515726 
-0.99731976 -0.02557768 0.06855053 
-0.7857253 -0.56452 -0.2528893 
-0.5434257 -0.6207004 -0.5651721 
0.3832163 -0.1868535 -0.90456134 
0.20891869 -0.39297935 -0.89549994 
0.5482926 -0.093869194 -0.83100176 
0.07478619 0.54002804 -0.83831793 
-0.082719855 0.10833951 -0.99066645 
-0.36971775 -0.69008416 -0.62216777 
-0.63987255 -0.7347588 -0.22515032 
-0.24505693 -0.19591312 -0.9495079 
0.17450354 -0.22889166 -0.9576832 
0.46724054 0.41573521 -0.78028876 
0.15587923 0.4234291 -0.8924178 
0.22140124 0.22061394 -0.9499005 
0.4935573 -0.20452523 -0.8453228 
0.0777299 -0.97758573 -0.1956638 
0.25192302 -0.44573075 -0.8589872 
-0.1957592 -0.67895424 -0.70760125 
-0.30869043 -0.10387384 -0.94547373 
-0.108434975 0.39911383 -0.9104669 
-0.3130137 0.117591254 -0.9424408 
0.53363854 -0.44386718 -0.7198693 
0.61199975 0.33984932 -0.714114 
0.1553177 0.025712034 -0.98752993 
0.7444254 0.08461652 -0.66232246 
0.78250986 -0.54089546 0.30839992 
-0.41449818 -0.9092636 -0.037830286 
-0.074356325 -0.88295114 0.46353915 
-0.18674807 -0.98137087 0.045127623 
-0.66086507 -0.37819126 -0.6482505 
-0.542913 -0.58943915 -0.5981696 
-0.52693313 -0.51119524 -0.67898524 
0.057187412 -0.08242744 -0.994955 
0.31958365 -0.6824959 -0.6573171 
0.68638384 -0.5444975 -0.4820787 
0.51465327 -0.26531968 -0.8153143 
0.095363125 0.65974885 -0.74541086 
0.51392263 0.17240961 -0.8403323 
0.98610693 -0.16340874 0.029846324 
0.88175833 -0.34864035 0.31772995 
0.9131774 0.36103597 0.18910347 
0.744696 -0.46753064 0.47628042 
0.7393382 -0.64968777 -0.17687549 
0.6779862 0.28833675 -0.6761632 
0.7884781 -0.2736313 0.55084336 
0.33633885 -0.51311624 0.7896758 
0.53482115 -0.8065849 0.2517684 
0.8397644 -0.4950097 0.22307219 
0.5364075 -0.8353731 -0.12007915 
-0.11055639 -0.71347 -0.6919089 
-0.29176304 -0.3061116 -0.90618443 
0.19580133 -0.60370076 -0.7727919 
0.4263839 -0.20091927 -0.8819457 
0.15763186 0.49784425 -0.85282075 
-0.09563684 -0.17161801 -0.98051053 
0.63994557 -0.035801195 -0.76758575 
-0.44850227 0.6107657 -0.652542 
0.6719814 0.67927057 -0.29501298 
0.23488471 0.724881 -0.6475931 
0.5703971 0.6948235 -0.4380268 
0.45451432 0.8883755 -0.06485178 
0.6274172 0.46129012 -0.6273429 
0.71705794 0.11872161 -0.6868283 
0.85886395 -0.42842343 -0.28072456 
0.7623291 -0.5620839 -0.3208053 
0.667131 0.44029865 0.60089386 
0.39722124 0.5269682 0.7513455 
-0.45779073 -0.56103086 0.6896898 
-0.84897727 -0.5277373 0.027038902 
-0.9708544 -0.22752036 0.07534072 
-0.8797863 -0.17731972 -0.44105992 
-0.7386127 -0.096120164 -0.6672423 
-0.80279946 -0.5933123 -0.059105814 
-0.83257467 -0.47726184 -0.28114185 
-0.83601046 -0.18303752 -0.51728517 
-0.17806427 -0.6331116 -0.7533014 
0.37020692 -0.58130205 -0.7245929 
0.12242339 0.21136267 -0.96971047 
0.123795204 0.32795376 -0.9365475 
0.63654524 -0.1185333 -0.7620762 
0.60654765 -0.41594008 -0.6775647 
0.52340674 -0.1862899 -0.8314695 
0.14473145 0.04696258 -0.9883559 
0.9888159 0.02028362 -0.14775564 
0.9361858 -0.119732276 -0.33048514 
0.7017423 -0.5371532 -0.46800026 
0.549771 -0.75497407 0.35744387 
0.8676879 -0.26269165 0.42203173 
0.2315472 -0.96962345 -0.078843355 
-0.97824293 0.1834929 0.0968051 
-0.5490261 -0.5311161 -0.6453574 
-0.7951145 -0.45625544 -0.39952967 
-0.8492496 -0.3043567 -0.43144202 
-0.97975826 0.16885406 -0.107527494 
-0.81829184 -0.47970447 -0.31667343 
-0.80517656 -0.58808863 0.076436125 
-0.974723 0.013340801 -0.22301878 
-0.7208693 0.034140382 -0.6922296 
-0.16800682 -0.021783674 -0.9855451 
0.5376148 0.3500196 -0.7671092 
0.4410666 0.11457549 -0.89013076 
0.48047343 -0.41985115 -0.76998067 
-0.2544207 -0.9280331 -0.2720746 
0.35061073 -0.87962186 -0.32146162 