# OOMMF: rectangular mesh v1.0
# Segment count: 1
# Begin: Segment
# Begin: Header
# Desc: Time (s) :  5.230000000000008e-07
# Title: m
# meshtype: rectangular
# meshunit: m
# xbase: 2e-09
# ybase: 2e-09
# zbase: 5e-10
# xstepsize: 4e-09
# ystepsize: 4e-09
# zstepsize: 1e-09
# xmin: 0
# ymin: 0
# zmin: 0
# xmax: 1.024e-06
# ymax: 1.024e-06
# zmax: 1e-09
# xnodes: 256
# ynodes: 256
# znodes: 1
# ValueRangeMinMag: 1e-08
# ValueRangeMaxMag: 1
# valueunit: 
# valuemultiplier: 1
# End: Header
# Begin: Data Text
-0.48967302 -0.79903346 0.34894985 
-0.9627554 -0.21332923 -0.16611074 
-0.53529435 0.74656284 -0.3951 
-0.36355165 0.6680241 -0.64928734 
0.0499577 0.44980136 -0.89173037 
-0.24277844 -0.4515753 -0.8585677 
-0.074165106 -0.9796082 -0.18672846 
0.5589528 -0.59580564 -0.5767039 
0.052528616 -0.6446403 -0.7626793 
0.4867797 -0.24477215 -0.8385298 
0.5926564 -0.22251232 -0.7741103 
0.29397446 -0.9401783 -0.17217389 
0.15926783 -0.92391527 -0.3478714 
0.611082 -0.7401977 -0.28051043 
0.23677522 -0.83870554 0.49041873 
0.5708638 -0.786246 0.23649889 
0.879406 -0.4135383 0.2358628 
0.51026505 -0.6081225 0.60812557 
0.015868507 -0.80676264 0.59066266 
0.37927803 -0.8573434 0.34800953 
-0.38852286 -0.77303 0.5014724 
0.085801646 -0.83654904 -0.541132 
-0.013653499 -0.97114646 -0.23809294 
-0.14780274 -0.5773847 -0.8029828 
-0.3247784 -0.8093653 0.48933324 
0.101725884 -0.87897 -0.46590105 
0.83181584 -0.5398133 -0.12916693 
0.18449745 -0.98172766 0.04659945 
-0.45684928 -0.8649546 0.20770736 
-0.09603742 -0.84186363 0.5310768 
-0.74855375 -0.59859896 0.2852133 
-0.7687161 0.5187091 0.3741877 
-0.74053776 -0.35365495 -0.57142985 
-0.5809104 -0.028279034 -0.81347626 
-0.31136778 0.6160858 -0.723525 
-0.031778276 0.572461 -0.81931585 
0.31099874 -0.1207983 -0.94270235 
0.3090151 -0.8328909 -0.45913237 
0.1919093 -0.9754724 0.107817695 
0.45314622 -0.8205255 -0.34841996 
-0.28948203 -0.34746444 -0.8918905 
-0.5791404 -0.10930671 -0.8078667 
-0.38227022 0.029366586 -0.9235839 
-0.19974346 -0.09995175 -0.97473705 
-0.081243396 -0.27606934 -0.957698 
-0.3014142 -0.9519261 -0.05464772 
-0.37188146 -0.5910441 -0.71580106 
-0.0636755 -0.6064942 -0.792534 
0.30617058 -0.9017842 0.3050327 
-0.10271489 -0.9843029 0.14351894 
-0.6183063 -0.16065624 -0.76934195 
-0.69228137 -0.5999057 -0.40107328 
-0.8303336 -0.41343898 -0.37365025 
-0.34634548 -0.06668201 -0.9357342 
-0.12117143 -0.17371237 -0.9773134 
-0.20616548 -0.18788397 -0.9603101 
0.2901366 -0.918905 -0.2672723 
0.64403236 -0.7649895 0.0036690102 
-0.9144462 -0.39468944 0.08949065 
-0.21322784 -0.93352216 0.2882192 
-0.19100751 -0.98157644 -0.0048816195 
-0.28648007 -0.49979922 -0.8173922 
-0.6459337 -0.51874614 -0.56006444 
0.2890108 0.115410164 -0.9503437 
0.5927954 0.011693743 -0.8052682 
-0.1595261 -0.5965759 -0.7865422 
0.34039512 -0.58733606 -0.7342803 
0.6500909 -0.6462063 -0.399749 
0.23162998 -0.82860136 -0.5096739 
0.65277153 -0.7575474 0.0033496893 
0.7034742 -0.030641522 0.71006 
0.08776759 -0.2648162 0.96029645 
0.20950341 -0.46809545 -0.8584842 
0.6448438 -0.2934871 0.7057208 
-0.10271212 -0.3618488 0.92656124 
-0.10790681 -0.6992146 0.7067214 
-0.62006164 -0.78148353 0.06933294 
-0.8125533 -0.4377389 0.38489208 
0.23221901 -0.24927187 -0.94017977 
-0.04075444 -0.80524033 -0.59154636 
0.3193795 -0.9013731 0.29244393 
0.5000807 -0.8412486 0.20547527 
0.07871074 -0.5615336 -0.82370186 
0.4403964 -0.8977819 0.006220832 
0.18863015 -0.7466638 -0.6378964 
0.87885535 -0.47500148 0.044573728 
0.3272618 -0.77531487 0.54017276 
0.330102 -0.6481504 0.68624616 
-0.22145218 -0.654558 0.7228505 
-0.65091866 0.7292549 -0.21093184 
-0.5917267 0.68721217 -0.421425 
-0.5593664 0.5839828 -0.5882801 
-0.2273632 0.010439102 -0.9737541 
-0.52911365 0.025377657 -0.8481715 
0.3387657 0.5869976 -0.7353038 
0.36808106 -0.47274637 -0.8006417 
0.43901202 -0.25277933 -0.8621898 
0.5350799 -0.0010395924 0.84480083 
0.90848327 -0.37604004 0.18235153 
0.7133453 -0.27254018 0.64564735 
0.4893465 -0.26165342 0.83191204 
0.6199105 -0.20513487 0.75738424 
0.45244962 -0.06543997 0.8893857 
-0.14143834 -0.48250765 0.86439675 
-0.9289873 -0.23648737 -0.28470385 
-0.28874764 -0.8225961 -0.48985776 
0.0726654 -0.94051605 -0.33188748 
0.13971229 -0.6078755 -0.7816444 
-0.4180953 -0.23781432 -0.87672156 
0.35600424 -0.34063023 -0.8701909 
0.37103993 0.51089096 -0.7754482 
0.71456194 -0.51201725 -0.4766966 
0.23623621 -0.63276607 -0.7374278 
-0.23582113 0.029404324 -0.97135156 
0.63361806 -0.49924162 -0.5910043 
0.85203445 -0.49965796 0.15613852 
-0.6105851 -0.7496957 -0.2552298 
-0.3418592 -0.12524144 -0.93136835 
-0.43652955 -0.20613006 -0.87575823 
-0.027408995 -0.6612368 -0.7496764 
-0.24876131 -0.7845826 -0.567933 
0.24461634 -0.96777296 0.059819378 
-0.6594656 -0.7016358 -0.2698378 
-0.26432544 -0.9580885 -0.11044716 
-0.86788285 -0.4422929 -0.22617814 
-0.3930229 -0.73721343 -0.54959023 
-0.56532484 -0.4325224 -0.7023761 
-0.66220737 -0.7239796 -0.19322264 
-0.7910136 -0.57308054 -0.21418719 
-0.7600416 -0.64957535 -0.019712927 
-0.6974676 -0.43471223 -0.5697054 
0.080554694 -0.016477013 -0.99661404 
-0.3984517 -0.6900143 -0.6042489 
0.029754166 -0.9325523 -0.35980695 
0.06034607 -0.98655516 -0.15187968 
-0.25722963 -0.9659018 0.029440222 
-0.2589183 -0.8045239 -0.53451174 
-0.542255 -0.7496382 -0.37947622 
0.34095886 -0.7403256 -0.57936615 
0.03066978 0.19247687 -0.98082215 
0.5589737 -0.19893351 -0.80496824 
0.7586796 -0.54419374 -0.35813192 
0.6892868 -0.6561928 -0.30707458 
0.88994205 -0.15149617 -0.43017682 
0.7800685 -0.5165522 -0.35308215 
0.41171628 -0.91129804 -0.0050643403 
0.5051416 -0.74808997 0.4303411 
0.4869601 0.52006716 0.7017123 
0.46956643 -0.1430341 0.87123406 
-0.8154638 -0.5752741 -0.06386312 
0.2882365 -0.95363575 -0.086595125 
-0.10750058 -0.92649966 0.36061338 
-0.36880684 -0.6046698 -0.7059433 
-0.39286444 -0.5532235 -0.7345757 
-0.21331163 -0.12566692 -0.96886843 
-0.18814735 -0.5121794 -0.8380173 
0.4381198 -0.7598239 -0.48033187 
-0.163243 -0.98268485 0.0876482 
-0.6431405 -0.7515135 -0.14696184 
-0.17891455 -0.9804336 -0.0820951 
0.63017803 -0.37960544 -0.6773296 
0.011620419 0.02417352 -0.9996403 
0.42477918 0.008417097 -0.9052579 
0.38161045 -0.56547046 -0.7311748 
0.6399289 -0.37063113 -0.67314464 
0.26021996 -0.069427155 -0.9630501 
0.5682026 -0.27359325 -0.7760752 
0.5245866 -0.58997387 -0.6137914 
0.64495313 -0.57347995 0.50512993 
0.646204 -0.47666985 0.59599185 
-0.25506142 -0.6681389 0.6989522 
-0.30366227 -0.8191502 0.4866029 
0.37021446 0.03797287 0.9281699 
-0.15276618 0.60320985 0.78281564 
-0.21561296 -0.562174 0.7984181 
-0.33247256 -0.47543028 0.81451094 
-0.05683263 -0.97919476 -0.19480152 
0.904748 -0.3691546 0.21249928 
0.36766055 -0.4692288 0.802901 
0.1733036 -0.010885517 0.98480827 
0.01349053 -0.28058738 0.95973366 
-0.5170618 -0.7891956 0.33138725 
-0.6860175 -0.67008513 0.28348884 
-0.5813193 -0.76978225 -0.26363453 
-0.6271961 -0.6733567 -0.39142793 
-0.5234176 -0.82389057 -0.21734409 
-0.54647917 0.15013932 -0.8239045 
-0.03832054 0.28777108 -0.9569323 
-0.3559676 0.254088 -0.8992922 
-0.36499366 -0.39600775 -0.84258986 
-0.19489275 -0.33179867 -0.92299867 
0.2282843 -0.8092656 -0.541272 
0.14710002 -0.51970357 0.8415877 
0.008501657 -0.98936915 0.1451775 
0.23613384 -0.884581 -0.40219074 
0.1097252 -0.9898451 -0.090372354 
-0.6033421 -0.78513515 -0.1397895 
-0.51507586 -0.8425173 -0.15767509 
-0.29403266 -0.14057295 -0.9454015 
-0.2796804 -0.41684029 -0.86488336 
-0.023536276 -0.7347308 -0.67795044 
0.13176204 -0.042032696 -0.9903899 
0.2915856 0.58207923 -0.7590531 
0.97381526 0.13452512 -0.18326694 
0.8190691 -0.54993814 0.16338298 
0.22683403 -0.5719377 -0.78831065 
0.29922047 -0.74723357 -0.5933878 
0.37249398 -0.80447084 -0.4626822 
0.8287351 -0.47531232 0.29542562 
-0.04161815 -0.9743673 0.22107996 
-0.65981305 -0.72844464 0.18443213 
-0.54023314 -0.8123791 0.21951856 
-0.097919196 -0.5949845 0.79775023 
-0.8033681 -0.23125026 0.54874676 
-0.8143403 -0.02751055 0.57973534 
-0.30029708 -0.565935 0.7678147 
-0.8915343 -0.2533538 0.3754711 
-0.85744804 -0.096215285 0.5054953 
-0.67834324 -0.1794933 -0.7124834 
-0.25151137 -0.524792 -0.8132253 
0.2591398 -0.7708212 -0.58196324 
0.15281244 -0.7061506 -0.6913753 
-0.1084662 -0.83159536 -0.5446874 
0.5760338 -0.805372 -0.13986143 
0.34909022 -0.8516018 -0.39103785 
-0.49360624 -0.6535125 -0.5738244 
-0.043205664 0.17865543 -0.98296267 
0.47477937 -0.5185919 -0.71108866 
0.91853225 -0.13979529 -0.369805 
0.8048691 -0.55203587 0.21781252 
0.7647122 0.23825096 0.59870845 
0.11742158 0.2094147 0.9707511 
-0.12512162 -0.24678783 0.9609581 
-0.9741453 0.19333321 -0.11689027 
-0.42464882 -0.42498317 -0.79941404 
0.052819185 -0.84004396 -0.539941 
0.106017545 -0.8566165 -0.50494415 
-0.20477839 -0.85934615 -0.46860448 
-0.37171763 -0.88455427 -0.28176203 
-0.74060184 -0.65681034 0.14180666 
-0.42692742 -0.7859058 0.44730875 
0.60209733 -0.7979164 0.028431565 
0.23987165 -0.77439713 0.5854662 
0.086177975 -0.862982 0.49783087 
-0.722673 -0.668337 0.17626515 
-0.29379436 -0.9487619 -0.11634385 
0.11633272 -0.838241 -0.5327466 
0.9736193 -0.21529225 -0.07559607 
0.389577 -0.92045313 -0.03155724 
0.9488059 -0.22600436 -0.22065659 
0.4808263 -0.22279778 0.8480373 
0.57206887 -0.008551247 0.82016104 
-0.3306075 -0.6485291 0.68564475 
-0.32657957 -0.74124897 0.5864264 
-0.12893528 -0.28082383 -0.9510593 
0.5023758 0.34941176 -0.7909045 
-0.4668372 -0.6723023 -0.57451946 
-0.9233149 -0.3506386 -0.15665919 
-0.4107515 -0.80251026 -0.43273634 
-0.22421238 -0.16741468 -0.96005267 
0.13369983 -0.7295151 -0.6707699 
0.18334606 -0.071234815 -0.9804641 
-0.071401946 -0.6534184 -0.7536221 
0.41565344 -0.33035547 -0.8474064 
0.46510953 -0.036838695 -0.8844864 
0.11113965 -0.2805467 -0.9533843 
0.13701601 -0.47888055 -0.8671217 
0.1855845 -0.5925017 -0.78390074 
0.15406664 -0.6221384 -0.7675984 
0.2960858 -0.92207855 -0.24920785 
-0.001310493 -0.70824724 -0.7059633 
0.2221645 -0.87322724 -0.4337248 
0.67493665 -0.73693335 -0.037280705 
0.46100748 -0.8857942 0.053298157 
-0.24030067 -0.9217706 0.30429357 
0.0055683004 -0.9985591 0.053373273 
-0.31903931 -0.941162 0.111481115 
-0.13389616 -0.8874092 -0.44110844 
0.15347554 -0.8768073 -0.4556912 
-0.642256 -0.5021595 -0.57908815 
-0.70655984 -0.6923575 0.14633635 
-0.4937552 -0.31768894 -0.8094935 
-0.019637952 -0.10458109 -0.99432254 
0.05028036 -0.6038538 -0.7955078 
-0.28375307 -0.9264913 0.24718016 
-0.40250528 -0.87901706 0.25557533 
-0.45294923 -0.88889754 0.06854497 
-0.99520105 -0.086772524 0.045227077 
-0.7487097 0.62435216 -0.22275169 
-0.75496393 0.15114501 -0.6381102 
-0.5626028 0.60140985 -0.5672603 
-0.864275 0.044691272 -0.5010305 
-0.19160934 0.48976335 -0.8505397 
0.649232 -0.5863192 -0.4844871 
0.17860489 -0.7963485 -0.5778662 
0.08215562 -0.9475924 -0.30873796 
0.49667153 -0.68786657 -0.52929866 
-0.5574827 -0.50718063 -0.6572525 
0.14156179 -0.35896513 -0.9225531 
-0.02719948 -0.83205354 -0.55402815 
0.22524355 -0.39483052 -0.89071566 
-0.34834698 -0.67074186 -0.6547975 
0.1018881 -0.6320659 -0.76818717 
-0.5440937 -0.39307654 -0.7412509 
-0.5305699 -0.84410954 0.077296555 
-0.7720977 -0.58243275 -0.2542388 
-0.56285864 -0.2680098 -0.7818957 
-0.9829197 0.010423733 -0.18373998 
-0.38488564 -0.47263613 -0.7927663 
-0.34806952 -0.35903555 -0.8659914 
-0.10774608 -0.6333694 -0.766312 
-0.21075085 -0.37474203 -0.9028581 
-0.0054352065 -0.47721124 -0.87877184 
-0.04377553 -0.77700096 -0.62797546 
-0.4577385 -0.70656353 -0.5396698 
-0.14631628 -0.9703958 -0.19215545 
0.21602206 -0.841322 -0.49549147 
-0.1546719 -0.80928344 -0.5666895 
-0.050864592 -0.8537722 -0.5181563 
-0.017286062 -0.8808592 -0.4730628 
0.14217782 -0.3181383 -0.93732256 
0.5141032 -0.34000105 -0.78746265 
0.4663417 -0.36037603 -0.8078704 
0.9417892 -0.33264324 -0.048802983 
0.86072284 -0.4753469 -0.18221281 
0.335428 -0.9403432 0.056946337 
0.16393344 -0.6502541 0.741819 
0.67789143 -0.46214136 -0.57174176 
0.6526344 0.17797484 -0.7364736 
0.093203515 -0.9647337 0.24617492 
-0.4356792 -0.87002575 0.2307359 
-0.3764816 -0.63792014 0.6718033 
-0.7904876 -0.6100796 -0.054150637 
-0.72738254 -0.6383242 0.25190675 
-0.70464355 -0.50956905 -0.4937782 
-0.15745875 -0.9814332 -0.1095241 
-0.3266708 -0.7764036 0.5389653 
0.08152474 -0.9539608 0.28863943 
-0.2253713 -0.9466279 -0.23044187 
0.26926157 -0.88373774 -0.382761 
0.249709 -0.6727875 -0.6964212 
0.2161847 -0.76642907 -0.604856 
-0.11978378 -0.92314404 0.3653177 
-0.302032 -0.92346764 0.23660994 
-0.018224427 -0.996084 -0.0865144 
-0.8026473 -0.5877886 0.10130184 
-0.7362044 0.42435583 -0.52718616 
-0.8832198 -0.02214944 -0.46843603 
0.078212805 0.6435627 -0.76138693 
-0.17033486 0.4748973 -0.86339945 
-0.30155155 0.10390199 -0.9477716 
0.4562542 -0.6056767 -0.651911 
0.65751123 -0.35710728 -0.6634405 
0.8276533 -0.32899362 0.4547012 
0.6822978 -0.7262433 0.083907254 
0.3359248 -0.90064764 -0.2756602 
0.7574688 -0.5221501 0.39191872 
0.29161012 -0.63053226 0.71930015 
0.15131623 -0.7690143 0.62106395 
-0.31414565 0.06051251 0.9474444 
-0.91480875 -0.3158456 -0.25172696 
-0.3041367 -0.28729975 -0.90827304 
-0.003752302 0.3893319 -0.9210899 
-0.12197013 0.0002575271 -0.9925338 
-0.2913818 0.2494913 -0.9234992 
-0.06094548 -0.22568585 -0.97229195 
-0.056929786 -0.104079716 -0.9929383 
0.2672548 -0.0026187205 -0.96362233 
0.2737906 -0.23562467 -0.93248045 
-0.047988933 0.18435927 -0.9816867 
-0.048354242 -0.92319894 -0.38126868 
-0.3551555 -0.9244291 0.13890807 
-0.23311198 -0.9356306 0.26505494 
-0.41661438 -0.1026439 -0.90327 
0.03611035 0.37669966 -0.9256314 
-0.1276709 0.1477861 -0.9807444 
0.69438237 -0.4918271 -0.52529925 
-0.018314218 -0.8886262 0.4582663 
-0.107496314 -0.94351244 -0.31341478 
-0.5582618 -0.7193234 -0.41342193 
-0.61952406 -0.69734824 -0.3604101 
-0.41861263 -0.33779052 -0.84300715 
-0.40846014 -0.31833076 -0.85546815 
-0.3511907 -0.9362724 -0.0076909247 
-0.653276 -0.68996334 -0.3117387 
-0.018138537 -0.9642707 -0.26429728 
-0.052667327 -0.69560385 -0.71649253 
-0.2587154 -0.89218754 -0.37022668 
-0.2461735 -0.8377425 -0.48742798 
0.030435301 -0.86360675 -0.5032465 
0.04656315 -0.9987476 -0.018311813 
-0.54562485 -0.47972685 -0.68713593 
-0.44639352 -0.88864547 -0.10508137 
-0.009431125 -0.1439205 -0.9895444 
-0.4441681 -0.3934973 -0.8049066 
0.36828804 0.045784652 -0.92858374 
0.38835803 -0.16329151 -0.9069256 
0.67493373 -0.46753177 -0.5708577 
0.8301918 -0.20103626 -0.5199674 
0.80056113 -0.5685795 -0.18925981 
0.54283625 -0.5982207 -0.58945817 
-0.05598837 -0.3218445 -0.94513565 
0.5499845 -0.80514777 0.22193263 
0.3640789 -0.7622201 0.5352263 
0.63931626 -0.76511264 -0.07666456 
-0.2681695 -0.87732315 0.39798135 
-0.0711695 -0.96422154 -0.2553661 
-0.013357385 -0.9998813 0.0076878895 
-0.3803453 -0.9161914 -0.1262175 
-0.716414 -0.5692814 -0.40332338 
-0.18405192 0.16274515 -0.96934974 
-0.11266639 -0.7072648 -0.6979132 
0.36061463 -0.88977855 -0.27973446 
0.66291434 -0.7362629 0.13587335 
0.08474816 -0.97581756 -0.20148939 
0.2746313 -0.7250292 -0.6315935 
0.3047624 -0.23225424 -0.9236764 
0.07573506 -0.41776505 -0.9053931 
0.50501925 -0.82969975 -0.23781037 
-0.10345127 -0.5371303 -0.8371314 
0.08576513 -0.08723575 -0.992489 
-0.103967324 -0.59876466 -0.7941484 
-0.27059874 -0.399148 -0.8760465 
0.42975035 -0.34104165 -0.8360653 
-0.37663347 -0.9152134 -0.14328852 
0.2250735 -0.95496035 0.19337198 
0.40612763 -0.8094875 0.42401713 
0.3360025 -0.94062954 -0.04815209 
-0.2680404 -0.58548605 0.7650885 
-0.26347214 0.23740865 0.9349971 
-0.33319527 -0.8485301 0.4110689 
-0.032603014 -0.9949395 0.09503955 
0.34338093 -0.90771013 0.24114679 
0.7841974 -0.5607853 -0.26562068 
0.22177763 -0.86846495 0.44337726 
-0.15220125 -0.9739438 0.16813175 
-0.22995533 -0.75315577 0.6163416 
-0.7614222 -0.60014933 -0.24506554 
-0.3548553 -0.9347957 0.015326012 
-0.2509213 -0.39831814 -0.8822592 
-0.6330326 0.35848334 -0.68611914 
-0.6158043 -0.44034526 -0.6533614 
-0.482009 -0.47639808 -0.7353315 
-0.3580283 -0.28473744 -0.8892359 
0.14863549 -0.00082332414 -0.9888917 
-0.3735575 0.58122534 -0.7229329 
-0.12522191 0.399878 -0.9079742 
0.5881085 -0.6712395 -0.451183 
0.2206839 -0.97505116 -0.023955751 
-0.61041445 -0.58565754 -0.5332912 
-0.32115933 -0.83298075 -0.45055503 
-0.55603856 -0.6963934 -0.45371515 
-0.53918785 -0.65357614 -0.5311448 
-0.6783016 -0.5583708 -0.47762856 
-0.013532532 -0.27819568 -0.96042913 
-0.15139118 -0.4055965 -0.901428 
-0.3462697 -0.03155839 -0.93760407 
-0.48352882 0.054208834 -0.8736482 
0.7965739 0.34954914 -0.4932398 
0.85189605 -0.44880402 -0.26990405 
0.6124467 -0.23779865 -0.75389713 
-0.024267986 -0.82403034 -0.5660257 
0.6903242 -0.5800313 -0.43245384 
0.83835536 -0.5447242 0.020878313 
0.84870034 0.39216 0.3548496 
0.06292653 -0.46569765 0.8827038 
-0.9204227 -0.39086092 -0.0070569855 
-0.8446315 -0.47417715 0.24850304 
-0.6757388 -0.6216591 0.39612764 
-0.7857469 -0.5637458 0.25454405 
-0.34732088 -0.9300587 0.119829535 
-0.7412642 -0.6639474 -0.098494925 
-0.90448 -0.4260439 0.020066027 
-0.5392954 -0.8147105 0.21308988 
-0.67338806 -0.14673823 -0.7245802 
-0.25349063 -0.7131366 -0.6535891 
0.034659736 -0.7608846 -0.64796096 
-0.045512464 -0.49959671 -0.86506164 
-0.0075986777 -0.5612966 -0.82758 
-0.1481352 -0.6417507 -0.7524706 
-0.58433414 -0.6293059 -0.5123746 
0.14573991 -0.44506222 -0.88356066 
0.50342053 0.03239451 -0.863434 
0.71339285 -0.36853793 -0.59602886 
0.25698417 0.1236266 -0.95847577 
0.7203407 -0.46705627 -0.51280373 
0.90661484 -0.34730944 -0.2396365 
0.59448135 0.16090652 0.7878458 
-0.24835429 -0.20275043 0.947213 
-0.6535726 0.5494054 0.52057326 
-0.8043246 0.17012444 -0.56931496 
-0.21586533 0.045587026 -0.9753584 
0.12922738 0.49608907 -0.85860115 
-0.11603964 -0.5624228 -0.81866693 
0.19038694 -0.55174 -0.811995 
-0.3494713 -0.92915666 -0.12057278 
-0.7685095 -0.563641 -0.3028236 
0.14889978 -0.97953635 -0.13541605 
0.064601414 -0.9905485 0.12099796 
-0.58811295 -0.79813445 -0.130784 
-0.65072733 -0.7586714 0.03117243 
-0.24568245 -0.9619952 -0.1191866 
-0.19705294 -0.81294763 -0.5479838 
-0.02201842 -0.93989456 0.34075442 
0.11654118 -0.5166504 -0.848228 
0.5922849 -0.56581557 -0.5736301 
0.40278316 -0.9123501 0.07336907 
0.5567457 -0.70932794 0.43230572 
0.3463813 -0.87863266 0.32867104 
0.28630143 -0.93127567 0.2252938 
0.0712877 -0.6081415 -0.79062134 
0.58584183 -0.08257351 -0.80620784 
-0.81343657 -0.5795732 0.049152467 
-0.25387254 -0.8123101 -0.52507234 
0.06799715 -0.7325929 -0.6772623 
-0.6918276 0.039959736 -0.7209562 
-0.54299355 -0.28411093 -0.79021454 
0.7197225 -0.13039082 -0.68190753 
-0.364589 -0.6004803 -0.71168697 
-0.2631777 -0.21790685 -0.93981606 
0.88431484 0.29195473 -0.3643486 
0.20464079 -0.6824716 -0.70168 
-0.044940066 -0.76178044 -0.6462748 
0.6816317 -0.6051655 -0.41128212 
0.6143097 -0.13978359 -0.7765849 
0.4313337 -0.74303937 -0.5117068 
0.49753445 -0.82417935 0.27053273 
0.34024772 -0.8754907 -0.34314367 
0.17765296 -0.9031781 -0.39077964 
0.44615582 -0.61262673 -0.6524059 
-0.27696505 -0.926676 -0.2540905 
0.06887254 -0.8740509 -0.48092794 
0.8259018 -0.5638088 -0.0024259107 
-0.42504174 -0.714919 -0.5551851 
-0.16031933 -0.33496422 -0.9284916 
0.008492809 -0.12120581 -0.99259114 
0.061698712 -0.46846867 -0.8813231 
-0.19097623 -0.38357535 -0.9035476 
-0.35881388 -0.44619215 -0.8198568 
-0.5397479 -0.67354035 -0.5049907 
-0.8179074 -0.5132873 -0.25993013 
-0.4444263 -0.8344066 -0.3259615 
-0.44307843 -0.6804493 -0.58366966 
-0.9253307 -0.37312347 -0.06739477 
-0.91553295 0.22260535 -0.3350319 
-0.82028455 -0.5355635 0.20076089 
-0.81013316 -0.014520257 -0.5860661 
-0.6792758 0.00878546 -0.7338305 
-0.6543703 -0.5173053 -0.5515386 
0.07618236 -0.10935795 -0.99107873 
0.28242022 0.21194777 -0.93558383 
-0.36882085 -0.6132818 -0.6984674 
0.5246095 -0.65872073 -0.5393254 
-0.5219154 -0.4213103 -0.7416886 
0.3697522 -0.7364623 -0.56648624 
0.16055979 -0.8908495 -0.42497993 
-0.16842405 -0.9422005 -0.2896404 
-0.68351924 0.12206452 -0.7196539 
-0.26900184 -0.76139647 -0.58984184 
-0.2848786 -0.92497706 -0.2515186 
-0.18854135 -0.8773678 -0.44122332 
0.037883215 -0.46869424 -0.8825478 
-0.31818655 -0.62393844 -0.7137634 
-0.3612575 -0.1991268 -0.91095644 
-0.25819674 -0.6093042 -0.7497219 
-0.38665906 0.10948522 -0.9157007 
-0.6323208 -0.30788815 -0.71089756 
0.26196012 -0.53850794 -0.8008659 
0.117569506 -0.30696383 -0.9444315 
0.009521891 -0.07963558 -0.99677855 
-0.025740543 -0.674085 -0.7382052 
-0.028233893 -0.70983195 -0.70380497 
0.43914884 -0.77036613 -0.4622602 
0.3341608 -0.9406926 0.05860202 
-0.6125879 -0.75786835 -0.22443658 
-0.5515296 -0.5359374 -0.6392076 
0.035090066 -0.74626523 -0.6647233 
0.70236266 -0.46911907 -0.53536355 
0.5199746 -0.21786276 -0.82593125 
0.34653255 -0.1473497 -0.9263927 
0.6209491 -0.7838234 0.006572738 
0.294235 -0.9483901 0.118245535 
-0.50671506 -0.8531348 0.124100596 
-0.5800905 -0.7238358 0.37357292 
-0.52463144 -0.73715 -0.42587775 
-0.5028765 -0.71073306 0.49190828 
-0.78804666 -0.38729218 0.47852597 
-0.77701885 -0.6141771 0.13794266 
-0.9972171 -0.043272976 0.060709335 
-0.6807584 -0.5988675 0.4218125 
-0.36285815 -0.90555745 -0.2197723 
-0.78252447 -0.4594688 0.42017114 
-0.53589064 0.0052729268 0.844271 
-0.30416912 -0.50099 0.81024086 
-0.9620719 -0.2726871 0.0077156588 
-0.48294556 -0.6194964 -0.6188601 
-0.41319025 -0.7761135 -0.47636297 
0.026548702 -0.72115 -0.69227016 
-0.2342009 -0.9632023 0.13187674 
-0.13987052 -0.96476173 0.2228701 
-0.32687345 -0.63421977 -0.70065624 
-0.89566666 -0.33031994 0.29777515 
-0.9873202 -0.15347168 0.040561274 
-0.76557934 0.6033503 -0.2232863 
-0.5839961 0.41672164 -0.69662875 
0.18818317 0.39158937 -0.9006914 
-0.11960419 0.013280162 -0.9927329 
0.8543749 -0.3523886 -0.38192388 
0.8605713 -0.10490542 -0.4984094 
0.5520515 -0.8273837 -0.10332228 
0.90467024 -0.3770452 -0.19851662 
0.6646718 -0.5361226 -0.52036905 
0.45981735 -0.8422361 -0.28143638 
0.4005684 -0.88790894 0.22619227 
-0.135918 -0.8218682 0.5532261 
-0.56308055 -0.76247114 0.31871334 
-0.83108854 -0.538376 -0.13943915 
-0.809228 -0.10127484 -0.5786997 
-0.995815 -0.07418954 -0.05337184 
-0.37405312 0.31648073 -0.87173635 
-0.37219578 0.10857131 -0.9217823 
0.351673 -0.21381998 -0.91137654 
0.1295426 -0.025814515 -0.99123776 
-0.12007136 0.13971044 -0.98288554 
-0.20966497 -0.7014371 -0.681195 
0.2742291 -0.5400275 -0.7957191 
0.47866914 -0.7988864 -0.36422026 
-0.016206311 -0.9982749 -0.05643258 
-0.14042383 -0.886714 -0.44047648 
-0.11754534 -0.8058382 -0.5803515 
-0.024111958 -0.18320823 -0.9827785 
0.4850283 0.11572061 -0.86680824 
-0.175503 0.1308461 -0.97574484 
-0.08455287 -0.95198226 -0.29424593 
0.10936445 -0.97657984 -0.18528719 
0.19208291 -0.44364756 -0.8753749 
0.050614104 -0.62517273 -0.77884364 
-0.13461769 -0.4203253 -0.8973321 
-0.28983346 -0.37068027 -0.88237906 
-0.106692865 -0.99385107 -0.029610539 
-0.11979792 -0.862321 -0.49198672 
-0.40026802 -0.5301683 -0.7474672 
-0.78006583 -0.5550143 0.28888834 
-0.789615 -0.61108935 0.055479694 
-0.70106184 -0.69889015 -0.14165087 
-0.20528774 -0.6079176 -0.76700276 
0.3867669 -0.9074833 0.16396762 
0.012753562 -0.26981056 -0.962829 
-0.41563457 -0.12794746 -0.90048736 
-0.6904748 0.20899008 -0.69250834 
0.001997837 0.1271249 -0.9918847 
0.6510094 0.30876768 -0.69343305 
-0.21061695 -0.06499074 -0.97540593 
0.22795522 -0.11924249 -0.96634245 
0.73654646 -0.19880877 -0.6465094 
0.41097638 -0.182551 -0.8931817 
0.38238475 -0.70075744 -0.6022633 
0.09630835 -0.8806349 -0.463904 
0.117844604 -0.9790451 -0.16608253 
-0.011623758 -0.9233502 -0.38378283 
-0.030009275 -0.86279374 -0.5046648 
0.28017756 -0.710913 -0.6450608 
-0.33657786 -0.6606332 -0.6710285 
0.5868603 -0.77905726 -0.22060136 
-0.51432663 -0.5119435 -0.6880276 
0.070727676 -0.63366926 -0.7703641 
0.45049724 0.32467228 -0.8316491 
0.108397655 -0.55722964 -0.82325286 
-0.005854128 -0.62101007 -0.7837807 
-0.20933697 -0.84948033 -0.48431543 
-0.1611834 -0.87987447 -0.44703585 
-0.042427078 -0.36025357 -0.9318891 
-0.27671006 -0.022051508 -0.96070045 
-0.35271707 0.19767673 -0.91461176 
-0.005552465 -0.13542674 -0.99077183 
0.19471215 -0.16989876 -0.96603405 
0.28331217 -0.13591254 -0.9493482 
0.07052488 0.043969218 -0.99654055 
-0.06635039 -0.050158564 -0.9965349 
0.29230016 -0.2668667 -0.9183369 
0.29663804 -0.8469034 -0.44131675 
0.47269067 -0.7562714 -0.4523462 
-0.07178936 -0.9900261 0.12122174 
-0.2305206 -0.9284588 0.2912464 
-0.26750726 -0.85749274 0.439484 
-0.13394406 -0.8561954 0.4989874 
-0.5979483 -0.78811735 0.14604445 
-0.47869766 -0.78287786 -0.3974303 
-0.24463663 -0.9614354 0.12567785 
-0.26577067 -0.69986635 0.662988 
0.2686157 -0.9562998 -0.1154832 
-0.25190744 -0.95923287 0.12812111 
-0.50618374 -0.68088096 -0.52931964 
-0.58902156 -0.4902593 -0.6424169 
-0.14420672 -0.17386316 -0.974154 
0.15787956 0.20360085 -0.9662405 
-0.58867735 -0.74144363 -0.3220565 
0.047986235 -0.8970479 -0.43932053 
-0.4230916 -0.10134804 -0.90040106 
0.115467794 0.3011823 -0.9465497 
0.75188345 0.19726647 -0.62909234 
0.24237645 0.6425995 -0.72685593 
0.14636421 0.23444775 -0.96104723 
0.90315586 -0.38785475 -0.18406044 
0.069725856 -0.9957839 -0.05960547 
0.029752309 -0.6105443 -0.79142314 
0.25125995 -0.2095352 -0.9449674 
-0.4035378 -0.70557165 -0.58251685 
-0.41685453 0.373534 -0.8286764 
0.19062789 -0.79932225 -0.569864 
-0.35519028 0.084871784 -0.93093324 
-0.14585394 0.0708309 -0.9867673 
-0.14572072 -0.010675064 -0.9892682 
0.7630852 -0.15128049 -0.62834316 
0.78815585 0.32331124 -0.5237178 
0.9970691 -0.018582625 -0.07421483 
0.7243552 -0.14288376 -0.67445815 
0.714941 -0.30887946 -0.6272582 
0.7731901 -0.24255629 -0.5859554 
0.665692 -0.71656275 -0.20830768 
0.8895151 -0.34812772 0.2959224 
0.58859366 -0.7812414 0.20789292 
-0.14579962 -0.65934783 0.7375656 
-0.112675264 -0.70514977 0.7000487 
-0.6794294 -0.60004014 -0.42228845 
-0.48788813 -0.86295354 0.13144007 
-0.4016066 -0.9026235 -0.15486465 
-0.5359813 -0.29424506 -0.79129267 
-0.51767856 -0.056351505 -0.8537174 
-0.2884217 -0.805278 -0.5180157 
-0.22461213 -0.23831375 -0.94485766 
-0.18184115 -0.2954971 -0.93787813 
0.07550902 0.5201324 -0.8507413 
0.13431339 -0.16733296 -0.97670853 
-0.034880944 -0.1930335 -0.980572 
-0.5653898 0.27821776 -0.7764852 
-0.06418881 -0.13302954 -0.9890314 
0.11084775 -0.8269944 -0.55117434 
0.43066114 -0.16360718 -0.88756055 
0.76062745 -0.31367126 -0.5683805 
0.8361141 -0.5479722 -0.025290195 
0.86210465 -0.4386414 0.25371122 
0.6533972 -0.65854895 0.37334368 
0.63196844 -0.21319343 0.74509364 
-0.5258392 -0.49900827 0.68882793 
0.013643574 -0.40984848 0.9120517 
-0.55805475 -0.82689273 0.06945098 
-0.5837827 -0.7590388 -0.2881976 
0.062699124 -0.71716446 -0.6940779 
-0.48469776 -0.6399978 -0.59621394 
-0.077110484 -0.5686891 -0.8189302 
-0.011015613 -0.98367953 0.17959186 
-0.19596203 -0.9609733 -0.19526725 
0.48198172 -0.87528825 0.03955032 
-0.02288848 -0.94667125 -0.32138717 
0.040303823 -0.9418251 -0.33367816 
0.15347904 -0.60637033 -0.78023034 
0.2564452 -0.8190614 0.5132001 
0.20772526 -0.9707992 -0.11999634 
-0.23769398 -0.9700912 -0.049240783 
-0.66356045 -0.43678233 -0.6073786 
-0.36505592 -0.31227905 -0.8770496 
-0.1303687 -0.7201744 -0.68143445 
0.24683897 -0.8437839 -0.47654927 
0.38812923 -0.91212016 -0.13188118 
0.07194923 -0.5864898 -0.8067546 
0.1269641 -0.7543487 -0.6440793 
-0.17402005 -0.7138061 -0.6783789 
-0.100232184 -0.94552594 0.30973274 
-0.50581956 -0.81134325 -0.29303357 
-0.32207978 -0.861165 -0.39326772 
-0.33104762 -0.31183025 -0.8906007 
-0.3656447 0.18659148 -0.9118594 
0.44570526 -0.058065042 -0.89329463 
0.9681654 0.24989238 -0.014478089 
-0.09870047 0.66214705 -0.74284565 
-0.29263496 0.31080362 -0.90430415 
0.18834239 -0.32883182 -0.9254171 
-0.49818102 0.062753946 -0.86479926 
0.39496887 -0.122872725 -0.91044056 
0.102661006 -0.9485561 -0.2995032 
-0.437662 -0.88651013 -0.150173 
0.28054088 -0.48964944 -0.8255545 
0.5058849 -0.5434802 -0.669858 
-0.42014256 -0.73874307 -0.5270094 
-0.4031331 -0.606475 -0.6853261 
-0.31431097 -0.6159588 -0.7223596 
-0.26172873 -0.80549264 -0.5316763 
0.017400835 -0.7401016 -0.67227 
0.15483707 -0.74815613 -0.6452038 
0.401081 -0.4437327 -0.80139583 
0.336083 -0.7661265 -0.5478123 
0.8600272 0.10334241 -0.4996734 
0.13969752 0.18830253 -0.97212493 
-0.24902295 -0.5548844 -0.7937827 
-0.109254055 -0.6669716 -0.73702943 
-0.19654423 -0.3483328 -0.91653407 
-0.664686 -0.3443757 -0.66302186 
-0.51769185 -0.7796415 -0.35235557 
-0.3748347 -0.52023417 -0.7673692 
-0.17483722 -0.19732977 -0.9646206 
-0.5352108 -0.10445697 -0.83823514 
-0.6096844 0.031370085 -0.7920233 
-0.8767228 0.24982601 -0.41102803 
-0.6076175 -0.12853429 -0.78376013 
0.09239845 -0.62338233 -0.77643865 
0.62703365 -0.4841705 -0.6102522 
0.41155192 -0.4965055 -0.7642693 
0.22205487 -0.621227 -0.751511 
-0.09664413 -0.79150885 -0.6034681 
-0.04963039 -0.7118782 -0.7005472 
-0.022001874 -0.310428 -0.95034224 
0.027749749 -0.58837867 -0.8081093 
-0.29801288 0.035329293 -0.95390785 
-0.574706 -0.33157024 -0.74818057 
-0.49577576 -0.5381787 -0.6815939 
-0.41101605 -0.50512254 -0.75889194 
-0.51610166 0.30378577 -0.8008455 
0.3354967 -0.08557335 -0.9381467 
0.04534629 0.24463068 -0.96855545 
0.25317344 -0.32206437 -0.9122378 
0.3855804 -0.39355198 -0.8345325 
-0.049322233 -0.9540235 -0.295646 
0.13346148 0.22484949 -0.96521026 
-0.055616952 -0.26969972 -0.96133703 
-0.23391828 -0.5344581 -0.8121803 
-0.32844794 -0.6262605 -0.70705 
0.12665054 -0.70951355 -0.6932173 
-0.37891975 0.17644642 -0.9084529 
0.2615244 0.2795175 -0.92383707 
-0.3044166 -0.3452854 -0.88775474 
-0.39089105 -0.11225098 -0.9135666 
-0.051053796 0.26609907 -0.9625928 
0.7569074 0.45724598 -0.46692327 
0.49853823 -0.09574733 -0.8615638 
0.77016926 0.2695511 -0.5780844 
0.9649895 -0.2608679 -0.027263632 
0.3191324 -0.8557034 0.40734056 
0.51219094 -0.843912 -0.15960279 
-0.6365868 -0.7249086 0.26318204 
-0.3830995 -0.15560858 -0.91050583 
-0.5138408 -0.2812225 -0.8104824 