# OOMMF: rectangular mesh v1.0
# Segment count: 1
# Begin: Segment
# Begin: Header
# Desc: Time (s) :  5.290000000000008e-07
# Title: m
# meshtype: rectangular
# meshunit: m
# xbase: 2e-09
# ybase: 2e-09
# zbase: 5e-10
# xstepsize: 4e-09
# ystepsize: 4e-09
# zstepsize: 1e-09
# xmin: 0
# ymin: 0
# zmin: 0
# xmax: 1.024e-06
# ymax: 1.024e-06
# zmax: 1e-09
# xnodes: 256
# ynodes: 256
# znodes: 1
# ValueRangeMinMag: 1e-08
# ValueRangeMaxMag: 1
# valueunit: 
# valuemultiplier: 1
# End: Header
# Begin: Data Text
0.41191322 -0.7370445 -0.5358106 
0.31313324 -0.29461312 -0.902857 
0.36201027 -0.16615617 -0.9172462 
0.76842314 -0.082952626 -0.634543 
0.4142011 -0.86736584 -0.27588803 
0.85048276 -0.08207179 -0.51956064 
0.9580714 0.14236167 -0.24866101 
0.9624946 0.27125752 -0.004867153 
0.7149051 0.643409 0.2737438 
0.363706 0.21490176 0.90638584 
-0.0323581 -0.46774533 0.8832708 
-0.1509547 -0.1888477 0.97033465 
-0.51072544 -0.5595443 0.6527401 
-0.9509219 0.04918989 0.30549613 
-0.28048086 -0.950622 -0.1328473 
-0.059888385 -0.8810736 -0.46917254 
-0.1011752 -0.43507057 -0.89469385 
-0.5052998 -0.7384635 -0.4464794 
-0.42078143 -0.89172965 -0.16661742 
-0.97826254 -0.2000695 0.05454017 
-0.7021423 -0.331459 -0.63018346 
0.089362144 -0.5353501 -0.8398898 
-0.02400699 0.07066437 -0.9972112 
0.17105013 0.5790487 -0.79714775 
-0.33133596 0.2073856 -0.92043895 
0.20068555 -0.35064775 -0.91475224 
-0.25417498 0.14831725 -0.9557181 
-0.35310146 0.0880951 -0.93142825 
0.24878913 0.33944023 -0.9071297 
0.17052704 0.9472667 -0.27130508 
0.14551239 0.97663873 -0.15812352 
0.3042512 0.878201 0.36904493 
-0.097043104 0.8338539 0.54338783 
0.04422733 0.9890412 0.1408598 
-0.322795 0.94393307 0.06923724 
-0.8804936 0.43141386 -0.19650212 
-0.8167448 0.46957633 -0.33530012 
-0.4831678 -0.41791937 -0.7693454 
-0.6939408 0.12209077 -0.7096056 
-0.81468 0.34478125 -0.46628585 
-0.8901497 0.00047676926 -0.455668 
-0.8301493 0.27555272 -0.4846884 
-0.58344793 0.14571777 -0.79897124 
0.19815888 -0.3232089 -0.9253481 
0.48692563 0.266508 -0.83179146 
0.79013747 -0.17163602 -0.5884081 
0.7094742 0.2987535 0.63827324 
0.17247085 0.067406625 0.9827056 
-0.8056487 -0.123940066 0.57928336 
0.052977346 -0.96413183 -0.26008347 
-0.76586276 -0.6428006 0.016173167 
-0.6890196 -0.697976 -0.19514506 
-0.07349323 -0.9724768 -0.22110593 
0.060259305 -0.9970722 -0.047073692 
0.6416016 -0.7609553 -0.096408784 
0.06900162 -0.6401137 -0.76517534 
0.60995674 -0.42308956 -0.67003584 
0.13986671 -0.9203604 -0.36520424 
0.5932941 -0.76052135 -0.26383606 
-0.06509581 -0.85655755 -0.51192933 
-0.18671055 -0.982378 -0.008528793 
-0.59149814 -0.4907168 -0.63978666 
-0.74472266 -0.5838338 -0.32330543 
-0.21765096 -0.55579436 -0.80232215 
0.2836276 -0.9567129 -0.06523728 
0.6787564 -0.706358 -0.20086858 
-0.025972495 -0.84218735 -0.5385592 
-0.008513406 -0.8256413 -0.56413114 
-0.030446563 -0.56549215 -0.82419145 
0.22220941 -0.9734285 -0.05531843 
0.29479146 -0.9555457 0.005531945 
0.902022 -0.40738648 -0.14280254 
0.12923418 -0.3524451 0.92686623 
-0.6473011 -0.3865755 0.6569329 
-0.5443702 -0.80384654 -0.23977476 
-0.32992762 -0.85815316 0.39334577 
-0.20369692 -0.9732628 -0.106146306 
-0.28416535 -0.958763 0.004861381 
-0.20796502 -0.9431376 -0.25931066 
0.117368266 -0.91406226 -0.38822016 
-0.5870734 -0.60139906 -0.5419079 
-0.12218187 -0.9924234 0.012942168 
-0.22677124 -0.82430774 -0.51874024 
0.087048076 -0.90199316 0.42288426 
-0.006281066 -0.99225616 0.124049395 
-0.30049437 -0.9510703 0.0718917 
-0.31779802 -0.8273238 -0.46318454 
0.055506077 -0.9588926 -0.27828813 
0.105561495 -0.76714385 -0.63272995 
0.24746999 -0.9563999 0.1551064 
-0.07171335 -0.9973974 -0.0074624056 
-0.21701919 -0.71650326 -0.6629674 
-0.21015383 -0.63478893 -0.74355793 
-0.0047835433 -0.999462 -0.03244949 
-0.26666543 -0.75971586 -0.5930612 
-0.44867486 -0.48972943 -0.7475667 
0.39312303 -0.1430255 -0.9082941 
0.67900854 -0.60460603 -0.41641214 
0.5851628 -0.4990303 -0.63918173 
0.78435963 -0.61543286 0.07760409 
0.5381313 -0.79651284 0.2756484 
0.36875278 -0.8117481 0.45286477 
-0.22583307 -0.6561815 -0.72001755 
0.057744186 -0.68465066 -0.7265805 
0.33879155 -0.8922263 -0.29858446 
0.5380018 -0.79100585 -0.29131392 
0.31529322 -0.7446242 0.5883239 
0.054957893 -0.8924563 0.44777387 
0.29482436 -0.95374054 0.058803093 
-0.11179588 -0.51892614 0.84747714 
-0.32186857 -0.0070316154 0.9467583 
-0.43024397 0.28830016 0.8554375 
-0.5588377 -0.30757514 0.7701286 
-0.75525045 -0.50165886 0.42182377 
-0.25875387 -0.8747577 0.40968964 
-0.30729103 -0.9450991 -0.11117566 
0.3126065 -0.76514393 0.56287825 
-0.081012085 -0.85454017 0.51302844 
-0.14032687 -0.626344 0.7668126 
-0.60678715 -0.79160494 0.07191076 
-0.723082 -0.5917377 -0.35636923 
-0.6052768 -0.1879351 -0.77351177 
-0.047100607 -0.6439694 -0.76360005 
0.10748037 -0.83936006 -0.5328439 
-0.08975264 -0.17171389 -0.98104984 
-0.07329518 -0.6820275 -0.7276444 
0.22546105 -0.32614 -0.91804147 
0.47305518 -0.8791551 -0.05749036 
-0.62538475 -0.6183769 -0.47592428 
-0.25441447 -0.8824072 0.39576632 
-0.057571746 -0.99454176 -0.08701918 
0.46750036 -0.88058734 0.07752006 
-0.07001481 -0.9635529 0.25819325 
-0.4972159 -0.86734235 0.022214781 
-0.88521343 -0.45913947 0.07475352 
-0.9398964 0.24314412 -0.23974097 
-0.516256 -0.5889588 -0.62177753 
-0.8354652 -0.3194736 -0.4471404 
-0.5847364 -0.6767847 -0.44726482 
0.30338737 -0.9508671 0.061708372 
0.2104048 -0.95522666 0.20801932 
0.09959047 -0.932365 0.34753042 
0.8390363 -0.54179406 -0.049772643 
0.6895431 -0.37741303 -0.618134 
-0.54589534 -0.72918224 0.412664 
-0.45589158 -0.86492777 -0.20991176 
0.42410648 -0.82073176 -0.38279638 
0.26729167 0.07428746 -0.96074796 
0.5651317 0.29179606 -0.7716744 
-0.07805861 0.4310247 -0.89895755 
0.5227491 -0.10813295 -0.8456007 
0.2063383 -0.9001202 -0.3836772 
0.32096785 -0.85442686 -0.40857598 
-0.0015006392 -0.2291358 -0.9733934 
-0.08262424 -0.16755252 -0.98239475 
0.30142766 -0.17160903 -0.9379189 
0.028390225 0.3497108 -0.9364275 
-0.39165682 0.3274166 -0.8598857 
-0.36518937 -0.42311153 -0.82922465 
-0.2765482 -0.95943403 0.054840617 
-0.106306665 -0.9631188 -0.2471865 
-0.5651797 -0.5210052 -0.6396292 
-0.3264822 -0.56987935 -0.75408673 
0.13662921 -0.8958042 0.42292708 
-0.258938 -0.626783 0.73491096 
0.30321175 -0.90779984 0.28976247 
0.5421649 -0.66082066 0.5190118 
-0.17171656 0.07151174 0.98254746 
-0.28986052 0.77465254 0.5620448 
-0.5071687 -0.1881839 0.841051 
-0.71487564 -0.66934 -0.20232831 
-0.6116866 -0.42152858 -0.66944253 
-0.38661215 -0.31769875 -0.8657936 
-0.2520218 -0.34846175 -0.9028064 
0.48978564 -0.7916297 -0.36528426 
0.123325095 -0.9861826 0.1106118 
-0.08718312 -0.5632722 -0.8216591 
-0.7899108 -0.4078301 -0.45794722 
-0.31011686 -0.10730579 -0.9446232 
-0.24582233 0.45132637 -0.85783213 
-0.76037323 0.028629247 -0.6488551 
-0.87016135 -0.47731048 0.12244963 
-0.40430722 -0.5760941 -0.7103882 
0.4875152 0.008406211 -0.8730741 
-0.29874408 -0.20730251 -0.93154585 
0.16915558 -0.8989723 -0.4040237 
-0.388302 -0.23071659 -0.8921836 
-0.26786575 -0.56680614 -0.7790885 
0.066328935 -0.8092815 -0.5836641 
0.7072643 0.11744109 -0.6971262 
0.6984312 -0.1798635 -0.692707 
0.62657547 -0.1543637 -0.7639209 
0.9314007 -0.07471683 -0.35624465 
0.28490186 -0.638935 0.7145579 
-0.18140848 -0.95837134 0.22048873 
0.33965015 -0.87366045 -0.348361 
0.33705056 -0.7837946 -0.5215965 
0.049236298 -0.5688775 -0.8209472 
-0.34126422 -0.116139375 -0.932765 
-0.8088057 -0.5229228 -0.26904485 
0.2144181 -0.86360735 -0.4562974 
0.6264226 -0.7381841 0.25035793 
0.8147096 -0.5664539 -0.12400988 
0.31811973 0.3816728 0.8678282 
0.9067066 -0.0147227235 0.42150506 
0.8011145 -0.40793595 -0.43795434 
0.5070373 -0.41364887 0.7561797 
0.58952636 -0.77360064 -0.23238085 
0.14990388 -0.96354336 -0.2216147 
-0.55809855 -0.82292795 0.10637421 
-0.30246446 -0.740906 -0.59964454 
-0.20512696 -0.62908655 -0.749782 
-0.0650804 -0.9072661 -0.41549113 
-0.092071205 -0.96550786 -0.24355222 
-0.41504014 -0.7542158 -0.5088224 
-0.43577227 -0.7267211 -0.53101707 
0.0068873186 -0.4885869 -0.87248814 
0.11445972 -0.83133864 -0.5438521 
0.3281311 -0.90793926 0.2607226 
-0.091948606 -0.8174712 0.5685828 
0.45602918 -0.88300467 0.11108633 
-0.57752943 -0.25912705 0.7741532 
-0.9733487 0.14319484 0.17912987 
-0.9636077 -0.13539514 -0.23049605 
-0.66201806 -0.51297295 -0.54643464 
-0.5722391 -0.705692 -0.41778138 
0.3920818 -0.36441505 -0.8446736 
0.15316506 0.46280494 -0.87312776 
0.9925142 0.11887191 0.028021554 
0.6264205 0.50641406 -0.5925726 
0.33750072 0.9329997 -0.1249194 
0.14990519 0.7300878 0.6667086 
-0.27633572 0.49671665 0.82274616 
-0.09806462 0.6581807 0.74644595 
0.2548321 0.46984056 0.84516895 
-0.7236939 0.1431088 0.67512006 
-0.62487817 0.38403434 0.6797389 
-0.20788279 0.44374916 0.87170607 
-0.8485482 -0.4338159 -0.30293548 
-0.70439994 -0.39717534 -0.58827937 
-0.97733843 0.13665804 -0.161661 
-0.81399184 0.35700342 -0.45822036 
-0.732908 0.31159937 -0.60477406 
-0.8057166 -0.34370667 -0.48237592 
-0.9630924 -0.11747021 0.24218553 
-0.93311894 0.2616004 -0.24668688 
-0.5871678 0.20727624 -0.7824773 
-0.53961474 0.1420199 -0.82984716 
0.020501679 -0.35108128 -0.9361205 
-0.039793294 -0.2855093 -0.9575495 
0.05283624 -0.9441174 -0.32534698 
0.69640094 -0.6717573 0.25252327 
0.9610737 -0.240363 0.1362461 
0.8975738 0.059282046 -0.4368602 
0.83546895 -0.47420707 0.27770376 
0.7435372 -0.13778222 -0.65434587 
-0.41581827 -0.44911313 -0.7908177 
-0.8123478 -0.3019743 -0.49890128 
-0.25600147 0.124710135 -0.9585983 
0.30870587 -0.36938986 -0.8764998 
0.22474274 -0.93135047 -0.28649122 
0.48824888 -0.76901597 -0.41258645 
0.8975429 -0.1343001 -0.41997647 
0.57349366 0.35894275 0.7363866 
0.987987 -0.13866593 0.0682178 
0.0870952 0.17759068 0.98024285 
0.0045691733 -0.56538546 0.82481426 
-0.58758235 -0.37102777 0.7190865 
-0.996152 -0.056826863 -0.06672258 
-0.95210177 0.2944017 0.082643695 
-0.7629524 -0.24898987 -0.59658015 
-0.8673166 0.14055733 -0.4774995 
0.082206555 -0.10152111 -0.9914311 
-0.3661155 -0.06037735 -0.92860866 
-0.5312725 -0.051529694 -0.8456325 
-0.69983125 -0.05196689 -0.7124154 
-0.30831116 -0.21507214 -0.92665434 
-0.048757043 0.2645375 -0.9631421 
0.32548058 0.10654094 -0.9395272 
0.44498563 0.08845648 -0.89115846 
0.083169214 0.5346681 -0.8409596 
-0.14736028 -0.027121115 -0.988711 
0.36133885 0.25959945 -0.89556825 
0.56928545 0.45176244 -0.68689513 
0.31756228 0.6776915 -0.6632409 
0.4440732 0.88617605 -0.13225327 
0.41744557 0.9000893 0.1248139 
0.05151759 0.617511 0.7848734 
-0.25142726 0.74076563 0.62293714 
0.051072594 0.73336375 0.6779154 
-0.4945832 0.43475047 0.7525819 
-0.8763919 -0.34105554 -0.34002697 
-0.73977894 0.2519967 -0.62387884 
-0.31360012 0.07133653 -0.94687176 
-0.3566897 0.27629784 -0.8924305 
-0.17084442 -0.18507542 -0.96776 
-0.23970398 0.2148709 -0.94676954 
-0.686829 0.41664112 -0.59554696 
-0.41751808 0.17243871 -0.8921567 
-0.3919801 -0.3523897 -0.84980774 
0.33797994 0.3990415 -0.85237056 
0.17140734 -0.52705806 -0.83236384 
0.52312315 -0.8517054 -0.030661946 
-0.3836294 -0.9230849 0.027251001 
-0.51117647 -0.6634519 0.5463792 
-0.8535595 -0.48523262 -0.1896986 
-0.45386255 -0.6074051 -0.65197235 
-0.8792041 -0.21746281 -0.4239224 
-0.5193346 -0.6509287 -0.55369985 
-0.19591545 -0.7435935 -0.6392854 
-0.051132124 -0.9986672 0.007033985 
0.2428951 -0.3026696 -0.9216252 
0.5966406 -0.36603284 -0.7141709 
-0.058333095 -0.59351444 -0.8027066 
0.24016073 -0.696364 -0.6763136 
-0.10514358 -0.98487777 -0.13769785 
-0.1952142 -0.7178038 -0.66831815 
-0.4139946 -0.33847097 -0.84501237 
-0.31237063 -0.5146458 -0.7984763 
0.3714344 -0.7607351 -0.53227687 
0.24625331 -0.50981724 -0.82428503 
0.098121375 -0.8819655 -0.46098724 
0.2668213 -0.8545265 -0.44563517 
-0.019640427 -0.9775207 -0.20992313 
-0.06005806 -0.6066418 -0.79270345 
0.12919948 -0.2662919 -0.9551943 
0.18861982 -0.92521286 -0.3292474 
0.364391 -0.65212846 0.6647915 
-0.21860509 -0.9036107 0.3683742 
-0.27676305 -0.93997157 -0.19963941 
-0.00534999 -0.9684564 -0.24912614 
-0.5022911 -0.85746855 -0.1115868 
-0.520704 -0.70689934 0.4787074 
-0.76567733 -0.51723784 -0.38236538 
-0.21223018 -0.5983931 -0.7725828 
0.13877913 -0.9903223 0.0014724911 
-0.0038006983 -0.8211884 -0.5706447 
-0.084599316 -0.8785774 -0.47004765 
0.1119162 -0.569406 -0.81440264 
0.40518337 -0.6248417 -0.66738254 
0.21561478 -0.63496804 -0.7418396 
0.35240924 -0.76042527 -0.54549176 
-0.08729012 -0.8096161 -0.5804328 
-0.06500774 -0.7042425 -0.706977 
-0.6003617 -0.42758307 -0.6758244 
-0.59041995 -0.4055728 -0.69779295 
-0.74614644 -0.61956906 -0.24372077 
-0.25881854 -0.74713296 -0.61221355 
0.17237352 -0.7013238 -0.6916881 
0.6135907 -0.37680906 -0.6939175 
0.4242769 -0.21056741 -0.8807103 
0.08695109 -0.22575644 -0.9702956 
0.8138794 0.1725018 -0.5548365 
0.7751848 0.37590408 -0.50772494 
0.41356006 -0.46407256 -0.78332937 
0.292021 -0.84257305 -0.45254233 
0.20891425 -0.8841879 -0.41781175 
0.2308816 -0.22944887 -0.94554055 
0.24875367 -0.8552349 -0.45463726 
0.52707934 -0.6970113 -0.48617154 
0.36321402 -0.82884085 -0.4255568 
0.3024198 -0.8539941 -0.42336342 
0.71495205 -0.47724694 0.51095885 
0.4849873 -0.84876895 -0.21066235 
0.6644442 -0.70291054 0.25383222 
0.7337009 0.14038537 0.664812 
-0.021672027 -0.6296435 0.776582 
0.32564682 -0.59882796 0.7316825 
-0.2964867 -0.5512993 0.7798491 
-0.35878238 -0.29362306 0.8860366 
0.04404664 -0.8969336 0.43996602 
0.2050045 -0.7276567 -0.65459067 
0.9500798 -0.31150326 -0.01772677 
-0.4342809 -0.5735654 0.6945667 
-0.80815244 -0.039897576 -0.58762056 
-0.4583577 -0.886438 0.064310834 
-0.25999504 -0.92938125 -0.26201758 
-0.017184403 -0.87802434 -0.47830757 
-0.43881795 -0.26094168 -0.8598536 
0.22890718 -0.1449462 -0.96259654 
-0.09334091 -0.005505244 -0.995619 
0.6427811 0.05936606 -0.76374626 
-0.002384401 -0.17955738 -0.9837447 
0.37392172 -0.7162838 -0.58916897 
-0.37684214 -0.9212142 -0.09671785 
-0.022342533 -0.94580084 0.3239777 
0.4368578 -0.68101865 0.58768094 
-0.04265939 -0.9989757 -0.015095482 
0.4474341 -0.86605775 0.22303984 
-0.2638697 -0.96024656 0.09110057 
0.014569728 -0.732062 -0.6810823 
0.6711096 -0.16538697 -0.722675 
0.11836289 -0.8982461 -0.42325422 
0.21108876 -0.25261012 -0.94426143 
-0.2265087 -0.580309 -0.782263 
0.44158685 -0.55482495 -0.7051031 
0.05645695 -0.6242208 -0.77920544 
0.19318621 -0.6849165 -0.70254433 
0.44197217 -0.17173631 -0.8804358 
0.3704423 -0.8887323 -0.27005082 
-0.23675118 -0.81491494 -0.5290205 
-0.66955394 -0.5039969 -0.54560494 
-0.59827507 0.03118378 -0.80068386 
-0.50943476 0.08579885 -0.85622126 
-0.2971738 0.42637894 -0.8543353 
0.50263345 -0.055368528 -0.86272466 
0.3383615 -0.14298852 -0.93008924 
0.22919896 -0.7054485 -0.670679 
-0.6847263 -0.27530423 -0.6748019 
-0.17462544 0.5154403 -0.83894414 
-0.3336743 0.6025099 -0.7250126 
-0.21946028 0.7834921 -0.5813584 
-0.18883729 0.4854959 -0.85360074 
0.3618508 0.623253 -0.6932675 
0.32415324 0.08603548 -0.94208425 
-0.038061913 0.084093064 -0.9957307 
0.008221645 -0.74237126 -0.6699384 
-0.6553336 -0.40363267 -0.63845026 
-0.8617004 -0.4563074 -0.2219369 
-0.39484662 -0.8473888 0.35500464 
-0.35968238 -0.8233047 0.43908757 
-0.715701 -0.5269676 0.45834187 
-0.32986924 -0.7438854 0.58122355 
-0.20283937 -0.91575867 0.34675983 
-0.96678466 -0.14548019 0.21014974 
-0.91010076 -0.4042813 -0.09095747 
-0.4126963 -0.43181893 -0.8020063 
-0.3775062 -0.4306571 -0.8197706 
-0.6248038 -0.24321532 -0.74193436 
-0.70652103 -0.2191481 -0.6729058 
-0.43443283 -0.5072482 -0.7442898 
0.12229031 -0.96304035 -0.23999669 
-0.22458276 -0.48023582 -0.847901 
0.29397306 -0.11870201 -0.9484143 
-0.5972583 0.06714769 -0.79923326 
-0.26180285 0.8557969 -0.4461738 
-0.69369066 0.6581518 -0.29262543 
-0.60701483 0.06513238 -0.79201704 
-0.19233124 -0.014704447 -0.9812199 
0.043972638 -0.3553177 -0.9337108 
0.06914367 -0.21368134 -0.97445345 
0.3325247 -0.9412024 -0.059710577 
0.38878787 -0.9212608 0.011078057 
0.2571549 -0.85585856 -0.44875097 
0.13744761 -0.7544947 -0.6417523 
-0.3347673 0.3543974 -0.8731171 
0.4455122 0.0335743 -0.8946461 
0.96352696 0.13794255 -0.22932012 
0.76275474 0.034951407 -0.6457427 
0.6852844 -0.57349086 -0.4488805 
0.8556399 -0.49977064 0.13457295 
0.73921424 -0.048889667 -0.6716935 
0.8110813 -0.42859012 -0.39806736 
0.4318208 0.33302775 -0.8382264 
0.5839425 -0.52659935 -0.61782235 
0.44506273 -0.2302056 -0.86540437 
0.36699694 -0.8820016 -0.2956122 
-0.16029018 -0.984245 -0.07462506 
-0.22354652 -0.80239725 -0.5533404 
0.24529442 -0.72214985 0.6467846 
0.32267842 -0.9217209 0.21519583 
0.09231288 -0.88756007 0.45134866 
0.19215755 -0.8545693 0.48247993 
-0.41705883 -0.90884435 -0.00799907 
-0.60496306 -0.6418689 -0.47119436 
-0.015343828 -0.64340985 -0.76536816 
-0.39456427 -0.091928914 -0.9142583 
0.11192617 -0.0393374 -0.9929377 
-0.4566364 -0.6805656 -0.57298666 
0.2901981 -0.80279136 -0.52087545 
0.14049537 -0.81746095 -0.5585862 
0.12693149 -0.6907225 -0.7118924 
0.09338897 -0.05421347 -0.9941526 
-0.1827564 -0.06990125 -0.9806702 
-0.37103257 -0.8335544 -0.4092946 
-0.03668368 -0.91081506 0.4111815 
-0.55823 -0.71980274 0.41262996 
-0.3112 -0.71764743 0.62300634 
-0.813546 -0.20313786 0.54486513 
-0.6801977 -0.49381635 -0.5417347 
-0.5082227 0.043507278 -0.86012614 
-0.28136823 0.18837553 -0.9409286 
0.5332432 -0.12527601 -0.8366348 
0.857337 0.38332352 0.34356418 
0.95978266 0.26038995 -0.10494933 
0.0027788663 0.74138504 0.6710742 
0.8089354 0.45171493 0.37626725 
-0.21087685 0.6935354 0.6888684 
0.42501935 0.047561906 0.9039339 
0.32224262 0.2287113 0.91861355 
0.084530644 -0.40958396 0.9083478 
-0.16962743 -0.820257 0.5462645 
-0.22603883 -0.40567902 0.8856247 
-0.9471156 -0.23706354 -0.21627055 
-0.81758523 -0.5293115 -0.2266801 
-0.7820876 0.07968898 -0.6180523 
-0.872002 -0.18527852 -0.45308328 
-0.7258121 0.4418969 -0.527185 
-0.39190063 0.48460433 -0.7820311 
-0.60635495 0.179232 -0.77473205 
-0.7600296 -0.61835617 -0.19997692 
-0.39271694 -0.7862572 -0.47704628 
0.11000017 0.07665004 -0.9909716 
-0.6570822 -0.02427571 -0.75342804 
-0.20043387 -0.5099511 -0.8365262 
-0.06860945 -0.58889186 -0.8052944 
0.38963482 -0.5316588 -0.7520131 
0.6407063 -0.54537976 -0.5404225 
0.860931 -0.21531917 -0.46090737 
0.9110538 0.41092023 -0.033550132 
0.81566423 -0.18179849 0.54921883 
0.89978594 0.43492663 0.034985717 
-0.5790379 0.06472722 -0.8127273 
-0.7486376 -0.33400026 -0.5727003 
-0.428099 -0.17672105 -0.88628495 
-0.6545752 -0.35796726 -0.66587603 
-0.76614887 -0.27777287 -0.5795327 
-0.04074861 -0.45922711 -0.8873839 
0.08148936 -0.815017 -0.57367843 
0.003303924 -0.6153813 0.78822273 
0.7454177 -0.5013292 0.4393421 
0.1835876 -0.44774893 0.87510943 
-0.18278025 -0.78814155 0.587728 
-0.45102975 -0.71486616 0.534358 
-0.9195817 0.2254405 0.3217859 
-0.81834555 -0.067201845 0.57078403 
-0.68785644 0.39232737 -0.61068225 
-0.8930667 -0.022200152 -0.44937646 
-0.5719382 -0.14645171 -0.80711746 
-0.09836177 0.04894538 -0.99394643 
-0.30513853 0.38542792 -0.8708249 
-0.20176828 0.54400814 -0.8144598 
-0.5334612 -0.6937952 -0.4838051 
-0.044355243 0.17068893 -0.9843261 
0.16831435 0.27934018 -0.945325 
0.36066496 0.011296579 -0.932627 
-0.27050364 0.8058072 -0.5267853 
0.70727336 0.41140738 -0.5748986 
0.28266677 0.65647566 -0.6993849 
0.63134634 0.19228566 -0.75128436 
0.2692051 0.5985796 -0.7544741 
-0.33399385 0.7394436 -0.58452666 
-0.40039423 0.8554226 0.3285374 
-0.67916757 0.51846766 0.519541 
-0.7110582 0.5591992 0.4262541 
-0.85259086 0.48721933 0.18896078 
-0.9272978 -0.3568756 0.11295523 
-0.94714165 -0.23297197 0.2205603 
-0.7886967 0.043151412 0.6132664 
-0.7326722 0.5447457 -0.40797505 
-0.5097437 -0.6290859 -0.5868666 
-0.25270224 -0.22194192 -0.9417449 
-0.58637637 -0.31584397 -0.74592584 
-0.39740446 0.3982741 -0.8267088 
-0.2502106 0.553202 -0.7945831 
0.25225842 0.1270031 -0.9592893 
0.023107702 0.4783175 -0.8778829 
0.08460522 0.06416221 -0.9943466 
0.9829714 -0.15312074 -0.1015942 
0.093820825 -0.78082687 -0.61766255 
-0.3211424 -0.32478032 0.8895984 
-0.89692265 0.03175108 -0.4410461 
-0.6624907 -0.4373768 -0.6081182 
-0.66976196 -0.2286102 -0.70651 
-0.20831193 -0.3856386 -0.8988264 
0.034887612 -0.48389676 -0.87442946 
-0.08377199 -0.2697289 -0.9592855 
-0.13223876 -0.24000774 -0.961722 
-0.17359814 0.18126929 -0.96799034 
0.05426636 -0.580525 -0.81243217 
-0.30409247 0.25395 -0.91817063 
0.31616342 0.015085381 -0.9485848 
-0.029844694 -0.31625023 -0.9482063 
-0.18860185 -0.109558396 -0.97592336 
-0.051300578 -0.47515535 -0.8784052 
0.44677746 -0.44064486 -0.7786027 
0.30134854 -0.79057384 -0.5330873 
0.0221182 -0.95939076 0.28121227 
0.11037529 -0.85483384 -0.50702703 
0.37921914 -0.5545324 -0.7407339 
0.60007405 -0.027424492 -0.79947424 
-0.049237017 -0.3913515 -0.91892314 
-0.21105316 -0.7320384 -0.6477472 
-0.0056183687 -0.99574995 -0.09192618 
0.19573283 -0.8324609 -0.51836044 
0.34338608 -0.79287714 -0.50342035 
0.058433384 -0.7012865 -0.71048075 
-0.12393828 -0.66370916 -0.73765135 
-0.71836245 -0.69548845 -0.01585177 
-0.7979446 -0.5326536 -0.2820722 
-0.83896476 -0.30731344 -0.44910648 
-0.4659112 -0.8817589 -0.07367551 
-0.81217146 -0.09510846 -0.57561445 
0.10013473 -0.042742137 -0.99405545 
0.30910957 -0.5598608 -0.76877 
0.15617378 -0.15053302 -0.97619146 
-0.5268467 -0.40964174 -0.7447324 
-0.32366455 -0.22427793 -0.9192066 
0.5039497 -0.022353936 -0.8634438 
-0.022900403 0.2677877 -0.9632058 
-0.13418172 -0.63322127 -0.76225066 
-0.57331246 -0.25912496 -0.7772819 
-0.36519948 -0.33009124 -0.87044203 
-0.029570596 -0.23744224 -0.97095156 
-0.02503727 -0.7026678 -0.7110776 
-0.46770483 -0.3186492 -0.82444835 
0.16944148 -0.67511916 -0.71798587 
0.22516245 0.15953743 -0.96117103 
0.18294886 0.69636935 -0.6939737 
0.1105218 0.3870588 -0.91540724 
0.47420278 0.20860924 -0.8553443 
0.14322484 0.029737987 -0.98924327 
0.2843472 -0.098595686 -0.9536381 
0.09337825 -0.533429 -0.8406748 
0.5411445 -0.3313811 -0.77288365 
0.39276564 -0.8876297 -0.24051781 
0.019105595 -0.74831367 -0.6630699 
0.3395527 -0.649494 -0.68033934 
0.30943158 -0.8408575 -0.44408408 
0.09531773 -0.845329 -0.52567434 
0.7145626 -0.64438385 -0.27234134 
0.58886534 -0.8047076 0.075388655 
0.102482855 -0.64501655 0.7572655 
0.44064316 -0.50741786 0.74051386 
0.15293847 -0.51480484 0.84355545 
-0.46582857 -0.475901 0.7460041 
-0.1878199 -0.9101683 0.36921188 
-0.041571766 -0.9573541 -0.28591052 
0.61895764 -0.78098047 -0.08343286 
-0.17955425 0.15461637 0.9715216 
-0.9427296 -0.33345562 0.008263662 
-0.9437016 0.15647265 0.29145086 
-0.28107792 -0.94823456 -0.14780587 
-0.47001743 -0.33864453 -0.8151095 
-0.52987254 -0.40394157 -0.74569863 
-0.27915367 -0.7517587 -0.5974379 
-0.32208958 -0.44671607 -0.83468753 
0.07093045 -0.3969001 -0.9151171 
-0.09588446 -0.5500263 -0.82962483 
-0.34462184 -0.558571 -0.7544762 
0.42418462 -0.431087 -0.7963865 
0.24144979 -0.70289445 -0.6690602 
0.92248094 -0.36459243 -0.12689124 
0.13147919 -0.72755843 -0.67332906 
0.27478573 -0.92803764 -0.25147367 
0.3968013 -0.86879885 0.29620486 
0.3629982 -0.8998751 -0.24177912 
0.82094127 -0.44263968 -0.36072913 
0.3603832 -0.44326794 -0.8207543 
0.93062097 0.06913308 -0.3593959 
0.3175125 -0.6144355 -0.72225684 
-0.21788684 -0.32588395 -0.91995925 
0.03725779 -0.95423687 -0.29672182 
0.11116857 -0.49069494 -0.8642107 
0.67938787 -0.08388456 -0.7289688 
0.8761352 0.25866896 -0.40678945 
0.3868658 -0.056265436 -0.92041796 
0.4395539 0.19938546 -0.87580705 
-0.28369257 -0.3514817 -0.8921767 
0.17004414 -0.5705139 -0.80349165 
0.16052166 -0.15380271 -0.97497565 
0.50535154 0.19147916 -0.8414009 
0.52810055 0.13823646 -0.83785474 
-0.2678594 -0.16923161 -0.9484788 
-0.22891013 0.25313902 -0.93995786 
-0.6440053 0.6004817 -0.4740032 
-0.847227 0.52739996 -0.063685544 
0.22171213 0.730087 -0.64638746 
-0.42564306 0.6496459 -0.62991136 
0.05971691 0.37441257 -0.9253374 
0.293108 0.3648769 -0.8837152 
-0.4666234 0.3436425 -0.81496775 
-0.58509374 -0.4794112 -0.65408736 
-0.88715106 -0.39265344 -0.24245892 
-0.903513 -0.4273321 -0.032430585 
-0.8903253 -0.32126254 -0.32266262 
-0.06343607 -0.57714975 0.8141708 
-0.19682701 -0.9373052 0.2876074 
0.13861935 -0.9566494 0.25613776 
-0.8950116 -0.44600162 -0.006068485 
-0.43395036 -0.873934 -0.21892153 
-0.8662389 0.2597485 -0.42680323 
-0.0937349 -0.58967894 -0.8021799 
0.018606534 -0.06828225 -0.99749255 
0.20535344 -0.026983887 -0.9783159 
-0.3970925 0.74928105 -0.52999574 
-0.42891115 -0.06921614 -0.9006911 
-0.17527391 -0.15048239 -0.97295123 
-0.10688923 0.06292799 -0.99227756 
-0.49871916 -0.36864424 -0.7844621 
-0.34963626 -0.27295458 -0.8962424 
0.026549118 0.95052296 0.30951798 
-0.8029397 0.5947205 0.039944105 
-0.71156716 0.27990535 -0.6444573 
-0.35965806 0.022248687 -0.9328189 
0.28766677 -0.09169707 -0.9533308 
0.21036406 0.32543555 -0.92186695 
0.010277225 -0.72979814 -0.68358546 
-0.27605844 -0.42516765 -0.8619886 
-0.050915044 0.250803 -0.9666983 
-0.25635865 -0.55736107 -0.78970176 
-0.1858756 -0.27625743 -0.942938 
-0.26919436 -0.13294542 -0.9538658 
-0.50898004 0.23565185 -0.8278935 
0.13373709 -0.4950479 -0.8585115 
0.47924143 -0.23865168 -0.8446142 
0.5365095 -0.82651454 -0.17038551 
0.6186291 -0.5247326 -0.58476824 
0.7108629 -0.67318726 -0.2036983 
0.1132505 -0.4063847 -0.90665644 
0.6763434 -0.46062362 -0.5747918 
0.5467584 -0.36455888 -0.75375867 
0.8990535 -0.38302168 -0.21212548 
0.7181598 -0.6833783 -0.13130414 
0.6833367 -0.44970998 -0.5751626 
0.12238831 -0.98121804 -0.14910561 
-0.20108065 -0.93666106 0.28676274 
-0.75842017 -0.6345042 -0.14900757 
-0.07892866 -0.7614238 -0.6434315 
-0.3933563 -0.8251611 -0.40543807 
-0.07939646 -0.443689 -0.8926569 
-0.21491012 -0.051532187 -0.97527343 
-0.41859636 -0.22160864 -0.8807194 
-0.5222482 -0.72978103 -0.4412216 
0.19988227 -0.79966134 -0.5662056 
0.36480337 -0.2879259 -0.88544744 
-0.06784325 -0.81990576 -0.5684645 
-0.28511098 -0.0006211421 -0.9584943 
-0.053037632 0.22783686 -0.9722538 
-0.6553402 0.23185688 -0.7188683 
-0.114157826 -0.9085512 -0.40187424 
0.04038704 -0.9390746 0.34133244 
0.4656334 -0.832757 0.29950204 
-0.35435522 -0.7169033 0.60040164 
-0.8323632 -0.20265229 0.51585233 
-0.8467786 0.0668643 -0.52772653 
-0.4102731 0.16316114 -0.8972483 
-0.17479461 0.074149705 -0.9818089 
0.8764139 -0.41972783 -0.23606637 
0.87547785 0.47015983 0.11175111 
0.52098817 -0.48460418 0.7026594 
0.8600052 -0.5093014 -0.03167292 
0.5050029 0.37290704 0.77840376 
-0.025454199 -0.1686853 0.9853413 
0.52402765 0.3664036 0.76885855 
0.6701916 -0.56002456 0.48704812 
-0.25492182 -0.05914821 0.965151 
-0.3821724 -0.58462507 0.7156521 
-0.8302934 -0.23435572 0.5056582 
-0.6134478 -0.51498044 0.59872955 
-0.9865405 -0.114345446 0.11688914 
-0.9681769 0.25014892 -0.007692939 
-0.93823594 0.03234482 -0.3444811 
-0.5580066 -0.103868045 -0.8233105 
-0.38347778 0.21287854 -0.898681 
-0.65321505 0.36165857 -0.6652167 
-0.6683245 0.2627088 -0.6959357 
-0.21419254 -0.79614973 -0.5659217 
-0.38795927 0.20591256 -0.89838064 
-0.1803536 0.4074509 -0.895241 
-0.47164467 0.39965692 -0.78601885 
-0.2253181 0.49795115 -0.8374225 
0.7810143 0.2827047 -0.55686164 
0.8334718 0.5465743 -0.08112635 
0.9185867 0.3482617 0.18684849 
0.97088015 0.1098316 0.21290566 
0.6629401 -0.5412247 0.5172875 
0.8528582 -0.25609767 0.45502424 
-0.46720195 0.4763644 -0.74484855 
-0.78422636 -0.06390621 -0.6171752 
-0.38421047 0.047008976 -0.92204803 
-0.40795204 -0.012089341 -0.9129233 
-0.5194984 -0.4630691 -0.71811455 
-0.0528469 -0.38915038 -0.9196571 
0.59515685 -0.59500474 -0.5401461 
0.26210517 -0.7698209 0.5819593 
0.33968362 -0.85892713 0.38322207 
0.25446525 -0.92268854 0.2896434 
-0.15600063 -0.63295907 0.7583052 
0.2503846 -0.9562651 0.15121059 
-0.029589796 -0.9727309 -0.23004177 
-0.6014025 -0.79796207 -0.039642558 
-0.8361523 0.30490106 -0.4559437 
-0.45673704 0.51414603 -0.72597885 
-0.28354925 0.44633883 -0.8487529 
0.07470018 0.4981439 -0.8638706 
-0.112498075 0.48593494 -0.86672455 
0.49381047 0.090317965 -0.86486644 
0.474975 0.055171415 -0.8782682 
-0.058774304 -0.3470069 -0.9360192 
0.49053514 0.1891609 -0.85064304 
0.43512723 -0.09717566 -0.89510965 
0.25781557 0.7641835 -0.5912316 
-0.6876281 0.66358423 -0.2946587 
-0.24254383 0.84070444 -0.484137 
-0.032016426 0.9327265 -0.35916045 
-0.5001328 0.6537307 -0.5678939 
-0.35048857 0.7492874 -0.56189513 
-0.6408989 0.74962574 -0.16525733 
-0.93988824 0.2983156 0.16618663 
-0.8479905 0.5253715 -0.06997903 
-0.41067082 0.8507824 0.32790056 
-0.95253974 -0.06565351 0.2972502 
-0.7786484 -0.60691875 0.15923677 
-0.9923196 -0.059153203 0.10864116 
-0.042234212 0.020573197 -0.9988959 
0.1530636 -0.17290007 -0.9729734 
0.06506019 -0.028688971 -0.9974689 
-0.1990367 0.46199086 -0.86426204 
-0.55595696 0.7026286 -0.44410017 
0.15387696 0.26070178 -0.95307744 
0.36278778 0.2561099 -0.8959871 
-0.030651076 0.12739767 -0.99137807 
0.3470913 0.20705473 -0.91468906 
0.5424984 -0.36704546 -0.75562763 
-0.41124654 -0.6317938 -0.6570487 
-0.4941154 -0.8572307 0.14493231 
-0.806412 -0.25897726 -0.53163016 
-0.4834945 -0.099624775 -0.8696598 
-0.023274304 0.12457472 -0.9919372 
0.33490893 0.2685538 -0.9031694 
-0.525093 -0.020815274 -0.85079026 
0.05775907 -0.6961569 -0.7155624 
-0.2660499 0.1920474 -0.94463503 
0.028014317 -0.02245788 -0.99935526 
-0.69992334 0.17132789 -0.6933643 
0.23423633 0.2227606 -0.9463145 
0.5141098 0.2812898 -0.81028837 
0.3083548 -0.23674963 -0.92133975 
0.28179365 -0.3378912 -0.89800996 
0.5957938 0.04562989 -0.8018402 
-0.020550057 -0.3487019 -0.93700844 
-0.13955715 -0.47729713 -0.86758935 
-0.016181577 -0.8263082 0.56298584 
0.35666972 -0.9298185 0.0906877 
0.8378218 -0.17896672 -0.5157767 
0.8777079 -0.35153678 -0.3256543 
0.7126709 -0.5226386 -0.4679201 
0.5776708 -0.4168919 -0.70178175 
0.23829173 -0.13359945 -0.9619606 
0.5974856 0.28545356 -0.7493512 
0.46049353 -0.7274242 -0.5087236 
0.117144346 -0.25055203 -0.9609896 
0.27941155 -0.9257977 -0.25461313 
-0.5020382 -0.74440503 -0.44024876 