# OOMMF: rectangular mesh v1.0
# Segment count: 1
# Begin: Segment
# Begin: Header
# Desc: Time (s) :  5.350000000000008e-07
# Title: m
# meshtype: rectangular
# meshunit: m
# xbase: 2e-09
# ybase: 2e-09
# zbase: 5e-10
# xstepsize: 4e-09
# ystepsize: 4e-09
# zstepsize: 1e-09
# xmin: 0
# ymin: 0
# zmin: 0
# xmax: 1.024e-06
# ymax: 1.024e-06
# zmax: 1e-09
# xnodes: 256
# ynodes: 256
# znodes: 1
# ValueRangeMinMag: 1e-08
# ValueRangeMaxMag: 1
# valueunit: 
# valuemultiplier: 1
# End: Header
# Begin: Data Text
-0.9452626 -0.012610677 -0.32606682 
-0.55504036 -0.8249381 -0.106805734 
-0.3731293 -0.86301583 -0.34055585 
0.46416453 -0.13309942 -0.8756917 
0.72094595 -0.5031056 0.47657305 
0.6900781 -0.7230674 0.031079184 
0.46686578 -0.6145159 0.63592976 
-0.1186591 -0.6403314 0.758878 
-0.49138898 -0.65202874 0.577404 
-0.6975727 -0.18056415 -0.6933895 
-0.7682694 -0.3997898 -0.49993035 
-0.28202325 -0.5465448 -0.78851235 
0.09103845 -0.5072155 -0.8569974 
0.36646637 -0.831846 -0.416815 
0.055317014 -0.8473831 0.5280928 
-0.069380626 -0.9917504 -0.10778398 
-0.39757618 -0.8261667 0.3992268 
-0.38994786 0.08723755 0.91669536 
-0.58993834 -0.38793644 0.7081512 
-0.53368604 -0.6145186 0.5809872 
-0.6389581 -0.24879816 0.7278957 
-0.34030628 -0.88504523 -0.3176264 
-0.35812172 -0.48123953 -0.80009836 
-0.513591 -0.8575778 -0.028012536 
-0.65535074 -0.63579655 0.4077722 
-0.31664184 -0.7624754 0.5642423 
0.027170027 -0.9778254 -0.20765181 
-0.13588692 -0.9460119 0.29427245 
-0.18733968 -0.9821149 0.018822052 
-0.0013343147 -0.8092493 0.5874639 
-0.59506285 -0.3622277 -0.71742 
-0.38433534 -0.32033774 -0.86583495 
0.8217964 0.002273594 0.5697768 
0.99780726 0.058755897 -0.030471886 
0.7282443 0.36571163 0.57958204 
0.11623575 -0.15145442 0.9816063 
0.044238336 -0.41484636 0.90881544 
0.1301277 -0.73767745 0.6624944 
0.75492483 -0.5701334 -0.32409343 
0.6737727 -0.61848223 -0.40436387 
0.6626773 -0.7473852 0.047689397 
0.3043868 0.06867164 0.95007 
0.6382505 0.42658642 0.6408279 
0.69205457 -0.47826558 0.54066867 
0.6479102 -0.593518 0.47744 
0.81015956 -0.57169896 -0.12962216 
0.99379885 0.11032576 0.013861622 
0.73573524 -0.58188087 0.34656656 
0.7179213 -0.09529902 -0.6895703 
0.2625199 0.13728932 -0.95511 
0.887746 0.08559874 -0.45230517 
0.7884304 -0.5396424 0.2952351 
0.9432387 0.078583464 -0.3226847 
0.49136624 -0.3237483 0.8085458 
0.6212344 -0.37046862 0.69052225 
0.11287577 -0.859332 0.49880606 
0.66538715 -0.74092925 0.09101613 
0.56231356 0.03408783 -0.8262212 
0.8599429 0.18099394 -0.47722048 
0.38966757 -0.87416553 0.28981704 
0.20116109 -0.97247666 -0.11757364 
-0.18941514 -0.9483645 -0.25441444 
-0.19314298 -0.75812435 -0.62285095 
0.06173716 -0.7920028 -0.607388 
0.34783524 -0.4559544 -0.8192169 
-0.29616758 -0.8632698 -0.40871766 
-0.08651042 -0.010922026 -0.99619114 
-0.3957935 -0.25272483 -0.8828804 
-0.0723494 0.19943482 -0.9772366 
-0.52119577 -0.12693882 -0.8439441 
0.34562057 -0.19945271 -0.91693246 
0.452453 0.007406604 -0.89175755 
0.84548354 -0.35138857 -0.40209907 
-0.048272535 -0.2541716 -0.96595377 
0.53230727 -0.38430318 -0.75429434 
0.23223034 -0.9351107 -0.2676511 
0.5206289 -0.2470325 0.81726414 
-0.32846692 -0.3348283 0.88317585 
-0.7462225 -0.17720231 0.64167845 
-0.9387864 -0.30636445 0.15754686 
-0.9565483 -0.13726588 -0.25724208 
0.028167682 -0.45692253 -0.8890604 
-0.5717143 0.6233977 -0.5334024 
-0.6138614 -0.25783965 -0.74611866 
-0.71681905 0.6827824 -0.1413459 
-0.6809213 0.5358041 -0.4992596 
-0.18541981 0.7885891 -0.5862992 
0.078099355 0.433404 -0.8978093 
0.28804848 -0.4833563 -0.826677 
0.2989127 -0.43532124 -0.8492035 
0.26209706 -0.37893912 -0.88753045 
-0.46599552 -0.47915575 -0.7438132 
-0.52910566 -0.6556486 0.5386763 
-0.40009552 -0.9081319 0.123369664 
-0.43697256 -0.6978214 0.567539 
-0.2866686 -0.956885 -0.04682164 
-0.7936101 -0.51865894 0.31808162 
-0.8163141 -0.57262474 0.07571163 
-0.17682822 -0.9743179 -0.13941431 
0.025489755 -0.9347922 0.35427934 
0.20319606 -0.9791376 -0.0010160577 
0.025178203 -0.3728377 -0.92755497 
0.5087863 -0.1737126 -0.84318477 
0.1810365 -0.3125918 -0.93247646 
0.096765466 0.5225582 -0.8470947 
0.051992983 0.9808723 0.18758048 
0.95791125 0.10827001 0.2658643 
0.7376432 -0.4519822 -0.50159204 
0.57209307 -0.64376026 0.5082148 
0.9399767 -0.3340944 0.069461055 
0.9701915 0.15526819 0.18606523 
0.80046934 -0.4153841 0.43209368 
0.89034593 -0.026803803 0.454495 
0.7478606 0.045294184 0.6623089 
-0.7398961 -0.1944791 0.6439966 
-0.73990655 -0.16182621 0.6529553 
-0.8683737 -0.41543892 0.27080947 
-0.7012978 -0.19627745 -0.685315 
-0.4877158 -0.8222182 -0.29341206 
-0.68769956 -0.65973794 -0.30301037 
0.13105571 -0.16741998 -0.97713614 
-0.09645768 -0.49278992 -0.8647855 
-0.60074294 0.0041246945 -0.7994316 
-0.056847133 0.052182235 -0.9970183 
0.61495084 0.06452134 -0.7859215 
0.79715145 0.0968323 -0.595964 
-0.08006812 -0.98577195 0.14779352 
-0.10273206 -0.89867634 0.426412 
-0.6242816 -0.7181998 -0.30734614 
0.34677598 -0.60832745 -0.71392167 
0.33244404 -0.9358825 -0.116639845 
-0.1818441 -0.9205359 -0.34575492 
-0.16824637 -0.94934875 0.26538685 
-0.6029544 -0.13149881 -0.7868635 
-0.23451564 -0.9662101 0.106960475 
-0.46688268 -0.8037321 -0.36882976 
-0.044755846 -0.6922459 -0.72027254 
0.049212568 -0.9733035 -0.22418438 
-0.3344744 -0.832927 -0.44086248 
-0.049764592 -0.9352048 -0.35059297 
-0.4490851 -0.8926349 0.03905833 
-0.22919765 -0.8970956 0.37774053 
-0.23373893 -0.8940192 -0.38222483 
0.49332118 -0.76777035 -0.40885577 
0.9365998 -0.32048732 -0.14166406 
0.40422958 -0.91464597 -0.0046072146 
-0.008643557 -0.848423 0.52924836 
-0.44520593 -0.8825076 0.15156566 
0.22020616 -0.915152 0.33764803 
0.08639706 -0.9818713 -0.1687137 
-0.43404636 -0.879351 -0.1958207 
0.3889809 -0.9203282 -0.041108686 
0.09858803 -0.9676246 0.23234253 
-0.105842076 -0.7779905 -0.61929655 
0.46787137 0.01962323 -0.88357866 
0.3917372 0.19509773 -0.89915454 
0.13464591 -0.4183847 -0.89823425 
0.1293156 -0.88384306 -0.44955438 
0.3572821 -0.52240556 -0.7742363 
0.65590423 -0.6126647 -0.44094416 
0.23287682 -0.9721494 0.026345612 
0.2486428 -0.9661724 0.06846725 
0.60516053 -0.5592605 0.56657606 
0.5620182 -0.80837184 0.17513019 
0.477659 -0.70912737 0.51863307 
0.23093848 -0.82874745 0.50975025 
-0.2840788 -0.4538951 0.8445582 
-0.6568676 -0.63625926 0.40459746 
-0.2298171 -0.91420233 -0.3337937 
0.5432509 -0.80164504 0.24948695 
0.17611293 -0.6859775 0.70598805 
-0.28309578 -0.6497872 0.70543134 
-0.1364991 -0.7726099 0.6200338 
-0.21812452 -0.7540744 0.6195107 
-0.30192 -0.7532466 -0.5843491 
-0.42485 -0.31331795 -0.8493141 
-0.10348231 -0.34984604 -0.93107426 
0.394443 -0.16835217 -0.9033672 
-0.5153476 -0.7958638 0.3178327 
0.3459626 -0.49266842 -0.79849094 
-0.3234795 0.10981636 -0.93984115 
0.56365216 -0.21694532 -0.7970139 
0.7221129 -0.582521 -0.37312502 
0.2566746 -0.026299063 0.96614003 
-0.38120848 -0.4878003 0.78532225 
-0.589376 -0.78766835 0.17948431 
-0.24539547 -0.969232 0.019244911 
0.059427552 -0.5344634 0.8430998 
-0.31870207 -0.70222104 -0.63664335 
-0.17601481 -0.9215982 -0.3459416 
-0.025622051 -0.81397915 -0.5803288 
-0.5662488 -0.80104095 -0.19415422 
0.3096813 -0.40528762 -0.86013925 
0.8032023 0.04802966 -0.59376705 
0.9246234 0.20476805 -0.32115662 
0.6575496 0.41337073 -0.6298835 
0.83602965 -0.12786686 -0.5335772 
-0.5490852 -0.7597294 -0.34830576 
-0.031934172 -0.96279025 -0.2683568 
0.24841993 -0.9361566 -0.24879403 
-0.6144333 -0.7863996 -0.0636191 
-0.025568604 -0.7499729 -0.6609742 
0.16352165 -0.91075087 -0.3792014 
0.16329576 -0.31241006 -0.93580693 
0.8507646 -0.21137486 -0.48116574 
0.49716002 0.11782117 -0.8596222 
0.4998306 -0.469371 -0.72791505 
0.33306628 -0.59721583 -0.7296576 
0.54945916 0.16601554 -0.8188612 
0.42153785 0.13645732 -0.896485 
-0.09096397 0.6366882 -0.7657374 
-0.22509971 0.7402319 -0.6335511 
-0.7540191 0.38365203 -0.5331663 
-0.9314599 -0.32470417 -0.16416354 
-0.7496801 -0.51536864 -0.41518062 
-0.3900535 -0.86387557 -0.31871223 
-0.0454344 -0.44334102 -0.8952008 
-0.73160005 -0.016598715 -0.6815321 
-0.38481867 -0.38913113 -0.83695376 
0.35574618 -0.2799501 -0.89166844 
-0.36211964 -0.1297368 -0.92305887 
-0.48942193 -0.30178845 -0.81816256 
0.1334451 -0.7625275 -0.6330437 
0.16897735 -0.012524278 -0.98554045 
-0.19223712 -0.4850724 -0.8530825 
-0.19913241 -0.9341124 -0.29627752 
0.652797 -0.69234484 -0.30743247 
0.9882732 -0.11336036 -0.10230097 
0.92939657 0.13974324 -0.341605 
0.50462466 0.39563534 -0.76735044 
0.819173 0.45288032 -0.35193068 
0.64234465 0.24853589 0.72499883 
0.99045235 0.12250742 0.06321438 
0.6254769 0.7783417 -0.054433007 
0.794618 0.6010496 0.08556651 
0.6862824 0.69275 0.2216168 
0.8333654 0.11671173 0.5402599 
0.48417172 0.24831419 0.83899814 
0.10869103 -0.5517851 0.8268734 
0.07687279 -0.2955168 0.95223975 
0.63346034 -0.13534962 0.76184547 
0.56497294 -0.16655058 0.8081254 
-0.031882312 0.37138626 0.9279309 
0.16478874 0.032867976 0.98578113 
-0.09817793 -0.7199499 0.6870468 
-0.9599027 -0.011604057 -0.2800931 
-0.67949885 0.34143725 -0.64938587 
-0.8831135 0.3087759 -0.35322523 
-0.84873825 0.051241532 -0.52632475 
-0.66020125 0.09768166 -0.74470973 
-0.059401873 -0.44393247 -0.89408916 
-0.47784796 -0.121399984 -0.8700134 
-0.24732913 0.020528868 -0.9687141 
0.511757 -0.09385086 -0.8539888 
0.78948015 -0.60311383 -0.11390753 
0.58020097 0.17794225 -0.79479784 
-0.86988074 -0.45647582 0.18691601 
-0.2242195 -0.96934855 0.10044416 
-0.044269335 -0.9989826 0.008607421 
0.24782985 -0.8944285 -0.3722608 
0.7795288 -0.6121454 -0.13271384 
-0.25139824 -0.9583059 0.13582642 
-0.94968456 -0.31052104 -0.040939175 
0.02923005 -0.9995147 0.010768329 
0.43911183 -0.20540652 -0.8746365 
-0.6468888 -0.20605676 -0.73421764 
-0.75291157 0.36229104 -0.5494265 
-0.72845995 -0.36694404 -0.5785311 
-0.286277 -0.38062632 -0.8793004 
0.06993515 -0.9624619 -0.26225224 
-0.009221681 -0.99833053 -0.05701859 
0.15709834 -0.95305705 0.25884816 
-0.4766142 -0.8648313 0.1578155 
-0.5329771 -0.5731429 0.6224489 
-0.35624412 -0.82614607 0.43654642 
-0.34743506 -0.33843914 0.8744986 
-0.14477643 -0.47880176 0.8659034 
-0.72303134 -0.3501312 -0.5955114 
-0.37301624 -0.916058 -0.14729846 
-0.4591771 -0.8633925 -0.209069 
-0.425243 -0.90438855 0.035351906 
-0.3479235 -0.9313607 -0.10731511 
-0.30482084 -0.7840187 -0.5407394 
-0.43376783 -0.84783113 0.30500504 
-0.34204727 -0.86775255 0.36056808 
-0.21677437 -0.9751304 0.04614843 
-0.9390714 -0.3357038 0.07381094 
0.02807984 -0.9753435 -0.21889853 
0.7236164 -0.6893982 0.0333092 
0.9107156 -0.016015738 -0.4127237 
0.44030005 -0.6959062 0.5673186 
0.3222436 -0.30317244 0.8967974 
0.2527292 -0.29581547 0.92120636 
0.1808953 -0.8807955 0.43757987 
0.8644668 -0.29288596 -0.40855256 
0.7131878 -0.6908498 0.11870081 
0.46165514 -0.6917976 0.55523926 
-0.48853898 0.03993612 0.8716277 
-0.23724492 0.2995583 0.92411023 
0.972649 0.00887369 0.23211035 
0.8867561 -0.43724623 0.14993137 
0.56392944 -0.47161567 -0.67791027 
0.1463366 -0.13940157 -0.9793635 
0.018553937 -0.6401697 -0.76800954 
0.60293937 -0.19772409 -0.7728967 
0.76673347 -0.37183407 -0.52331567 
0.8978159 0.028052485 -0.4394768 
0.6519691 -0.5007782 -0.5693484 
0.6320208 -0.77445376 -0.027768532 
0.21495038 -0.88493866 0.41313425 
0.025915205 -0.9047944 0.42505953 
-0.26067725 -0.9597507 -0.1045275 
0.24459337 -0.41103634 -0.87819326 
0.4998465 -0.36107466 -0.7872602 
0.9502104 0.31078184 -0.022690233 
-0.0480536 -0.82082635 0.56915283 
-0.25959465 -0.30091533 -0.9176386 
-0.0852509 -0.76552397 -0.63773453 
-0.20931049 -0.74697083 -0.6310497 
0.24133004 -0.68397886 -0.68842775 
-0.19615814 -0.52961206 -0.8252473 
-0.41140267 -0.0479226 -0.91019297 
-0.16913532 0.053494364 -0.9841401 
-0.728205 -0.4509771 -0.5160787 
0.11949014 -0.30697605 -0.94418633 
0.4091787 -0.4276391 -0.80603814 
0.36655927 -0.38802508 -0.8456186 
0.8019607 -0.3187106 -0.50525486 
0.2452446 -0.2465701 -0.9375811 
-0.06860138 -0.6062564 -0.79230493 
-0.019223556 -0.43860534 -0.8984743 
0.7671581 -0.6411254 -0.020660833 
0.23483638 -0.33345556 0.91304946 
0.13412733 -0.06477383 0.98884493 
-0.7678195 0.29865667 0.5667959 
-0.9957129 0.06159924 -0.06900355 
-0.8824707 -0.088507615 -0.46196517 
-0.73752975 -0.26480025 -0.62123334 
-0.42545885 -0.25037244 -0.8696542 
-0.27414095 -0.05595343 -0.9600605 
-0.36993316 0.3339524 -0.86696327 
-0.42184442 0.7689691 -0.48034784 
-0.39304402 0.73527277 -0.5521689 
0.014016932 0.29608914 -0.9550575 
0.002029699 0.31867933 -0.9478604 
0.6689461 0.009953658 -0.74324435 
0.1782584 -0.017972201 -0.98381954 
-0.13150358 -0.8950753 -0.42608333 
-0.41399077 -0.8481871 -0.33043975 
-0.6298273 -0.77296484 0.07644016 
0.16239767 -0.12479427 -0.9788021 
0.21411167 -0.86871433 -0.44664493 
-0.7901033 -0.60770655 -0.080184095 
-0.24401428 -0.88427263 -0.39814442 
0.22821587 -0.8450996 -0.48345026 
0.48132813 -0.87644863 -0.012693224 
-0.10971164 -0.97974455 -0.16752309 
-0.16539653 -0.6907857 -0.70388854 
-0.073845446 -0.5362631 -0.8408145 
-0.36382893 0.13883303 -0.92106134 
-0.7422956 0.37843728 -0.5529761 
0.8229481 0.47406402 -0.31308106 
0.9604511 -0.27482796 0.04475767 
0.7669059 -0.59849775 -0.23163699 
0.8142388 -0.57952875 0.03408524 
0.7392839 -0.6670632 0.092119694 
0.7659497 -0.62494016 0.15089986 
0.39486977 -0.7809344 0.4839622 
0.78710026 0.5683915 0.2395924 
0.22830576 -0.4303702 0.873303 
-0.8549956 -0.51853526 0.010188887 
-0.8988861 0.07764523 -0.4312485 
-0.85243857 -0.0627613 -0.51904684 
-0.7080252 -0.51574916 -0.48239312 
-0.22236913 -0.36522084 -0.90397227 
0.29028627 0.1406681 -0.9465444 
0.49106315 0.12103246 -0.862675 
0.02990075 0.089341074 -0.9955522 
-0.10353736 0.54866624 -0.82960564 
-0.34580135 0.8890392 -0.30005136 
-0.2162371 0.15791653 -0.9634853 
0.62131727 0.20754835 -0.7555717 
0.11991697 -0.825192 -0.5519767 
-0.041904423 -0.8477364 -0.52876 
-0.35444465 -0.723001 -0.5929913 
0.37343058 -0.709737 -0.5973467 
0.6705847 -0.64588904 -0.36488846 
-0.2536235 -0.88123024 0.3988841 
0.34125555 -0.8233203 -0.45352882 
0.18067881 -0.8858773 -0.42728984 
-0.5443414 -0.72879887 -0.41538513 
-0.7726712 -0.36738354 -0.5176954 
0.31966284 -0.8631367 -0.3909104 
-0.1440315 -0.9894232 0.017220546 
-0.66177773 -0.70484674 -0.255424 
-0.15205655 -0.9453962 -0.2882793 
0.5184635 -0.6233585 -0.58533746 
0.38445437 -0.9008123 -0.20182154 
0.20248432 -0.75362384 -0.625341 
0.5972743 -0.8014258 0.031306718 
0.61857635 -0.76687145 0.17108902 
0.7135315 -0.69998956 -0.029790178 
0.2821816 -0.94301015 0.17636773 
-0.29374743 -0.93164873 -0.21387632 
0.73988783 -0.66250837 0.11682766 
0.6280784 -0.70870984 -0.3213223 
0.810723 -0.52947724 0.24976406 
0.75139844 -0.5880017 0.2994237 
0.1966854 -0.79608405 -0.5723329 
0.032924257 -0.36793053 -0.92927027 
0.36969644 -0.30611134 -0.87728024 
0.46769992 -0.4768931 -0.7441975 
0.38083228 -0.5433007 -0.748192 
-0.10591137 -0.8104685 -0.5761281 
-0.22903837 -0.4725177 -0.8510396 
0.1316561 -0.66958857 -0.7309705 
0.41098595 -0.82846576 -0.38044062 
0.17745228 -0.9529515 -0.24575214 
0.021045908 -0.99888587 -0.042240713 
-0.10421162 -0.9428023 -0.31664434 
0.056808405 -0.7613535 -0.64584345 
-0.40076268 -0.89949393 0.17406902 
-0.09512435 -0.70925945 0.6985001 
-0.58440554 -0.7988801 0.1423404 
0.03901376 -0.877564 -0.47786957 
0.33195886 -0.9420876 0.047690477 
0.2194766 -0.86272395 0.4555628 
-0.46019667 -0.759863 0.45915946 
-0.6586235 -0.7475383 0.08603247 
-0.4422447 -0.61890167 -0.64913815 
-0.16656351 -0.035389498 -0.9853955 
-0.19310328 -0.17776589 -0.9649406 
-0.39875016 -0.19748013 -0.89554447 
-0.08325459 -0.14775862 -0.98551315 
0.29082483 -0.6424583 -0.70899105 
0.103217684 -0.3478572 -0.93184847 
0.4146085 0.46017185 -0.78507435 
0.9726379 0.03997836 -0.22886114 
0.8356473 -0.37388134 0.4023759 
-0.37346065 -0.7271885 0.57595485 
-0.36606616 -0.64864206 0.66727734 
-0.6085677 -0.634573 0.4764058 
-0.28913683 -0.90219 -0.320083 
-0.07368023 -0.9665077 0.24583364 
-0.022009887 -0.95557356 -0.2939299 
0.3621394 -0.8509094 -0.38053685 
0.601059 -0.7098441 -0.36721858 
0.48828334 -0.21666044 -0.8453624 
0.5064537 -0.22411032 -0.832634 
0.9221345 0.09465588 -0.37511104 
0.2983349 -0.117726065 -0.9471731 
0.5721225 -0.44894376 -0.68638575 
0.33894682 -0.9397468 0.044622157 
0.35125738 -0.5796942 -0.7352366 
-0.28990322 -0.41094667 -0.86433727 
-0.0030960417 -0.97528654 -0.22092193 
-0.17448395 -0.9417794 0.28741437 
-0.8122037 -0.52861166 -0.2467689 
0.4664351 -0.8595705 -0.20875105 
0.8229095 0.084367715 -0.5618738 
0.9727507 -0.16919363 0.15852349 
0.5532099 0.09658392 -0.827424 
0.5461028 -0.22171532 -0.8078453 
0.25409618 0.01879179 -0.96699643 
0.48431596 0.44421983 -0.7537287 
0.5640338 0.6213312 -0.54388744 
0.11031079 0.9465517 -0.30310318 
0.36608243 0.8260708 -0.42847496 
0.27462998 0.37444222 -0.8856475 
-0.36433944 0.25320342 -0.8961835 
-0.036157835 -0.2932645 -0.9553474 
0.34225842 -0.390565 -0.8545865 
-0.1221861 -0.7828215 -0.61013204 
0.2907688 -0.19004346 -0.9377297 
-0.06629915 -0.59958655 -0.79755914 
0.014141683 -0.49440458 -0.8691169 
0.49518797 -0.25627863 -0.8301266 
-0.6359446 0.33013654 -0.697556 
-0.30758485 0.2527311 -0.91734326 
0.5418825 -0.0023976367 -0.8404508 
-0.2100429 -0.8364235 -0.506239 
-0.055432886 -0.54726434 -0.83512217 
0.20317088 -0.41786063 -0.8855022 
0.5745114 0.23419958 -0.78427494 
0.84642196 0.046415843 -0.5304861 
0.7713529 0.63559234 0.032204807 
0.81552106 0.48523787 0.3153881 
0.86960393 0.12110233 0.47866833 
0.5574373 -0.17854945 0.81079215 
-0.23588468 0.3794132 0.894653 
0.39484817 0.502458 0.7691754 
0.5383959 0.7378703 0.40703493 
0.6390292 0.4383756 0.6320353 
0.47477442 -0.206533 0.8555311 
0.11928446 -0.010185994 0.9928079 
-0.2525731 -0.77099246 0.58461744 
0.35675454 -0.6727394 0.6481882 
-0.08659515 -0.35738993 0.9299322 
0.41655117 -0.48820004 0.7669068 
0.15725568 -0.82275575 0.5462085 
-0.9241537 -0.3646918 0.11375332 
-0.75718856 0.17600636 -0.6290368 
-0.68052965 0.52843785 -0.5075754 
-0.75024533 -0.30556852 -0.58631045 
-0.9510628 0.19472218 -0.2399229 
-0.84582543 0.15559639 -0.51026386 
-0.57778686 0.15753704 -0.8008399 
-0.25633204 0.61907077 -0.74232435 
0.27932012 0.12240609 -0.9523639 
0.07473552 0.20708413 -0.9754644 
0.44593608 0.21816796 -0.86806905 
0.81660056 -0.43709868 -0.37697253 
-0.36388007 -0.93122685 0.020195784 
-0.42041278 -0.8802434 0.22005638 
0.5030814 -0.85760236 0.106899686 
-0.32153752 -0.7175251 -0.6178765 
0.07092575 -0.76737463 -0.6372642 
-0.003466839 -0.91883403 0.39462912 
0.39234474 -0.49566248 -0.77484465 
0.73593736 -0.6304664 -0.2467963 
-0.49897453 -0.7786092 -0.38051572 
-0.62872165 0.067383826 -0.7747055 
-0.9613847 0.097165026 -0.25748476 
-0.9088187 0.15878044 -0.3857945 
-0.4747901 -0.5875584 -0.6552477 
-0.6664809 -0.7124899 -0.21945705 
-0.26251605 -0.78138036 -0.5661537 
-0.44702825 -0.5776395 -0.68300694 
-0.08455084 -0.97570163 -0.20213223 
-0.43047458 -0.78336984 0.44835645 
-0.23350568 -0.9154753 0.32768893 
-0.5759152 -0.3034199 0.75911665 
-0.20515072 -0.843528 0.49636066 
0.2645034 -0.88719225 0.37805796 
-0.28781605 -0.90570253 0.31123137 
-0.48590502 -0.7180449 -0.498305 
-0.35295278 -0.8762479 -0.32804564 
0.12510158 -0.89559853 -0.426911 
-0.12214644 -0.8346659 -0.53704107 
0.27359036 -0.9565737 0.100573525 
-0.19704024 -0.83942586 -0.50649726 
-0.6093111 -0.38720685 -0.6919616 
0.03924003 -0.6561661 -0.7535956 
0.38832614 -0.6722669 -0.6302857 
0.26528028 -0.81532276 -0.5146603 
0.5180295 0.73987216 -0.4292256 
0.16901612 -0.8356211 -0.52265775 
0.72711045 -0.68420047 -0.05639302 
0.26568815 -0.95651394 0.12037857 
0.5921483 -0.76294994 -0.25936043 
0.76571995 -0.626371 -0.14605564 
0.693635 -0.6419853 -0.32668865 
0.6645323 -0.7249827 -0.18109941 
-0.4544804 -0.67589706 0.5801817 
-0.25051692 0.014457595 0.9680043 
0.33821696 -0.62284744 0.7054576 
0.07523596 -0.8348387 -0.54532933 
0.42374286 -0.5564651 -0.7146948 
0.5650909 -0.8086095 -0.16377741 
0.70872194 -0.4643659 -0.53110987 
0.4655955 0.02493759 -0.8846463 
0.77462846 -0.20780003 -0.5973024 
0.86951756 -0.08940034 0.48574373 
0.36140162 -0.35760966 -0.8611064 
0.2378875 -0.79564375 -0.5571003 
0.23595466 -0.90849644 -0.34490535 
0.78544325 -0.5899538 -0.18717238 
0.4635051 -0.8769134 0.12722352 
0.22898395 -0.5968938 -0.76895005 
0.36290807 0.054840934 -0.93020976 
0.994365 0.105135836 -0.013596271 
0.96078527 -0.050524693 -0.27265158 
0.57814175 0.07308898 -0.81265616 
-0.0895505 -0.81847 -0.5675277 
0.07059886 -0.4652921 -0.88233733 
0.28675726 -0.53823155 -0.79251313 
-0.19431955 -0.74665743 -0.63619393 
-0.7362472 -0.44498992 -0.50982755 
-0.23438185 0.123525575 -0.96426487 
-0.2111289 -0.46981117 -0.8571477 
0.34975225 -0.61599016 -0.70585376 
-0.266249 -0.75858486 -0.5946938 
-0.19138764 -0.07738092 -0.97845954 
-0.037546594 0.1099138 -0.9932317 
-0.0019573516 -0.050998576 -0.9986968 
0.45190802 -0.25113162 -0.855986 
0.31790733 -0.7336736 -0.6005481 
-0.06567896 -0.79434335 -0.60390824 
-0.35055944 -0.8923765 0.28420475 
-0.42161185 -0.63179415 0.6504457 
-0.7796359 -0.442406 0.44322103 
-0.8285488 -0.12294013 -0.54625326 
-0.9221596 -0.32832 -0.20451838 
-0.7168921 0.091027476 -0.6912162 
-0.616596 0.18997543 -0.76401496 
-0.76287 0.079360455 -0.6416629 
-0.49024487 -0.55942285 -0.6683607 
-0.65200454 -0.64863396 -0.39263746 
-0.7769939 -0.14413956 -0.6127842 
0.18784952 -0.03753092 -0.9814806 
0.14883706 0.18364915 -0.97165865 
0.30253977 -0.2304296 -0.92486316 
0.84614575 -0.20060574 -0.49375585 
0.39228722 -0.85218763 -0.3462471 
-0.30465913 -0.9287099 0.21137816 
-0.6826174 -0.42257708 -0.59620655 
0.16048805 -0.11726049 -0.9800478 
-0.12736054 -0.5975661 -0.7916401 
-0.04187862 -0.60720265 -0.79344267 
-0.2387294 -0.86419123 -0.44292423 
-0.07168319 -0.18588136 -0.9799539 
-0.019210853 -0.319556 -0.94737273 
-0.35015398 -0.37799284 -0.8570378 
-0.19768588 -0.4938184 -0.84679615 
0.22129373 0.3009862 -0.9275971 
0.01618941 0.13257226 -0.9910411 
-0.62388235 -0.052186318 -0.77977395 
0.53725535 0.52377677 -0.6610708 
0.31078914 0.41789556 -0.8536822 
0.38394248 -0.7969824 -0.4662696 
0.8823667 -0.441022 -0.16409919 
0.59776807 -0.41697225 -0.68469524 
0.307443 -0.57960224 0.7546789 
0.06205834 -0.7839141 0.61776 
-0.10138096 -0.21144368 0.9721181 
0.5506772 -0.627517 0.55043364 
-0.4104567 -0.46452555 -0.78469193 
-0.93503964 0.11736398 -0.3345543 
-0.5392539 0.028078118 -0.84167504 
-0.32963493 -0.5598815 -0.76018 
0.45155266 0.04326512 -0.8911949 
0.59243906 0.11430264 -0.79746526 
0.3561223 0.044498216 -0.93337923 
0.23731734 -0.1110796 -0.9650606 
-0.471883 0.85159355 -0.22828671 
0.031128403 0.91405696 0.40438956 
-0.52175653 0.587214 -0.6188294 
0.02359201 0.4261503 -0.9043447 
-0.44364542 -0.44305843 -0.77902377 
-0.17445932 -0.04477246 -0.98364604 
-0.18004383 -0.43455526 -0.88246584 
0.08036093 -0.57646674 -0.8131595 
-0.07327763 -0.70417833 -0.7062318 
-0.20886816 -0.6415607 -0.7380881 
-0.10346825 -0.1442381 -0.98411876 
0.028636942 -0.70043874 -0.7131378 
0.046364535 -0.82645243 -0.5610943 
-0.23179752 -0.5833764 -0.7784228 
0.15959369 -0.81300235 -0.55996174 
0.014245582 -0.92344743 -0.38346043 
-0.6304585 -0.71382433 -0.30492145 
-0.33611712 -0.42357004 -0.84119785 
-0.32479647 -0.74315363 -0.5850043 
0.48042938 -0.72108316 -0.49922615 
-0.018737279 -0.8672748 -0.497477 
0.36307406 -0.8693626 0.33524022 
0.45289654 -0.6441191 -0.61643773 
-0.019814467 -0.89013916 -0.45525783 
0.030277211 -0.6398294 -0.7679203 
0.052060507 -0.8043048 -0.59193206 
0.73585665 -0.6505277 0.18795937 
0.9240807 -0.3783065 -0.0543978 
0.28504354 -0.94016284 0.18666556 
0.6802771 0.09969471 -0.7261433 
0.06498853 -0.6424319 -0.7635822 
-0.7491249 -0.15070723 -0.64505756 
0.6229458 -0.06392271 -0.7796489 
0.30446744 -0.6774572 -0.6695905 
0.36623335 -0.72031254 -0.5890866 
-0.22083077 -0.61886835 -0.7538141 
-0.10279353 -0.6641463 -0.74050206 
0.34365144 -0.82396966 -0.45053062 
0.61999744 -0.71924347 -0.31351572 
0.4579846 -0.40468493 -0.79150516 
0.2869545 -0.5900001 -0.7546901 
0.41666445 0.024359686 -0.90873396 
0.42432624 -0.29748616 -0.8552481 
0.058549523 -0.85789376 -0.5104804 
-0.063819215 -0.94089437 0.33263358 
-0.40170226 -0.91576296 -0.0036901203 
-0.30956763 -0.29791304 -0.9030037 
0.28952435 -0.5395872 -0.7905829 
0.25940588 -0.8780111 -0.40225005 
-0.028145822 -0.89088714 -0.45335186 
-0.05662654 -0.9885264 0.1400328 
-0.6487432 -0.6792102 0.34322864 
-0.22796342 -0.002740356 -0.97366583 
0.24411716 -0.03907403 -0.96895826 
-0.7848587 0.54780096 -0.28967386 
-0.10100577 -0.09196754 -0.99062604 
-0.1425498 -0.17433538 -0.9743135 
-0.14448908 0.009539187 -0.9894604 
0.88390744 -0.1243588 -0.45082438 
0.8100139 -0.37671828 -0.44940057 
0.6818814 -0.72936964 -0.055295568 
-0.3754707 -0.86004025 0.34547463 
-0.24331288 -0.95635974 0.16178696 
-0.10948638 -0.984388 -0.13781583 
-0.01132976 -0.99417824 -0.10715142 
-0.47302887 -0.6172625 -0.62867385 
0.7380908 -0.57983154 -0.34498897 
0.45974737 -0.3510518 -0.8157176 
0.49746954 -0.1670857 -0.85123813 
0.39805886 -0.36465552 -0.8417694 
0.09572088 -0.41645244 -0.90410453 
0.5905556 -0.19718914 -0.78253466 
0.945556 -0.10589867 -0.30774894 
0.73151135 -0.3760079 -0.5687788 
0.39146742 -0.91537696 0.09401333 
0.56616515 -0.5249235 -0.6355411 
-0.078263946 -0.7893886 -0.6088847 
-0.3075723 -0.9474729 -0.087718874 
-0.46879226 -0.82715994 -0.3099036 
-0.5350191 -0.79023856 -0.29879364 
-0.19003156 -0.35596818 -0.9149725 
0.277386 -0.6029899 -0.74797076 
-0.19101351 -0.46394628 -0.86502475 
0.737447 0.15957902 -0.6562823 
0.15323478 0.22814654 -0.96149284 
0.5972435 0.060590938 -0.7997682 
0.86962634 0.36533374 -0.33208635 
0.42170423 0.90635383 -0.026235005 
-0.3983718 0.8810015 -0.2552184 
0.51561654 0.49817947 -0.69710606 
0.3402488 0.2721307 -0.90009755 
0.25315857 0.57429034 -0.7785252 
0.5153835 0.20831002 -0.83125615 
0.7445234 0.05483585 -0.66534054 
0.0337996 -0.5153354 -0.85632193 
-0.58218205 -0.15348445 -0.7984401 
-0.37055156 -0.13871635 -0.918395 
-0.6634549 -0.012273752 -0.7481156 
0.0009918343 0.039708573 -0.9992109 
0.13498895 0.058683023 -0.98910785 
0.21438672 0.19912188 -0.9562369 
0.011870769 0.1188151 -0.99284554 
-0.062823184 -0.39256546 -0.917576 
-0.10578766 -0.8424762 -0.52824515 
-0.0059583583 -0.31587428 -0.9487824 
0.508805 0.51210016 -0.69200504 
0.98959917 -0.014179946 0.14315186 
0.8866142 0.4575585 0.067493685 
0.9866526 0.07652021 0.14374067 
0.70266443 -0.108926825 0.7031342 
0.8431176 -0.13814029 0.51968265 
0.9778446 -0.18732451 0.09343196 
0.75507814 0.34884477 0.5551257 
0.22897193 0.5396618 0.8101463 
-0.12157848 -0.18188266 0.97577536 
0.09618676 -0.42439964 0.9003517 
-0.13451181 -0.57028395 0.81035966 
-0.0967459 -0.46136636 0.88191915 
-0.746655 -0.17293866 0.64233845 
-0.94618773 0.11367821 0.30299518 
-0.98926854 0.054796346 0.13544449 
-0.9648641 -0.14887728 -0.21650124 
-0.8379246 -0.21694556 -0.5008163 
-0.59662545 -0.11989918 -0.7935127 
-0.52045614 0.31250408 -0.79464877 
-0.8082211 -0.09585228 -0.58102596 
-0.55944645 0.34851393 -0.7520357 
-0.5409379 0.58216935 -0.6070132 
0.044032175 0.69987416 -0.71290773 
-0.63106287 0.50520426 -0.5886667 
-0.22673549 0.34344435 -0.9113929 
0.099081665 0.21434623 -0.97171944 
0.13145669 0.7049945 -0.6969232 
0.6689599 0.006488234 -0.7432703 
0.028480956 -0.82242274 -0.56816334 
0.018563299 -0.99557763 -0.092090555 
0.22285338 -0.93564266 -0.2736956 
-0.42977104 -0.76154196 -0.48512965 
-0.27933237 -0.82966083 -0.4833595 
-0.19206731 -0.7772058 -0.5992173 
-0.1461647 -0.70797575 -0.6909459 
-0.34763232 -0.8534983 -0.38819122 
-0.80816907 -0.13815597 -0.5725171 
-0.65633124 -0.5388578 -0.52807343 
-0.90539217 -0.25123516 -0.3422659 
-0.70401776 0.27972662 -0.65277267 
-0.16319604 -0.50588304 -0.8470239 
-0.13671233 -0.73907936 -0.65959954 
0.26250777 -0.84889436 -0.45876822 
-0.012617575 -0.9071782 -0.4205575 
-0.09792707 -0.6214117 -0.7773403 
-0.56745654 -0.78386235 -0.2520969 
-0.20301542 -0.9517889 -0.22996227 
0.28958502 -0.9461114 -0.14496127 
-0.34096736 -0.93982506 0.021684105 
0.09808553 -0.8822617 0.46042767 
0.017834572 -0.99135244 -0.13000901 
-0.0777325 -0.55177784 -0.8303608 
-0.083235644 -0.82579273 -0.5577978 
0.2367445 -0.5899216 -0.7719745 
0.3130962 -0.72094 -0.61823654 
-0.64998746 -0.49817577 -0.5738791 
0.14273742 -0.3361052 -0.9309454 
-0.14750345 -0.51549906 -0.8440993 
0.038079742 -0.6622517 -0.7483132 
0.7165776 -0.01856831 -0.6972602 
0.38412374 -0.5333257 -0.7536662 
0.764286 -0.27037263 -0.5854619 
0.66516644 -0.57581663 -0.47538286 
0.39755386 -0.39531484 -0.8280562 
0.0508526 -0.9852568 -0.16334923 
0.41932178 -0.8418333 -0.33983237 
0.13816296 -0.83786815 -0.52809846 
0.38640153 -0.5401526 -0.7476156 
0.4764427 -0.87919706 -0.0038791515 
0.57953405 -0.8096565 0.0927189 
0.39467472 -0.913174 -0.10171121 
0.573937 -0.8188186 -0.011512527 
0.77551645 -0.5755363 -0.25948462 
0.86613166 -0.46465927 0.18414089 
0.8575864 -0.468359 -0.21256906 
0.60054725 0.12875262 -0.78915507 
0.543597 0.30668643 -0.78131026 
0.666298 0.044370286 -0.7443644 
0.70255345 -0.61002016 -0.36646175 
0.20059176 -0.86170876 -0.4660697 
0.01451544 -0.39688602 -0.91775316 
0.5999239 -0.051178437 -0.7984186 
0.9427323 -0.26413158 -0.20369208 
0.4052356 -0.9141756 -0.008190425 
0.06487603 -0.96982133 -0.23502728 
0.7687858 -0.28687382 -0.5715522 
0.7290479 0.51595443 -0.44975582 
0.64881074 0.27246284 -0.71049887 
0.021753874 0.6742103 -0.738219 
0.04881805 0.3973846 -0.9163528 
0.38831857 -0.38006118 -0.8395012 
0.09324213 0.05918975 -0.9938826 
-0.4698583 0.22955531 -0.85237175 
-0.6795098 0.20546313 -0.7043091 
-0.3897748 -0.33659762 -0.8571918 
-0.414263 -0.21944375 -0.88330674 
-0.48922944 -0.35919008 -0.79475605 
-0.31612578 -0.31886935 -0.89352494 
-0.08436547 -0.17729715 -0.9805346 
0.042131234 0.4332067 -0.9003093 
0.31502172 0.25559554 -0.9140198 
0.053842187 0.3129421 -0.9482449 
0.016769994 -0.34165534 -0.9396757 
-0.63181907 -0.3130219 -0.7090995 
-0.42384717 -0.8978622 -0.11915198 