# OOMMF: rectangular mesh v1.0
# Segment count: 1
# Begin: Segment
# Begin: Header
# Desc: Time (s) :  5.380000000000008e-07
# Title: m
# meshtype: rectangular
# meshunit: m
# xbase: 2e-09
# ybase: 2e-09
# zbase: 5e-10
# xstepsize: 4e-09
# ystepsize: 4e-09
# zstepsize: 1e-09
# xmin: 0
# ymin: 0
# zmin: 0
# xmax: 1.024e-06
# ymax: 1.024e-06
# zmax: 1e-09
# xnodes: 256
# ynodes: 256
# znodes: 1
# ValueRangeMinMag: 1e-08
# ValueRangeMaxMag: 1
# valueunit: 
# valuemultiplier: 1
# End: Header
# Begin: Data Text
0.28851712 -0.7613029 -0.58066845 
0.15818909 -0.10278092 -0.98204494 
0.21423334 -0.9742208 -0.0706963 
-0.8552859 -0.42483887 0.2966448 
-0.90678674 0.33646736 0.25402257 
-0.28240904 -0.2082771 -0.9364111 
0.18563527 -0.79009736 -0.58419687 
0.59670055 -0.22733115 -0.76959014 
0.7783087 -0.6168309 0.11728278 
0.49736732 -0.86545473 0.060115237 
0.89921546 0.06777215 -0.43222502 
0.8424144 0.38373187 0.3782696 
0.33261532 0.83803636 0.43250704 
0.53656864 0.57673055 0.61601627 
0.062127445 0.4188992 0.9059049 
-0.28932434 0.20465288 0.93509823 
-0.78376496 0.3802037 -0.49107823 
-0.2779379 0.24057415 0.92998636 
-0.5915453 0.11364171 0.79822296 
0.77421635 -0.49143103 0.3988542 
-0.006982716 -0.7478732 0.663805 
0.12786774 -0.83987105 -0.52750987 
0.0145450095 -0.99144495 -0.12971257 
0.4710979 -0.8792138 0.0710639 
-0.07536305 -0.7970617 0.5991771 
-0.112686746 -0.7729426 -0.6243889 
-0.4195014 -0.9069066 0.039232343 
-0.20978314 -0.89930445 0.38372183 
-0.43769166 0.1151978 0.8917149 
-0.45149958 -0.7250788 0.52000856 
0.17217067 -0.9850059 0.010982863 
0.2851351 -0.6575997 0.697324 
-0.7171641 -0.34949744 -0.6029323 
-0.39627475 -0.8575702 -0.32793248 
-0.5260655 -0.81890416 -0.22945824 
-0.51390195 -0.35146543 -0.7825452 
0.013379636 -0.92355734 -0.3832268 
0.4016587 -0.85386384 0.33103898 
-0.15985619 -0.98614544 -0.04430863 
0.057930436 -0.21161185 -0.9756355 
0.052330866 -0.68758965 -0.7242114 
0.15698783 -0.7125238 -0.6838602 
0.27161288 -0.9218903 -0.27630574 
0.22019838 -0.91911787 0.32670352 
0.23082204 -0.51149166 -0.8277061 
0.27803737 -0.050565332 -0.9592385 
0.42615777 -0.6816926 -0.5947141 
0.9168419 0.062196087 -0.3943762 
0.1185185 -0.45928538 0.88034666 
-0.3292916 0.19431664 0.92401737 
-0.63556033 -0.4093958 0.6545671 
-0.46134064 -0.84873694 0.25847715 
-0.32961723 -0.9321281 0.14996558 
-0.9865511 -0.07850769 -0.14336497 
-0.6652126 0.03579313 -0.7457956 
0.0095299175 -0.17767607 -0.98404294 
0.1836276 -0.67467487 -0.71490896 
-0.4689987 -0.8702458 0.1507065 
-0.5017358 -0.8650117 0.004018422 
-0.5360292 -0.6003337 -0.5935253 
-0.38698867 -0.2759004 -0.8798402 
-0.1419816 -0.813153 -0.5644673 
-0.93291414 0.30911297 0.1847169 
-0.9214261 -0.37247616 0.110613845 
-0.6765742 -0.42335525 -0.60250956 
0.18963468 -0.118711896 -0.97465193 
0.52210367 -0.024602862 -0.8525272 
0.4576533 -0.43064713 -0.77787954 
0.25916803 0.2650216 -0.9287603 
-0.16648762 -0.18013224 -0.96945053 
-0.45003077 -0.61168325 -0.6506274 
-0.4999232 -0.3523351 -0.7911618 
-0.680268 -0.384415 -0.6240678 
0.43450356 0.02792319 -0.90023726 
0.2120374 -0.2933606 -0.93219084 
0.14962208 -0.46151006 0.87442654 
-0.44522113 -0.8877712 -0.11679304 
-0.6120186 -0.77638555 -0.1505289 
-0.8544047 -0.1200158 -0.50555795 
-0.79548806 0.36382642 -0.4845918 
0.21695234 0.06325937 -0.97413033 
0.3185938 -0.21409385 -0.9233969 
-0.27507794 0.3835194 -0.88161504 
-0.13278058 0.26174408 -0.9559599 
0.18291369 -0.44757438 -0.8753398 
-0.14587647 -0.6593412 -0.7375563 
0.03937789 -0.7462243 -0.66452897 
0.24344742 -0.93820006 -0.24599603 
0.2991971 -0.8730934 -0.38495326 
0.92466396 -0.36935687 -0.09258578 
0.54771847 0.42283463 0.72195256 
0.41734093 -0.16645147 0.8933759 
-0.30045938 -0.5622455 0.7704571 
0.21429203 -0.77114767 0.5995084 
0.74988824 -0.60943377 0.25740674 
0.58515054 -0.21456088 0.7820246 
0.6902402 -0.64328486 -0.33129025 
0.84004724 -0.45670956 -0.29280886 
0.8839214 0.2323177 -0.4058468 
0.7098185 0.31938466 0.62781465 
-0.36405498 0.6204638 0.69461405 
-0.2929769 0.16208725 0.9422804 
-0.6451951 -0.502582 0.57544297 
-0.69307643 -0.23943946 0.67993665 
-0.6832533 -0.5406901 0.49073324 
-0.19960569 -0.69933015 0.6863636 
-0.3168393 -0.92421377 -0.21317098 
-0.024735201 -0.7716417 -0.6355765 
0.6249469 -0.77730584 0.07236758 
0.74239373 -0.6674525 0.057955097 
0.40700004 -0.38407204 0.8287579 
0.06109277 -0.5807391 0.81179416 
-0.738578 0.22685646 0.63485336 
-0.64739347 -0.43418276 0.6263922 
-0.339276 -0.90586776 -0.2535655 
-0.58128315 -0.715056 -0.38833618 
-0.24757327 -0.56165564 -0.78946215 
0.2404212 -0.4904266 -0.83766305 
-0.12303933 -0.86670154 -0.48341468 
-0.025144534 -0.8925984 -0.45015106 
0.2713616 -0.95050716 0.15132406 
0.56317925 -0.7149741 0.4142961 
0.52891076 -0.6051251 0.5950438 
0.48899576 0.29943913 0.81927985 
-0.25279778 0.34774575 0.9028656 
0.2746778 0.3913241 0.8783039 
0.48457447 -0.0069799297 0.8747221 
-0.2992072 0.08821486 0.9501017 
-0.60945064 -0.7040177 0.36459446 
-0.3480619 -0.32413557 0.8796529 
-0.86427164 -0.2812175 0.41707462 
-0.8517954 -0.5230869 0.028717449 
-0.15522157 -0.60677946 -0.7795673 
-0.5705275 -0.3174859 -0.75743073 
-0.16869321 -0.8729187 -0.4577725 
0.37835494 -0.8951652 -0.23564114 
0.6601867 -0.6300949 -0.4088202 
0.13135672 -0.92656887 0.3524422 
-0.007529799 -0.7747899 0.632174 
-0.2968469 -0.6975252 0.65218145 
-0.07877267 -0.21575597 0.9732648 
0.115979254 0.3560682 0.9272348 
-0.23543005 0.5340144 0.8120353 
-0.38584626 0.23798032 0.89134055 
-0.4079925 0.5364848 0.7387328 
-0.8145043 -0.48629206 0.31639004 
-0.9559591 -0.19342284 0.22074848 
-0.84291375 0.016471237 -0.53779674 
-0.27067658 -0.5357809 -0.7997957 
0.4985836 -0.5818035 -0.64258784 
0.08130254 -0.4564764 -0.8860131 
-0.33584648 -0.6677835 -0.6642834 
0.28769454 -0.77715486 -0.5596983 
0.36253166 -0.06270454 -0.9298597 
0.62431496 -0.36317083 -0.69161975 
0.40031 -0.74863786 -0.5284821 
0.46795917 -0.5228351 -0.7125011 
0.6885833 -0.7152441 0.11949479 
0.82613176 -0.448276 -0.34140167 
0.36904725 -0.18505119 -0.91080195 
0.2512178 -0.43608397 -0.8641299 
0.5024457 -0.86406016 0.03079809 
0.7318031 -0.36872137 -0.57315695 
0.71113074 0.18797514 -0.6774648 
0.36739218 0.75891364 -0.5376551 
0.33730826 0.65677637 -0.674439 
-0.32504243 0.6745181 -0.66285205 
-0.06863547 0.001923042 -0.99764 
-0.16982791 -0.63086647 -0.7570773 
-0.2572841 0.23542424 -0.9372195 
0.5564604 0.21627615 -0.80223215 
-0.020768434 -0.13182665 -0.99105525 
-0.33004856 -0.2080653 -0.920748 
-0.58565426 -0.30203643 -0.7521856 
0.33053458 -0.55686724 -0.76200116 
0.9589173 0.10097635 -0.26510635 
0.7959922 -0.5514254 0.24965273 
0.6820976 -0.34349158 0.64556676 
0.7916322 -0.61028993 0.029408216 
0.8193591 -0.31912646 0.47624475 
0.3932466 -0.4787132 0.7849783 
0.6222483 -0.39458168 0.67610085 
-0.073245406 -0.3789918 0.92249674 
-0.022822808 -0.35590187 0.9342447 
-0.13711275 -0.61041194 0.7801265 
-0.06337456 -0.65252084 0.75511605 
0.0009303329 -0.5213687 0.85333115 
0.5452901 -0.22969355 0.8061635 
-0.64059067 -0.7319825 0.23204565 
0.113417156 -0.97909445 0.1688514 
-0.67689055 -0.675728 0.29190913 
-0.12284971 -0.99241996 0.0032657187 
-0.48953825 -0.8675081 -0.08821619 
-0.37651226 -0.59383756 -0.7110524 
-0.3154462 -0.5454394 -0.77652407 
-0.15549867 -0.4154702 -0.8962169 
0.25159886 -0.6362045 -0.72934353 
-0.32425836 -0.15337032 -0.93345284 
-0.12536858 -0.481329 -0.8675282 
-0.49115083 -0.652256 -0.57734996 
-0.81107527 0.5802033 0.074304335 
-0.51857936 0.8467647 0.11859667 
0.3237785 0.659831 -0.67807865 
-0.0025953185 -0.15206966 -0.9883664 
-0.08650785 -0.8211718 -0.5640863 
0.46040308 -0.8707474 -0.1727082 
-0.1599618 -0.96804583 0.19313061 
0.52246547 -0.66792274 -0.5300087 
0.62134147 -0.062185332 -0.7810683 
-0.6502997 -0.48359832 -0.5858694 
-0.17799866 -0.31086528 -0.9336377 
-0.7906124 -0.2531263 -0.5575475 
-0.64871985 -0.11331037 -0.7525447 
0.5476845 -0.36439654 -0.7531646 
-0.33298862 -0.061255407 -0.9409391 
0.12366098 -0.79578996 -0.5928123 
-0.282941 -0.89180744 -0.35302112 
0.7263677 -0.610769 -0.31520042 
0.7603382 -0.56862247 0.3139338 
0.59163374 -0.6933757 -0.41133898 
0.24839792 -0.86568666 -0.43460906 
-0.457062 -0.82612747 -0.32955697 
-0.081844755 -0.80697465 -0.58488756 
-0.0047797184 -0.40483811 -0.91437596 
-0.28200066 -0.7833091 -0.55398774 
0.06270407 -0.030678844 0.99756056 
0.26058823 -0.06361759 0.96335185 
-0.3875583 -0.36526385 0.8463928 
-0.4232316 -0.37469274 0.8249123 
-0.45045665 -0.32856816 0.8301396 
-0.9300631 0.28065407 0.23709914 
-0.97749186 0.17322344 -0.12043 
-0.59624225 0.001897854 -0.8028023 
0.20100084 -0.2068597 -0.9575009 
-0.24642602 -0.9628099 0.11077561 
-0.3923892 -0.86694825 0.30729687 
-0.21629895 0.02572841 -0.9759881 
0.3751185 -0.5591079 -0.73938125 
0.6640661 -0.50004345 -0.55585325 
0.4711083 -0.8806293 -0.050490044 
0.06843488 -0.9672041 -0.24460803 
0.47108415 -0.8698734 -0.14628756 
-0.060949992 -0.7411445 0.66857314 
-0.45609325 -0.77956516 -0.42925206 
-0.040558342 -0.83853203 -0.54334074 
-0.33432525 -0.92199916 -0.1953055 
0.4042254 -0.28002372 -0.87074023 
0.90903133 -0.106520995 -0.40288404 
0.63036424 -0.15827878 0.7599927 
0.70928204 -0.13190775 0.69247335 
0.8386272 -0.39618525 0.37382042 
0.8671008 0.18644479 0.4619251 
0.93496096 -0.2775041 0.22099651 
0.7170314 -0.46838632 0.5162173 
-0.10004888 0.3832969 0.91819054 
0.088923045 -0.1432086 0.98568964 
0.06922424 0.4871033 -0.8705965 
-0.20429258 0.2338799 -0.9505602 
-0.1084301 -0.99177015 -0.06808097 
-0.043851167 -0.9068194 -0.41923237 
-0.21607962 -0.6583494 -0.72103107 
-0.3843079 -0.21089745 -0.8987935 
-0.44816154 -0.38307664 -0.80771506 
0.03364214 -0.37523228 -0.92632014 
0.28786525 -0.06569497 -0.95541495 
0.87392557 -0.37945023 0.30376235 
0.7164201 -0.30421993 0.6278476 
0.6796606 0.3712842 0.6326212 
0.7812457 0.6109178 0.12819795 
0.85140514 0.3492155 0.39135388 
0.25146434 0.7070955 0.6608946 
-0.74525106 0.0728023 0.6627977 
-0.81464434 0.4305568 0.3885557 
-0.8629469 0.46652973 0.19409476 
-0.912672 0.04603904 0.4060917 
0.50345147 -0.6818091 -0.5307288 
-0.13390692 -0.9222668 -0.36261973 
0.21967117 -0.9492604 -0.22505412 
0.15035452 -0.80944467 -0.5676204 
0.8793254 -0.42149895 -0.22164318 
-0.28621283 -0.951599 0.11198942 
-0.079583175 -0.9287793 -0.36198828 
0.5386552 -0.81188136 -0.22516516 
-0.18739443 -0.710966 0.6777985 
-0.72244024 -0.6840291 0.10091754 
-0.8451689 -0.41562685 0.33607134 
-0.4708537 -0.8549764 0.21751364 
-0.12827815 -0.45529628 0.8810505 
-0.49398866 -0.6458722 0.5820862 
-0.11772425 -0.84278816 -0.5252135 
-0.43189657 -0.8194953 0.3766868 
-0.53181493 -0.77007633 -0.352357 
0.17915878 -0.72284645 -0.6673793 
0.27699363 -0.9438166 -0.18023537 
-0.05331537 -0.70469075 -0.7075087 
-0.35020477 0.096797824 -0.9316581 
-0.21558976 -0.37690732 -0.90081185 
-0.35293713 -0.029430429 -0.93518406 
0.5354172 0.24096392 -0.80948424 
0.5454038 0.05661215 -0.8362594 
0.10406119 -0.39500305 -0.9127672 
-0.06481159 -0.043937027 -0.99692976 
0.8154806 -0.086652644 -0.57226104 
0.9309353 -0.0249328 -0.36433202 
0.16705339 -0.73432857 0.65791696 
-0.24294195 -0.7219998 0.64783907 
-0.93382764 -0.25281754 0.25307968 
-0.8298043 -0.15750027 -0.53536785 
-0.89200246 -0.30481946 -0.33379164 
-0.8932119 -0.21999821 -0.39213964 
-0.29723433 0.068424895 -0.95234966 
-0.22072938 -0.57301164 -0.78926307 
0.5339953 -0.2706464 -0.8009992 
0.40141726 -0.8661869 -0.2976315 
-0.73596793 -0.2907143 -0.6114217 
-0.59579486 -0.1608033 -0.7868741 
-0.28770307 0.15511394 -0.9450749 
0.5123193 -0.6079206 -0.60659826 
-0.2758784 -0.016446339 -0.9610518 
-0.23135425 -0.16799285 -0.9582555 
-0.21469817 -0.6476343 -0.7310777 
0.13096175 -0.5970727 -0.79142493 
0.18120715 -0.53236073 -0.82689553 
0.43080375 0.14699878 -0.890393 
-0.054234434 0.35217482 -0.93436164 
-0.13292207 0.56409943 -0.8149379 
-0.14771527 0.31194904 -0.93854576 
-0.10731897 0.013611548 -0.9941315 
-0.057862516 -0.12121564 -0.9909383 
0.48492932 0.6258322 -0.61088264 
0.49977025 0.38986823 -0.7734549 
-0.24700609 -0.965914 0.07744816 
-0.0662171 -0.79660875 -0.60085756 
-0.88773143 -0.42241952 0.18301585 
-0.9752904 -0.20963237 0.06973418 
-0.8222291 -0.4292627 -0.37372854 
-0.4337003 0.1847059 -0.8819229 
0.15492357 0.2914768 -0.9439492 
-0.22165363 -0.01173875 -0.97505486 
0.06411261 -0.33211178 -0.9410587 
0.32132307 -0.43077067 -0.84331965 
-0.53832024 -0.3914011 -0.74633545 
-0.22671606 -0.45950496 -0.858752 
-0.47570634 -0.8480924 -0.2333303 
0.003793359 -0.93935513 -0.3429252 
0.21170042 -0.9766218 0.03732128 
0.14969805 -0.110218555 0.98256934 
-0.32755604 -0.71527845 0.61731994 
-0.16855986 -0.64698553 0.7436379 
0.3649478 -0.48958403 0.7919095 
0.14318609 -0.7129215 0.6864698 
0.4894647 -0.8456043 0.2130209 
0.5922855 -0.60647756 0.53045547 
0.7148585 -0.45959985 -0.52701557 
0.7327233 0.2935226 0.6139716 
0.24860848 -0.02616315 0.96825063 
-0.14267689 -0.1394441 0.97989726 
0.18058054 -0.15491581 0.9712836 
-0.46343583 -0.5121067 0.7231694 
-0.9546283 -0.2522126 -0.15834723 
-0.46208102 -0.88243145 -0.088295035 
-0.3887006 -0.5228079 0.7586724 
-0.5317441 -0.603796 -0.59386754 
-0.2585642 -0.61955 -0.74114937 
0.2673566 -0.7793804 -0.5666451 
0.09788411 -0.63944906 -0.76257706 
-0.021019414 -0.9994952 0.02382595 
-0.21564376 -0.61236745 0.7605945 
0.5611255 -0.48607644 0.669976 
-0.14419161 -0.83496714 0.53107303 
-0.47164172 -0.70164907 -0.5340813 
-0.14991045 -0.88621444 -0.43835023 
-0.54135436 -0.69670564 -0.47067687 
-0.32200417 -0.64589375 -0.69219553 
0.20271437 -0.8552535 -0.47691533 
0.000184488 -0.8585301 -0.51276314 
0.6430818 -0.7595808 0.09738089 
0.41162148 -0.79891485 0.43852335 
0.56646574 -0.2802675 0.7749624 
0.6584088 -0.36165276 0.66007966 
0.41137078 -0.4094074 0.8143463 
-0.31211945 -0.21887961 0.92448545 
-0.09813678 0.48122686 0.8710855 
-0.28402227 -0.038594015 0.9580407 
-0.6475432 -0.28087708 0.7083755 
-0.9721881 -0.22815683 0.052865744 
-0.9037803 -0.14427952 0.4029449 
-0.6873068 -0.70679134 0.1674974 
-0.532845 -0.8438827 0.06275619 
-0.45734918 -0.8647068 -0.20763856 
-0.29386622 -0.4458757 -0.8454807 
-0.19529557 -0.45517024 -0.86872315 
0.418803 -0.84112966 -0.34220585 
0.22209494 -0.97144824 0.083439775 
0.18221556 -0.70823866 0.68205243 
0.14767186 -0.69244367 0.7061975 
0.4281578 -0.7489931 0.50565827 
0.3770426 -0.25512168 0.89036614 
-0.2100394 -0.10702086 0.971818 
-0.31086376 0.5400384 0.7821267 
-0.774606 0.03373317 0.6315439 
-0.6532983 -0.669936 -0.35268554 
-0.34457907 -0.19111069 -0.9190985 
-0.35442495 -0.3481815 -0.86784375 
0.3658694 0.21130934 -0.90635973 
-0.21290813 -0.22296426 -0.9512924 
-0.36088347 0.15684365 -0.9193277 
-0.19861187 0.47846314 -0.8553516 
-0.31281817 0.28073728 -0.90737605 
0.00396442 0.99977 -0.02107716 
0.80210495 0.29581267 -0.5187703 
0.4389612 -0.42777368 -0.79014105 
0.9963013 -0.08550638 -0.008513424 
0.837854 -0.4248689 -0.3427642 
0.8137742 -0.5759531 0.07777956 
0.43247643 0.061152223 -0.89956915 
0.68572026 0.07220081 -0.7242754 
0.75516456 -0.6234011 0.20272537 
0.7334143 -0.6324047 -0.24933471 
0.9437087 0.031965084 -0.32922974 
0.28761348 0.9019578 -0.3221036 
0.2431987 0.9670696 -0.075037904 
0.0913071 0.9124812 -0.39879957 
-0.1990454 0.12235224 -0.9723224 
-0.23926984 -0.26336798 -0.9345519 
0.053401187 0.3319556 -0.9417823 
0.41769543 -0.26053378 -0.87043256 
0.32189283 -0.07160807 -0.94406426 
0.26895106 -0.6150944 -0.7411641 
-0.6903022 -0.35617512 -0.62977946 
0.01591174 -0.19491152 -0.9806918 
0.58201736 0.74151903 -0.33377436 
0.87558705 -0.40629652 -0.26128635 
0.2746023 -0.86788076 -0.41397646 
0.55551445 -0.76346684 -0.32942703 
0.56904566 -0.8222519 -0.009423395 
-0.548888 -0.7865349 0.28299257 
-0.4617884 -0.5778473 0.6729369 
0.021369608 -0.77294797 0.6341095 
-0.2637034 -0.58022636 0.77058285 
0.27577648 -0.7397304 0.6137966 
-0.33740327 -0.9406564 0.036396865 
0.1300077 -0.95869595 -0.25298274 
0.30426446 -0.9479812 -0.09356795 
0.34843263 -0.90463537 0.24541728 
0.22365268 -0.9567841 0.18585959 
-0.34800693 -0.87577194 -0.33453655 
0.076820165 -0.15137148 -0.98548734 
-0.52429956 -0.6849978 -0.5058537 
-0.15911403 -0.71634173 -0.67936534 
-0.3608262 -0.40090737 -0.84206754 
-0.65471995 -0.05483836 -0.7538797 
-0.60182863 -0.45802915 -0.654226 
-0.020581516 -0.6107928 -0.7915229 
-0.16009256 -0.5770369 -0.80087376 
0.3011289 -0.25399956 -0.9191332 
-0.12698796 0.18699303 -0.974119 
0.61010283 0.4965404 -0.617432 
0.11314351 0.85538274 -0.5054888 
-0.43631837 -0.27139834 -0.85788655 
0.048102967 -0.88429904 -0.46443662 
0.49256587 -0.7839985 -0.37778997 
0.36115363 -0.6668406 -0.6518372 
-0.19082403 -0.6457708 -0.73930126 
0.19987936 -0.35072526 -0.91489893 
0.23635677 -0.6080274 -0.7579171 
-0.44943774 -0.15979014 -0.8789044 
-0.5463424 -0.80486673 -0.23173198 
-0.050539926 -0.82304853 -0.56571794 
-0.031938195 -0.5199645 -0.85359067 
-0.77173 -0.3415458 -0.53645056 
0.12521257 -0.9913264 0.039923616 
0.15781192 -0.9862939 0.048163727 
0.3284401 -0.93665457 0.12167693 
0.6129418 -0.68043905 -0.4016281 
0.9013381 -0.40856555 -0.1437494 
-0.030816425 -0.61803657 -0.78554523 
0.21849509 -0.828327 -0.515882 
0.7267768 -0.580548 -0.3670963 
0.057475522 -0.19930942 -0.97824967 
0.4984675 -0.15190853 -0.8534951 
0.9265025 -0.103148386 0.36187506 
0.67789865 -0.0731595 0.73150617 
-0.07397572 -0.5639433 0.82249355 
0.07275567 -0.65218043 0.7545643 
-0.17077667 -0.5449412 0.8208986 
-0.8799965 -0.18368004 0.43802735 
-0.92918664 0.13163172 0.3453773 
-0.9254834 0.16895913 -0.33901826 
0.53331685 0.08580441 -0.8415527 
-0.00011732414 -0.6546034 -0.7559725 
-0.08327075 -0.81482905 -0.5736896 
-0.12075906 -0.8773541 -0.46439987 
0.041590165 -0.4728494 -0.8801612 
0.40268096 -0.60407233 -0.6877098 
0.6922354 -0.41394302 -0.59115255 
0.053972177 -0.6953247 -0.7166663 
0.2133059 -0.9470962 0.23981127 
-0.09161238 -0.9913467 0.09401641 
0.24732937 -0.92184716 -0.29837233 
0.24866991 -0.7480806 -0.61525494 
-0.7640508 -0.27923882 -0.5815945 
0.5630782 -0.56468093 -0.6033891 
0.4069426 -0.62599707 -0.6652259 
0.8692446 -0.34652156 -0.3526142 
0.9560071 -0.28870842 -0.05194085 
0.69109166 -0.6983394 0.18631816 
0.682952 -0.6863022 0.25013182 
0.9056557 -0.31127322 0.28791815 
0.64910656 -0.008174262 0.7606536 
0.44143605 0.4860091 0.7542742 
0.38398245 0.1545461 0.91031474 
-0.098167345 -0.007343543 -0.9951428 
-0.2885446 -0.4689708 -0.8347506 
-0.20579098 -0.79865927 -0.5655029 
-0.46584955 -0.72911924 -0.5013675 
0.12847966 -0.8041689 -0.5803494 
0.28063336 -0.94543535 -0.16552049 
0.32551658 -0.2251591 -0.9183368 
0.45223692 0.27085724 -0.8497754 
0.7122901 -0.22369184 -0.6652855 
0.95983595 -0.23081651 -0.15949507 
0.9706933 -0.11627815 0.21031846 
0.59922636 -0.15067601 0.78627264 
0.54345196 0.48653084 0.68406713 
0.06764086 0.7598212 0.6466038 
-0.2260535 0.28846127 0.9304246 
-0.5788877 0.37283272 0.72517926 
-0.63076025 -0.17591532 0.7557747 
-0.92110676 0.17910536 0.34566402 
-0.8162563 -0.5324767 -0.22404097 
-0.11619242 -0.4884226 -0.86483693 
0.0077747023 -0.6268883 -0.7790705 
0.32553342 -0.6695587 -0.6676221 
0.043015514 -0.86857504 -0.4936872 
0.778118 -0.58285195 -0.23412806 
0.853005 -0.5037778 -0.13634719 
-0.0750458 -0.95361626 -0.29152048 
0.3802411 -0.7098492 -0.5929005 
-0.2641142 -0.92665774 -0.2674867 
-0.6473868 -0.65090334 0.3965038 
-0.21708718 -0.6045126 -0.766445 
-0.5833525 -0.76045203 -0.2853288 
0.05201929 -0.9281288 0.3686068 
0.44029254 -0.8656365 0.23836114 
0.42661706 -0.9004027 -0.08528212 
-0.33857158 -0.7742786 -0.5346607 
-0.49173066 -0.5525489 -0.67297155 
0.18407124 -0.7673263 -0.61427045 
-0.01707203 -0.3779775 -0.92565733 
0.04245802 0.2693106 -0.9621171 
0.2152147 0.060513865 -0.9746901 
0.040916562 0.027169013 -0.9987931 
-0.108438246 0.017135799 -0.9939555 
-0.26823252 0.6260329 -0.7322118 
0.1447735 0.29213783 -0.945355 
0.5681885 0.32388043 -0.7564809 
0.6500916 0.55217445 -0.52200043 
0.8615694 -0.45211408 -0.23084861 
0.95859164 -0.25974798 0.11676097 
0.43672583 -0.42801908 0.791246 
-0.69557506 -0.03152611 0.7177615 
-0.8119123 -0.53741145 0.22800739 
-0.968636 -0.00034193235 0.24848399 
-0.70562506 -0.7048913 0.0722607 
-0.91761583 0.060897324 -0.3927756 
-0.6736471 -0.0979289 -0.73253644 
-0.29327673 0.17460129 -0.9399485 
-0.18534192 -0.5918282 -0.78446656 
0.4268225 -0.3954947 -0.81326896 
0.27827612 -0.62534535 -0.7290443 
-0.5085692 -0.66190696 -0.5506694 
-0.23030424 0.027603751 -0.9727272 
0.5061326 -0.81128657 0.29265004 
-0.6799663 -0.2596682 -0.6857247 
-0.45644552 -0.010655768 -0.88968766 
-0.1656732 -0.54454833 -0.8222041 
-0.018960694 -0.07912063 -0.99668473 
0.09622424 -0.7048355 -0.70281434 
0.115870066 -0.45915347 -0.880768 
-0.29242283 0.3051189 -0.90630645 
0.5952069 0.7174022 -0.362026 
0.44626254 0.3501831 -0.8235422 
-0.3389956 -0.7084102 -0.6190615 
-0.30251536 -0.16138735 -0.9393821 
0.7346298 -0.10600317 -0.6701361 
0.48970458 -0.2575693 -0.8329751 
0.7553167 -0.6492041 0.08961446 
0.9090122 -0.24355216 0.33820015 
0.802255 -0.59449494 -0.054431014 
-0.7026618 -0.7094049 0.054874122 
-0.78225976 -0.58755964 -0.20698637 
-0.6633779 -0.4230793 -0.61719835 
0.07468049 0.5150552 -0.8538976 
0.20315959 0.38636637 -0.89969283 
0.27834672 0.06848785 -0.95803577 
0.71410114 -0.37950954 -0.5882449 
0.097790994 -0.5904041 -0.80116165 
-0.16442032 -0.15049236 -0.9748426 
0.004792119 -0.998779 0.04917064 
-0.22366655 -0.9144524 0.33726892 
0.19290957 -0.9807467 -0.030364541 
-0.23817189 -0.93282014 0.27040845 
-0.73835844 -0.611974 0.2833986 
-0.59742826 -0.68706346 0.41354966 
0.18912697 -0.89421284 0.40572715 
0.5141329 -0.7649498 -0.38796812 
0.72931486 -0.55088633 -0.40573892 
0.4955597 -0.7095495 -0.5009593 
0.984715 -0.16886336 0.04268168 
0.5395245 -0.38408035 0.74926347 
-0.21906546 -0.4564743 0.8623466 
-0.27593723 -0.6436355 0.7138572 
0.03314628 -0.77373266 0.6326447 
-0.7386023 -0.52223843 0.4263025 
-0.7255222 -0.026218144 0.68769926 
-0.7462833 -0.54395866 -0.38362777 
-0.6156133 -0.762381 0.19948825 
-0.43121603 -0.86755747 -0.24778414 
0.21707349 -0.47324744 -0.85376585 
0.34814098 -0.5907393 -0.72789085 
0.28946945 -0.4776999 -0.82946384 
0.37871546 -0.82718575 0.41513646 
0.4786302 -0.8155808 0.32517877 
-0.078297116 -0.94644284 0.31323388 
-0.72793996 -0.6855966 0.0078019705 
-0.57187015 -0.6077012 -0.551057 
-0.21797511 -0.537454 -0.81463504 
-0.6869943 -0.7262321 0.025017748 
0.119773 -0.6858944 -0.71777666 
-0.039257757 -0.65556157 -0.7541207 
-0.23040764 -0.41101468 -0.8820313 
0.07939426 -0.49089992 -0.86759084 
0.64336634 -0.7655152 -0.008139922 
0.62082684 -0.7385894 0.26279235 
0.5613906 -0.61755633 0.55087656 
0.5158969 -0.38178837 0.7668689 
-0.32280904 0.17784172 0.9296056 
-0.13959561 -0.41932303 0.8970403 
-0.62743753 -0.37533966 0.68223333 
-0.5412317 -0.7045651 0.4589731 
-0.6065757 -0.7797539 0.15507953 
-0.31413484 -0.31287193 0.8963429 
-0.12956616 -0.94602054 0.29708207 
0.55480516 -0.83161956 -0.024498211 
0.2709386 -0.94730824 -0.17087851 
-0.09148468 -0.7772637 -0.62248826 
0.6761593 -0.57740664 -0.45761365 
0.5729949 -0.5457072 -0.6114577 
0.7373127 -0.5799883 -0.34638664 
0.89237064 -0.12595971 -0.43336937 
0.23350626 -0.96668726 -0.10483707 
0.87218237 -0.0016659928 0.4891781 
0.06259188 -0.31381172 0.9474199 
-0.5432482 0.04456524 0.8383886 
-0.5001841 -0.00021167411 0.86591905 
-0.76605946 0.31788278 0.55866235 
-0.7684927 -0.47669578 -0.4268255 
-0.2838912 -0.8090035 -0.5147029 
0.17845802 -0.15672928 -0.971385 
0.20030536 0.1756686 -0.9638559 
-0.2532322 -0.16964579 -0.95241475 
0.33242336 0.17154823 -0.9273974 
-0.015024395 0.3380334 -0.94101423 
-0.20009518 -0.3169188 -0.92710537 
-0.1345244 0.8433752 -0.5202128 
-0.23292471 0.019807637 -0.9722931 
0.11994521 -0.73474765 -0.667652 
0.8433353 -0.118622795 -0.52413213 
0.92251706 0.26467997 -0.28090337 
0.348756 -0.11935138 -0.92958295 
0.8903567 0.45515838 -0.009796115 
0.938388 0.23586838 -0.2525751 
0.8257396 0.5452738 -0.14432834 
0.9873326 -0.15155374 0.046966635 
0.9453177 0.14050153 0.2943365 
-0.30440643 0.41840026 0.85573244 
-0.2667997 0.8423454 -0.46826515 
-0.043114156 0.96099204 -0.273195 
-0.3135275 0.9461905 -0.08015021 
-0.40943742 0.795408 -0.4468636 
0.10835736 0.40858626 -0.9062648 
-0.190711 0.71989447 -0.667369 
-0.02040355 0.044891723 -0.9987835 
0.26989612 -0.07182839 -0.9602066 
0.45692268 -0.09860569 -0.88402414 
0.24118882 0.50018054 -0.8316534 
-0.0050183847 0.59829867 -0.8012575 
0.40157765 0.19724625 -0.8943318 
-0.08170978 -0.9392451 -0.3333801 
0.9008271 -0.35162058 -0.25470302 
0.15821764 -0.97867614 -0.13099684 
-0.067629054 -0.9929003 0.09785357 
-0.76918584 -0.6367199 -0.054230683 
-0.4435841 -0.8379792 0.31784278 
-0.22202641 -0.8425776 0.49068055 
-0.07890475 -0.7970368 -0.59875405 
0.21918747 -0.6644503 -0.71446675 
0.29465267 -0.94472444 0.14378992 
0.23094815 -0.97279304 -0.018353442 
0.28723937 -0.86450195 0.4124681 
0.19195978 -0.97456264 -0.11566795 
0.122528076 -0.97512615 -0.18470478 
-0.058953162 -0.18884598 -0.9802355 
-0.673189 -0.17161414 -0.7192811 
-0.20118947 -0.5847502 -0.7858691 
-0.53601706 -0.19959272 -0.8202734 
-0.73062086 -0.36024946 -0.5800117 
-0.12385443 -0.13388576 -0.98322666 
0.4091606 -0.5954039 -0.69143456 
0.18357687 0.13739823 -0.97335577 
-0.7034152 -0.016105203 -0.71059674 
-0.62015474 -0.0023435995 -0.7844761 
-0.17099823 0.040809628 -0.98442584 
-0.035673954 0.12633671 -0.99134576 
-0.42809314 -0.2003116 -0.8812557 
0.7150892 -0.4119668 -0.56473964 
-0.41011143 -0.54371977 -0.7322414 
0.11423494 -0.3987585 -0.90991324 
0.27640024 0.13989769 -0.9508057 
-0.15196738 0.12083506 -0.9809714 
-0.35034502 -0.010180563 -0.93656546 
0.27192825 0.19106354 -0.94315946 
0.047660563 -0.5053554 -0.8615941 
0.3420153 -0.5661621 -0.7499907 
-0.18750738 -0.76611793 -0.6147393 
0.0064490056 -0.5967684 -0.80238765 
0.09570383 -0.97562385 -0.19748136 
0.7572738 -0.37932646 -0.5316464 
-0.009116183 -0.45316446 -0.8913804 
-0.0741752 -0.60957754 -0.78924865 
0.49903074 -0.8200271 -0.2802212 
0.4930632 -0.8593994 -0.13535711 
0.36941007 -0.78837997 -0.4919282 
0.65983045 -0.5309845 -0.5316759 
0.64424443 -0.31294814 -0.697863 
0.7580272 -0.3421236 -0.5552893 
0.96656245 -0.24243863 0.08355013 
0.89039695 -0.3214593 0.322269 
-0.1713016 -0.6532311 0.7375263 
-0.43486053 -0.48173136 0.7608097 
-0.07814907 -0.72719157 0.68197155 
-0.48897746 -0.52391833 0.6974315 
-0.97876185 -0.07071775 -0.192417 
-0.85957783 -0.19300607 -0.47315398 
-0.4927111 0.20743461 -0.8451076 
0.09197668 -0.06463064 -0.9936616 
0.18363115 -0.982971 -0.00691014 
-0.25438327 -0.8665166 -0.42946276 
-0.30427054 -0.8017421 -0.51442116 
0.23981078 -0.81987476 -0.5199002 
0.30197644 -0.64365995 -0.70321554 
-0.09235901 -0.7024654 -0.70569986 
0.32379967 -0.5394068 -0.7772992 
0.70783854 -0.69452363 -0.12884733 
0.003843823 -0.552699 -0.83337206 
-0.19835807 -0.17014416 -0.9652487 
-0.5513994 -0.66432476 -0.50461 
-0.1268268 -0.69644254 -0.7063164 
0.4887039 -0.85336596 0.18148023 
0.9053457 -0.42269832 0.040932383 
0.7540033 -0.65172625 0.082048275 
0.8108758 -0.4136272 -0.41399652 
0.8705629 -0.45974666 -0.17536642 
0.63259995 0.2502177 -0.7329451 
0.9624549 0.10982895 -0.24823 
0.56502473 0.71397966 0.41349754 
-0.112606764 -0.26070082 0.9588299 
-0.28348902 -0.47489557 -0.8331316 
-0.8988839 -0.25774476 -0.3543665 
-0.22156611 -0.2967326 -0.9289017 
0.40585613 -0.49836913 -0.7660998 
0.28509992 -0.17253563 -0.94284123 
-0.05941167 -0.51032835 -0.85792494 
0.19797155 -0.4388001 -0.87650543 
0.0114858085 -0.0073600784 -0.99990696 
0.5485056 -0.32385424 -0.7708828 
0.89281976 0.003951146 -0.45039696 
0.99685323 0.05927174 0.052636277 
0.72651947 0.12754554 0.67520493 
0.4697891 0.2722163 0.8397598 
-0.5298516 0.42521957 0.73378855 
0.1122126 -0.5082379 0.8538751 
-0.3473082 -0.008490242 0.9377126 
-0.7200799 -0.39682004 0.56922656 
-0.92915547 -0.2960554 0.2214076 
-0.6668781 -0.695091 -0.26855567 
-0.040946785 -0.1932524 -0.98029435 
-0.08149186 -0.5469063 -0.8332182 
-0.043663442 -0.5070225 -0.86082625 
0.6266785 -0.7784127 -0.036711402 
0.575846 -0.47389823 -0.66619956 
0.5287309 -0.8487895 -0.00019879722 
0.2995789 -0.7063529 -0.6413409 
0.0062223445 -0.7288208 -0.6846763 
-0.5135943 -0.7253137 -0.4584114 
-0.661391 -0.40482602 -0.6314095 
-0.11382031 -0.8969488 -0.4272327 
0.49323902 -0.60888696 -0.6212664 
0.42623812 -0.7160474 -0.5528085 
0.5906835 -0.42590192 -0.685347 
0.5098279 -0.5991156 0.6173622 
0.4024627 -0.6378279 0.65665776 
0.4740956 -0.58423936 0.6587092 
-0.42485675 -0.7900004 0.44203654 
-0.81573147 -0.5783611 -0.008989002 
0.03465003 -0.15943582 -0.9866001 
0.76797456 -0.35470876 -0.5332886 
0.94303554 0.069225356 -0.3254104 
0.39995039 -0.10431254 -0.9105814 
0.75862634 -0.014120879 -0.6513729 
0.43285972 0.19731696 -0.87960136 
0.8380142 0.01625638 -0.54540616 
0.7339247 -0.40523264 0.5451066 
0.47542965 -0.67420685 0.56516534 
0.15602508 -0.4012966 0.9025615 
-0.09288429 -0.6969639 0.71106535 
0.01796421 -0.22245705 0.97477704 
-0.24983355 -0.15396167 0.9559702 
-0.58171713 -0.44221824 0.6826772 
-0.96770513 -0.20347929 -0.1488049 
-0.95644933 0.28306147 -0.071281634 
-0.7607021 0.36401895 -0.5374221 
-0.73653656 0.3517155 -0.577763 
-0.3456471 -0.1347846 -0.9286341 
-0.024328254 -0.22103046 -0.9749635 
-0.3684231 -0.0537115 -0.9281054 
-0.48953232 -0.3437846 -0.80135524 
0.15542148 -0.26529124 -0.9515592 
0.2755572 -0.38006365 -0.8829608 
-0.19017266 -0.84180593 -0.50517046 
-0.32818538 -0.39788356 -0.8567281 
-0.008106473 -0.45511886 -0.89039385 
0.16666703 0.528231 -0.8325828 
0.5909086 0.18299381 -0.78571004 
0.23051365 -0.4567696 -0.85920024 
-0.36943266 -0.17449626 -0.91272706 
0.64364636 0.27932608 -0.71252817 
0.06566851 0.05647864 -0.9962419 
-0.11838436 0.028872482 -0.992548 
-0.3589801 0.00044395495 -0.9333452 
0.18808927 -0.4247801 -0.88554186 
0.6175571 -0.51007295 -0.598706 
0.48577306 -0.71143556 -0.50782293 
0.444151 -0.60573804 -0.6601601 
0.1950921 -0.9004076 -0.38885117 