# OOMMF: rectangular mesh v1.0
# Segment count: 1
# Begin: Segment
# Begin: Header
# Desc: Time (s) :  5.440000000000008e-07
# Title: m
# meshtype: rectangular
# meshunit: m
# xbase: 2e-09
# ybase: 2e-09
# zbase: 5e-10
# xstepsize: 4e-09
# ystepsize: 4e-09
# zstepsize: 1e-09
# xmin: 0
# ymin: 0
# zmin: 0
# xmax: 1.024e-06
# ymax: 1.024e-06
# zmax: 1e-09
# xnodes: 256
# ynodes: 256
# znodes: 1
# ValueRangeMinMag: 1e-08
# ValueRangeMaxMag: 1
# valueunit: 
# valuemultiplier: 1
# End: Header
# Begin: Data Text
-0.77597123 0.15243645 0.61207175 
-0.79077333 0.28814092 0.5400486 
-0.15757547 -0.6438066 -0.7487877 
0.18984662 0.013317137 -0.9817235 
-0.5282515 -0.505978 -0.6818627 
0.16938066 -0.49937332 -0.8496685 
-0.5871771 -0.1874035 -0.7874662 
-0.43992072 -0.12883528 -0.88874704 
-0.11592347 -0.74242634 -0.6598219 
0.025690075 -0.9505277 -0.30957583 
-0.37338716 -0.6664728 -0.6452877 
-0.12462318 -0.9589559 0.25470155 
0.43578535 -0.61304045 0.6589936 
-0.28446627 -0.8890095 0.3588054 
-0.45943263 -0.87653893 0.14353132 
-0.5076064 -0.7586362 -0.40841985 
-0.18172003 -0.9015803 -0.39259502 
-0.07963217 -0.76230085 -0.64230525 
0.49003595 -0.45093086 -0.74600685 
0.1828579 0.40155724 -0.8973934 
-0.1867781 -0.2603307 -0.9472813 
0.4080023 -0.43733782 -0.8014174 
0.7876633 -0.29239088 -0.5423045 
-0.080109805 -0.9753538 0.20559047 
-0.26850584 -0.744929 -0.61072534 
0.0136950435 -0.99951124 -0.028101906 
0.22683069 -0.018934445 -0.9737502 
0.31873295 0.007787519 -0.9478126 
0.25135267 -0.17668426 -0.9516326 
-0.5791432 0.24477263 -0.7776115 
-0.08178226 -0.8667258 -0.49203473 
-0.026801633 -0.99651754 -0.07895852 
0.50717896 -0.8479806 0.1539432 
0.10650025 -0.92734754 0.3587259 
0.26889968 -0.3857397 -0.88255185 
-0.5218832 -0.7991163 -0.2984142 
-0.7796337 -0.6099561 0.14186244 
-0.7757196 -0.40871978 -0.48084027 
-0.55041426 -0.8348916 0.00045772665 
0.037713856 -0.14198203 -0.9891505 
0.35243288 0.35147902 -0.8673256 
0.7711084 0.13836767 -0.62148714 
0.53062046 0.16407186 -0.8315782 
-0.15719187 -0.5158995 -0.84210366 
-0.031879198 0.64308035 -0.7651349 
-0.38834217 -0.08908423 -0.9171993 
0.27222607 0.31563047 -0.9089942 
0.013228722 0.12843911 -0.99162924 
0.5752988 0.8169847 -0.03959046 
-0.3931663 0.54777557 -0.73848647 
0.5597897 0.57313097 -0.5984617 
0.54563874 0.51732063 -0.65928584 
0.37355366 0.8073482 -0.45677862 
-0.27521196 0.88490486 0.37576824 
-0.34418252 0.5537447 0.7582251 
-0.065322824 0.6236548 0.77896583 
0.43888402 -0.75590163 0.4857917 
-0.9539645 -0.28461927 0.09457133 
-0.95774764 -0.28449985 0.04218128 
-0.88556343 -0.4644331 -0.0089128595 
-0.93470585 -0.13108765 -0.33036515 
-0.91350716 0.15453 -0.37633124 
-0.18227719 -0.7230193 -0.6663469 
0.107239366 -0.18396421 -0.97706544 
-0.1547573 0.36125985 -0.9195333 
0.16318539 -0.3757061 -0.91225845 
0.46514294 -0.60039365 -0.6505148 
0.5795542 -0.73300326 -0.3561224 
0.74253017 -0.60080814 -0.29610577 
0.9838874 0.17300177 -0.045123298 
0.3903018 -0.9190578 0.0547481 
0.28720245 -0.6655281 -0.6889029 
0.06607964 -0.6854046 -0.725158 
0.03396355 -0.43172842 -0.901364 
0.6193904 -0.6225967 -0.47825614 
0.15316331 -0.9734227 0.17026196 
0.73348874 -0.652445 0.1905515 
-0.29780772 -0.40237993 0.8656795 
-0.063061565 -0.4018795 0.91351855 
0.42996258 -0.15492588 0.88945496 
-0.2844091 -0.17963076 0.94172406 
-0.50888824 -0.093684174 0.85571957 
-0.905258 -0.35602015 0.23185705 
-0.030918226 -0.9749888 0.22009316 
-0.350922 -0.75023055 0.5603641 
-0.33413807 -0.85317326 -0.40055883 
0.23566489 -0.8574738 -0.45738482 
-0.24343218 -0.8208205 -0.5167151 
0.54280597 -0.7213629 -0.43011314 
0.57754076 -0.80434436 0.13956015 
0.097843215 -0.8333176 0.5440667 
0.5451153 -0.8136452 -0.2020667 
0.22822545 -0.92861307 -0.29255956 
0.3783192 -0.6623675 0.6466404 
0.037626054 -0.9856175 0.16474997 
-0.2635087 -0.8019337 -0.53615814 
-0.7043945 -0.53497154 -0.46651238 
-0.6742229 -0.68723416 -0.2704308 
-0.77509713 -0.51389915 -0.3676035 
-0.7886926 0.17700589 -0.58875537 
-0.6028582 -0.38393018 -0.6993996 
-0.6999221 -0.71177983 -0.058980186 
0.22985858 -0.84891355 -0.47593153 
0.16701493 -0.6411218 -0.7490453 
0.6239562 -0.72013265 -0.3034594 
0.6603517 -0.7465952 0.080816634 
0.95721614 -0.23424767 0.16989829 
0.8814442 0.09458735 -0.46271956 
0.9910472 -0.023293702 0.13146412 
0.3545689 0.22935241 0.9064649 
0.22067437 0.24245124 0.94473296 
-0.14829686 0.5359799 0.83110386 
-0.3804779 -0.13059531 0.9155226 
-0.61491036 -0.7001781 0.36281672 
-0.5211903 -0.6833654 0.511246 
-0.7524844 -0.5941681 -0.28413314 
-0.9530457 -0.2986654 0.05002906 
-0.98715985 -0.114056915 -0.111832425 
-0.6198548 -0.605326 -0.49936023 
-0.11575887 -0.93965596 -0.32194176 
-0.24568452 -0.95915747 0.14020038 
0.36688742 -0.5060491 0.78058183 
0.7009939 -0.68494713 0.19863278 
0.9660746 0.2578993 0.013712983 
0.8417065 -0.5292674 0.10680046 
0.8363402 -0.29209647 0.46391243 
0.1346846 -0.83923537 0.5268246 
0.70778793 -0.5542471 0.43800282 
0.6152424 -0.4403789 0.65386784 
0.15682699 -0.2777152 0.9477762 
-0.6921773 -0.63234967 -0.34788585 
-0.38393152 -0.88032126 -0.27862352 
-0.49294642 -0.70685786 0.5073025 
0.00546149 -0.41598734 0.90935403 
-0.6998779 -0.7126346 -0.04819636 
0.14689878 -0.9830887 -0.109350294 
-0.3689141 -0.44023153 -0.8185955 
0.07606724 -0.8777509 -0.4730404 
-0.012085909 -0.9864839 0.16341245 
-0.08524729 -0.8961374 0.43551195 
0.7213196 -0.5894431 0.36366865 
0.10734146 -0.82741064 0.5512437 
-0.70037675 -0.6709633 -0.24347633 
-0.67149436 -0.7099854 0.21216996 
-0.52988046 -0.7990167 -0.28425166 
-0.27577516 -0.6938125 -0.6652611 
0.3746678 -0.43444604 -0.8190731 
0.7014938 -0.46956813 0.5361085 
-0.0086369915 -0.99933136 -0.03552904 
0.091683336 -0.99203277 0.086402126 
-0.31805122 -0.94125664 0.113487385 
-0.41370592 -0.7457701 0.5221823 
0.3581496 -0.4594648 0.81278604 
0.21426025 -0.9052939 0.36679116 
-0.37383226 -0.77553546 0.50871825 
-0.2315886 -0.7656352 -0.6001413 
-0.9653228 -0.24858972 0.079719745 
-0.40510198 -0.7956263 0.45041242 
-0.61202824 0.5978775 0.5176524 
-0.098842084 -0.068701684 0.99272877 
-0.53325886 -0.81508315 0.22643898 
-0.25394604 -0.8453344 -0.4700224 
0.33405083 -0.6912059 -0.64081544 
0.16238879 -0.85772544 0.4877878 
-0.51401544 -0.5773037 0.6344357 
0.16967551 -0.97384804 0.15109693 
-0.089803785 -0.98759884 0.12877789 
-0.12771936 -0.8398763 0.52753747 
0.2793255 -0.94765806 0.15466595 
-0.6819125 -0.7314024 -0.0067772614 
0.03898318 -0.9595261 -0.2789085 
-0.11487071 -0.99320394 -0.018729623 
-0.47950968 -0.7553452 0.44668138 
-0.66323376 0.1756228 0.72751474 
-0.8370145 -0.2775659 0.4715549 
-0.48346138 -0.12181989 0.86684775 
-0.9863043 0.15100332 0.06634723 
-0.11343639 -0.7385579 -0.66457844 
0.18284446 -0.53640634 -0.8239151 
-0.092211686 0.36234614 -0.9274709 
0.1658306 -0.80410117 -0.57089543 
-0.05536069 -0.31610906 -0.94710624 
-0.08864802 -0.690627 -0.7177576 
-0.446228 -0.7566171 -0.47792378 
-0.1010265 -0.5412423 -0.8347756 
0.7001092 -0.413134 -0.58238095 
0.36541468 0.6483158 -0.6679512 
0.9622691 -0.27045015 -0.029916557 
0.8745204 0.2192681 0.4325919 
0.71988624 0.6711567 -0.17695333 
0.12338108 0.9617898 0.2444126 
-0.3879105 0.92099375 -0.036001593 
-0.622919 0.45130613 0.6389795 
0.040946867 0.5901072 0.8062859 
0.27920976 -0.21061766 0.9368469 
-0.018800253 0.2094461 0.9776395 
-0.4106102 0.47502354 0.7783008 
-0.76152194 -0.46717772 0.44925433 
-0.13136448 -0.96505255 -0.22675309 
-0.27631986 -0.85227954 0.4441475 
-0.8793954 -0.4252849 0.21400103 
-0.72723025 0.081942394 -0.68148494 
-0.11351688 -0.9935221 0.0052655665 
-0.082755096 -0.8654944 -0.49403545 
0.28483567 -0.95850396 -0.011785293 
0.33631843 -0.93379533 -0.12213161 
0.5981115 -0.7924863 0.11928208 
-0.15498309 -0.9658238 0.20776112 
0.48408288 -0.74603975 0.457262 
0.17972608 -0.9835044 0.020436028 
-0.19102667 -0.022923136 -0.9813172 
0.65924335 -0.3277773 -0.6767277 
0.049835835 -0.19030295 -0.98045975 
0.40160763 -0.23311456 -0.88564616 
0.42502576 0.07713367 -0.9018889 
0.3378775 -0.25276193 -0.90661466 
0.0895292 -0.75005215 -0.65529096 
-0.075649604 -0.3041375 -0.9496197 
-0.1279444 -0.9902723 0.05469176 
0.087808095 -0.8222853 -0.5622602 
0.42463362 -0.41684648 -0.8036947 
0.056631282 0.24528335 -0.967796 
0.4891658 0.2502744 -0.8355116 
0.84989375 -0.3510799 0.3929676 
0.321703 -0.87972486 0.3501307 
-0.09349504 -0.64855224 0.75540644 
-0.2405739 -0.9603431 0.14094444 
-0.43625623 -0.7111549 -0.5513069 
0.055662025 -0.45818013 -0.8871149 
0.39083484 0.074814506 -0.9174154 
0.6298156 -0.29386815 -0.7190089 
-0.37644133 -0.7507958 -0.5427687 
-0.32865584 -0.6858317 -0.6493229 
-0.72270995 -0.21571642 -0.6566253 
-0.033874065 -0.6973102 -0.71596867 
0.13523942 -0.5472475 -0.82597244 
0.0042868583 -0.0776334 -0.99697274 
0.049927562 -0.5149176 -0.8557846 
0.3660379 -0.36442548 -0.85627705 
0.7701792 0.26504773 -0.5801497 
0.9322708 -0.3153314 -0.1773058 
0.99796927 0.06316822 0.00820103 
0.95525694 -0.09484879 0.2801568 
0.95223033 -0.29229093 -0.08845101 
0.3795162 0.39036313 0.83879924 
0.23939484 -0.06926866 0.9684483 
0.36155167 0.12957206 0.9233047 
-0.06791671 0.17243235 0.98267716 
-0.8713969 -0.03292042 0.4894729 
-0.8617453 -0.3476774 0.36948007 
-0.98117024 0.15463853 0.115723684 
-0.18880351 -0.61057115 -0.76912695 
0.15340479 -0.6185635 -0.7706143 
0.27139696 -0.14367498 -0.9516834 
0.74812394 -0.6291661 -0.21085681 
0.97810113 -0.20380917 -0.042191554 
-0.9227163 -0.25304312 -0.2907987 
-0.9747693 0.13832751 -0.17518646 
-0.70324993 0.5873187 -0.40061986 
-0.59865785 -0.72154725 -0.3478194 
-0.11879496 -0.2501522 -0.96089107 
0.0703486 -0.47794423 -0.8755686 
-0.7524305 -0.26196715 -0.6043357 
-0.18993104 -0.68366176 -0.7046509 
0.62670493 -0.76763225 -0.1340962 
0.17234147 -0.65903157 -0.73210377 
-0.31112555 0.07639874 -0.94729316 
-0.52840644 -0.8192494 0.22274907 
0.32362914 -0.9449401 0.04850281 
0.46186155 -0.8465074 -0.26478142 
-0.024498835 -0.73126256 -0.681656 
-0.48755977 -0.5745894 -0.6573679 
-0.5015421 -0.6760784 -0.53979045 
-0.14088295 -0.07945186 -0.98683304 
0.2999677 -0.49930102 -0.8128455 
-0.5191466 -0.41887727 -0.74500245 
-0.6214209 -0.16372427 -0.7661791 
0.4803305 -0.24357045 -0.84258896 
-0.2661099 -0.38042882 -0.8856972 
-0.17764038 -0.08360428 -0.9805378 
-0.04301575 -0.35326067 -0.93453556 
-0.41320145 -0.19421354 -0.8896885 
-0.69556713 0.34012717 -0.6328506 
-0.3656763 0.16703661 -0.91563076 
-0.21983737 -0.0108500365 -0.9754762 
-0.069655135 0.14365023 -0.98717415 
0.23500854 -0.47080538 -0.8503608 
-0.34245378 -0.20873207 -0.91605484 
-0.050928198 -0.6701481 -0.74047816 
0.07901754 -0.79620916 -0.5998393 
-0.5625013 -0.5762008 -0.59294605 
0.20408332 -0.7888895 -0.57965803 
0.13849877 0.04942842 -0.98912835 
-0.2670095 -0.13969705 -0.95351493 
-0.09776359 0.0130180605 -0.9951245 
0.3606552 0.33913496 -0.8688587 
0.1750295 0.74416715 -0.6446549 
0.8952819 -0.03390942 -0.44420764 
0.58978456 -0.06233319 -0.80515146 
-0.26906756 -0.31860632 -0.90889645 
0.24887526 0.3516657 -0.9024369 
0.7130585 -0.08011247 -0.6965125 
0.72532547 0.114964455 -0.6787387 
0.27484444 0.8057049 -0.5246906 
0.5985174 0.6641256 -0.44801128 
0.51374143 0.23789608 -0.8243029 
0.414496 0.8309307 -0.3711431 
0.5471474 0.61122817 0.5718653 
0.7593348 0.5600646 0.3312678 
0.46509016 0.8622599 0.20049685 
-0.16130036 0.45778984 0.8743059 
-0.48410684 -0.21608803 0.84790725 
0.1360041 -0.98538107 -0.10260129 
-0.50945646 -0.7768026 0.37017843 
-0.3842903 -0.91861 0.09206906 
-0.6370399 -0.66694325 -0.38648012 
-0.8955407 -0.4300645 0.11424244 
-0.36762753 -0.08038015 -0.92649287 
-0.2452119 -0.05781498 -0.9677441 
0.7089738 -0.5350936 -0.4593811 
-0.032445323 -0.39365315 -0.9186864 
0.2226143 -0.32180047 -0.92026484 
0.9451915 -0.08463127 -0.3153579 
0.6445321 -0.5419191 -0.53935343 
0.7471823 0.05442286 -0.66238725 
0.56107956 0.65233094 -0.5095626 
0.46910873 0.28054067 -0.8373971 
0.51590645 -0.003266806 -0.8566387 
0.47615555 0.08957235 -0.87478733 
0.22697653 -0.37175387 -0.90015596 
-0.16054587 0.12219119 -0.9794358 
0.31784818 0.27912983 -0.9061231 
0.17589314 -0.48277354 -0.8578993 
0.64506716 -0.7480593 -0.15587124 
-0.27413097 -0.6332625 0.7237617 
0.3591069 -0.7655005 0.5339019 
-0.31311154 -0.5237715 0.7922276 
-0.20051919 -0.6694226 0.71530795 
-0.5220917 -0.6447041 0.55836993 
-0.3601027 -0.83021134 0.42552942 
-0.07750468 -0.99575716 0.049606137 
-0.13106568 -0.7433781 -0.65590453 
0.23758386 -0.806176 -0.5418802 
0.17118762 -0.7030513 -0.6902272 
0.6268146 -0.49367678 -0.6028156 
-0.47918543 -0.828987 -0.2883784 
-0.4204166 -0.9061003 0.047246378 
-0.6902713 -0.7171616 0.095941916 
-0.41226476 -0.87345153 0.2590757 
-0.26997837 -0.7353269 0.6216157 
-0.40853843 -0.8468776 -0.34043312 
-0.71858 -0.68214405 -0.13536043 
-0.4721844 -0.7095132 -0.52309936 
-0.9019157 -0.4219655 0.092157856 
-0.87120384 -0.4876047 -0.056970023 
-0.7243676 0.36710235 -0.5835473 
-0.55095416 -0.63382953 -0.5428717 
-0.28723335 -0.6798913 -0.67471844 
-0.29642504 -0.6376649 -0.7109963 
0.08442817 -0.062381335 -0.994475 
0.18680525 -0.596808 -0.78033596 
0.9002179 -0.40712485 -0.15445769 
0.9859351 -0.04493079 0.16097628 
0.63153815 -0.21975301 -0.7435511 
0.6668052 -0.69217706 -0.27615544 
0.7096667 -0.64891803 0.27436954 
0.55916435 -0.4887113 0.66969883 
0.1257812 -0.44242045 0.88794327 
-0.6236848 -0.29550725 0.7236662 
-0.47423077 -0.7409027 0.47557166 
-0.84788215 -0.27461508 0.45352235 
-0.9323112 -0.024695849 0.36081296 
-0.83110076 -0.53932905 0.13563152 
-0.8588844 -0.4007156 -0.3189743 
0.07083613 -0.5889173 -0.8050831 
0.39627865 -0.88994765 -0.22573577 
0.016365303 -0.99983925 0.007332645 
0.35664737 -0.9303454 -0.0852066 
0.57445985 -0.3476992 -0.74101365 
0.7859016 -0.5991028 -0.15308392 
0.7239387 -0.6370846 -0.2646434 
0.8376363 -0.49890187 0.22240172 
0.5501336 -0.7628128 0.3398084 
-0.13963963 -0.95308167 -0.26858163 
-0.4521056 -0.8913139 -0.03405914 
-0.065301575 -0.9861339 0.15256388 
-0.40098038 -0.5364425 -0.7425929 
-0.3548667 -0.89345664 -0.27532694 
-0.7576473 -0.40112844 -0.5148463 
-0.061460115 -0.8487454 -0.525218 
-0.4081939 -0.89995176 0.15318176 
-0.29765564 -0.8243425 0.48151913 
-0.18724379 -0.5860207 -0.7883651 
-0.12633453 -0.81569 -0.5645259 
0.089348614 -0.94490945 -0.31490153 
0.47695744 -0.85319686 -0.21110888 
0.49762768 -0.8649373 0.06519331 
-0.09672823 -0.8901438 0.44529507 
-0.6408789 -0.7676173 0.006164348 
-0.09695413 -0.94675696 -0.30700377 
0.24806239 -0.8552364 -0.45501187 
0.7492758 -0.63589144 -0.18500808 
0.645008 -0.62706506 -0.43675405 
0.6438628 -0.44894257 -0.6195896 
-0.15032934 -0.7592352 -0.63321656 
-0.095755264 -0.9919688 -0.08263809 
-0.084187545 -0.9963499 -0.014124765 
-0.2198782 -0.91842794 0.32885233 
0.38848597 -0.9173989 0.08635961 
0.24969456 -0.8610805 0.44293666 
0.38809204 -0.92027885 0.04971529 
0.020773279 -0.98685384 -0.16027482 
-0.56058663 -0.7836364 0.2676877 
-0.5325366 -0.8384661 0.11566965 
-0.5206294 -0.2540302 0.81511575 
0.27115926 -0.62025464 0.7360414 
0.045969687 -0.9973701 0.056033213 
0.4622077 -0.46280348 -0.75642395 
0.5737331 -0.43688023 -0.6927958 
0.4472056 -0.8343334 0.32232773 
0.5992416 -0.64569116 0.47327852 
-0.31913358 -0.77609926 0.5438969 
-0.5149961 -0.8450187 0.14395304 
-0.49493992 -0.86370397 0.09513106 
0.48522672 -0.869411 -0.093164496 
-0.28579047 -0.9556325 -0.071347326 
0.42515248 -0.905071 -0.00959182 
-0.16880624 -0.9816478 -0.0887246 
-0.6041453 -0.7617017 0.23413485 
-0.52281904 -0.5098052 0.68319756 
-0.84998864 0.017614944 0.5265064 
-0.68397653 -0.6105497 0.39925575 
-0.609666 -0.7773844 0.15485837 
-0.45243376 -0.42417958 -0.78445876 
0.47538647 -0.47806716 -0.7385524 
-0.2871016 0.10436354 -0.952198 
0.25443298 -0.40432316 -0.87851393 
0.26822343 -0.39452532 -0.8788664 
0.5581823 -0.7176089 -0.4164974 
-0.046725128 -0.07163007 -0.9963362 
-0.15462412 0.057187647 -0.98631686 
0.5286474 -0.094051875 -0.8436149 
0.74713314 -0.2944079 -0.5959163 
0.811558 -0.16732687 -0.5597994 
0.6157183 0.100152366 0.78157574 
0.5035297 0.6796966 0.53335756 
0.25991255 0.94047683 0.2189722 
0.43143728 0.7296567 0.5305308 
0.92407113 0.25676435 0.28313363 
-0.010655856 0.48094267 0.8766874 
-0.75476855 -0.35271522 0.5530972 
-0.6146196 -0.26328292 0.74358916 
-0.8122971 0.15322919 0.56275594 
-0.13095774 -0.7196501 -0.6818753 
0.012676711 -0.70002145 -0.7140094 
-0.56377274 -0.786984 -0.25063202 
-0.6950373 0.009696674 -0.7189083 
-0.41256243 -0.67408216 -0.6127035 
-0.178397 -0.9718082 -0.15415376 
0.17994644 -0.84248126 -0.5077842 
-0.07140104 -0.95862025 -0.2755888 
0.1499774 -0.73543847 -0.6607852 
0.5324033 -0.84227365 -0.08439087 
0.44090092 -0.84603477 -0.2997195 
0.6409222 -0.46934783 -0.6073973 
0.23692378 -0.861746 -0.44862136 
0.48056936 -0.79252654 -0.37543955 
0.13008636 -0.059527438 -0.9897141 
0.8047561 -0.34561187 -0.4826179 
0.7610027 -0.23252718 -0.6056451 
0.35312787 -0.26700622 -0.8966652 
-0.19400333 -0.2726799 -0.94234204 
0.21221453 -0.6951487 -0.68682843 
0.28512365 -0.3738266 -0.88258606 
-0.0010795371 -0.586831 -0.80970883 
-0.05583883 -0.13179407 -0.9897032 
0.37569603 -0.5089462 -0.7744846 
0.189993 -0.5828737 -0.7900386 
0.81467885 -0.3056686 -0.4928134 
0.36063603 -0.8763149 -0.31939626 
0.47015625 -0.8815906 0.041846987 
0.31193724 -0.6219283 -0.71826214 
0.23778272 -0.82953215 -0.5053078 
-0.47105762 -0.43779248 -0.76579535 
0.16373785 0.3181465 -0.9337949 
0.057237092 0.23723122 -0.96976566 
0.6105084 -0.18496944 -0.7701077 
-0.8467776 -0.006890109 -0.53190243 
-0.5897033 -0.18060417 -0.7871672 
-0.67471987 0.13744454 -0.7251636 
-0.7885873 -0.1361436 -0.5996625 
-0.4073492 -0.7883078 -0.4611264 
-0.20745672 -0.022319183 -0.97798955 
-0.048160233 0.17862682 -0.98273754 
0.10860086 0.7923325 -0.60034597 
0.5682732 0.006038375 -0.8228179 
0.7081209 -0.39457545 -0.58555543 
0.5128481 -0.5976505 -0.6162797 
0.53517675 -0.8095793 0.24117926 
0.6388732 -0.7531194 -0.15700983 
0.33964542 -0.40805104 0.84742874 
0.5578116 -0.51966274 0.6471452 
0.1997347 -0.2736293 0.94086826 
-0.2291471 -0.2909851 0.92888075 
-0.7259512 -0.61515605 0.30753523 
-0.2660918 -0.62602735 -0.73299724 
-0.48615187 -0.039593708 -0.872977 
0.13400903 0.035353072 -0.99034935 
-0.42703038 -0.10366817 -0.89827496 
0.24340412 0.18654631 -0.9518167 
0.7909224 -0.30098936 -0.53277314 
0.57536215 0.21863702 -0.78813463 
-0.6382605 -0.06266575 -0.7672657 
-0.44192448 -0.08830358 -0.8926956 
-0.97972 0.06940708 -0.18796678 
-0.92702276 -0.22322497 -0.30132946 
0.024021002 0.62225175 -0.78244865 
-0.28740838 -0.51967484 -0.80457103 
-0.7529548 -0.16123982 -0.6380132 
-0.29402548 -0.7212679 -0.62715364 
0.21517481 -0.77892894 -0.58904123 
-0.06767122 -0.7025164 -0.7084429 
0.25559735 -0.82115203 -0.510274 
-0.19731328 -0.95788413 -0.20862755 
-0.068402566 -0.9632693 -0.25967944 
0.3542685 -0.55871946 -0.74988437 
-0.67982924 -0.55402446 -0.48050934 
-0.28739896 -0.9573191 -0.03069489 
-0.5888297 -0.662231 -0.46338946 
0.42140374 -0.16643174 -0.89147043 
0.12702966 0.025689716 -0.99156624 
-0.45179963 0.17651673 -0.8744822 
-0.97563237 0.005501481 -0.21934296 
-0.2100413 -0.6168404 -0.7585451 
0.39784095 -0.6821551 -0.613504 
-0.5740685 -0.2507433 -0.7794699 
-0.0065127937 -0.4992734 -0.86642015 
-0.47616118 0.20519777 -0.8550816 
-0.6203639 0.46221817 -0.63364273 
-0.33986685 0.64256585 -0.68673116 
0.2739337 -0.22747605 -0.9344598 
-0.38901433 -0.34323746 -0.85490113 
-0.056847684 -0.21748358 -0.97440714 
-0.17735718 -0.35879016 -0.9164137 
-0.19915788 -0.07495638 -0.9770966 
-0.22979605 -0.08599863 -0.9694319 
-0.3930345 -0.44021142 -0.8073029 
-0.29177675 -0.20583893 -0.9340753 
0.023641909 -0.20597707 -0.97827125 
-0.08521162 0.5743527 -0.81416094 
-0.3157415 0.48554376 -0.8152021 
0.118049994 0.39454624 -0.91126144 
0.52337444 0.49035913 -0.69686955 
0.55633956 -0.3682723 -0.7448905 
-0.17027614 -0.13700058 -0.9758263 
0.1365669 -0.36392057 -0.92136383 
0.33369753 0.36884448 -0.86752504 
0.80422944 -0.013135762 -0.59417385 
0.53937536 0.73131114 -0.41744253 
0.47548074 0.530094 -0.7020816 
-0.072120965 0.6818577 -0.7279208 
0.7117011 0.69714963 -0.08639417 
0.9680018 0.25004855 -0.021171687 
0.88221544 0.06537924 0.46628484 
0.18418686 0.52102995 0.83342856 
0.2473671 0.5282444 0.8122607 
-0.078588 0.07738463 0.9938992 
0.05955478 0.069086656 0.99583143 
0.17026475 0.03401036 0.98481125 
-0.7954141 -0.46684614 0.38648567 
-0.9678978 -0.19605468 -0.15727867 
-0.46303567 -0.8564629 0.228187 
-0.21768509 -0.84839445 -0.4825353 
0.06299969 0.13887994 -0.98830336 
0.34277937 -0.07419428 -0.93648154 
0.6326099 0.20964432 -0.74555624 
0.20300177 -0.31445467 -0.9273126 
-0.1265496 -0.6969441 -0.7058713 
-0.31657824 -0.648916 -0.69187164 
0.4605676 -0.4330382 -0.77482617 
0.3700723 0.38184428 -0.84690106 
0.3032636 0.6141279 -0.728614 
0.6716885 0.22176613 -0.7068624 
0.2137756 0.107637145 -0.97093475 
-0.0872601 0.12742439 -0.9880024 
0.25847703 0.0899328 -0.96182215 
0.37607688 0.4694744 -0.7988492 
-0.023209404 0.43913183 -0.8981228 
0.6958277 -0.42286354 -0.5805258 
0.572705 -0.8177773 0.057002924 
-0.14070591 -0.6721567 0.7269163 
0.21192357 -0.9772782 0.003969856 
0.16252299 -0.8129942 0.55913043 
-0.15202886 -0.67619294 0.7208678 
-0.45024082 -0.46157753 0.7643491 
-0.5329377 -0.7866392 0.3117311 
-0.55860686 -0.7269755 -0.39933082 
-0.021074617 -0.71981543 -0.6938456 
0.71960807 -0.5342547 -0.4435495 
0.5129447 -0.82583237 -0.23428349 
0.4677487 -0.8567849 -0.21709648 
-0.086830236 -0.5921618 -0.8011273 
-0.27808893 -0.8033334 -0.5266139 
-0.20865655 -0.91133386 0.3548705 
-0.1661398 -0.8423554 0.51267445 
-0.18435879 -0.63064206 0.7538584 
-0.40106714 -0.91600084 0.009363689 
-0.8637315 -0.4535969 -0.21958539 
-0.45184287 -0.78792596 -0.41834283 
0.1642006 -0.6396978 -0.75088274 
-0.6498415 -0.5337044 -0.5411707 
-0.81208795 -0.2950424 -0.5034512 
-0.30039027 -0.4298451 -0.85146874 
-0.27222276 -0.60615325 -0.7473105 
0.13636604 -0.87945265 -0.45603448 
-0.062417295 -0.8100768 -0.58299214 
-0.11165443 -0.7547296 -0.6464646 
0.194677 -0.9782374 -0.07178044 
0.18303727 -0.45566922 -0.8711274 
0.15004174 0.21794327 -0.96435905 
0.5316758 0.020370724 -0.846703 
0.6978152 -0.4777187 0.53370297 
0.8133402 -0.5817609 0.005658172 
0.49828038 -0.6576489 0.56499094 
0.20073834 -0.17650598 0.9636129 
-0.73848736 -0.3675427 0.56528646 
-0.4376053 -0.5083377 0.74168354 
-0.9422699 -0.020039355 0.33425406 
-0.5263719 -0.5283932 -0.66613317 
-0.4237284 -0.7859827 -0.45020616 
-0.04911104 -0.63829637 -0.76822263 
-0.13772012 -0.81553495 -0.5620818 
0.20957139 -0.6584725 -0.72283745 
0.17473699 -0.70871305 -0.68351513 
0.3173431 -0.91920465 -0.23314415 
0.9926758 0.08530951 0.08554024 
0.64793086 -0.71705216 0.25694716 
-0.09384335 -0.91760236 -0.38626322 
-0.13115996 -0.99109995 0.022761542 
0.38713175 -0.91851264 0.08039662 
0.025550757 -0.89797807 -0.43929797 
-0.5531413 -0.7759714 -0.30315506 
-0.79833406 -0.325857 -0.5064386 
-0.4698798 -0.8283727 -0.304978 
-0.98243254 -0.18651888 -0.0061009303 
-0.4533413 -0.82899106 -0.32749885 
-0.39588526 -0.8268019 -0.39959177 
-0.11687021 -0.9525057 -0.28120163 
-0.08419307 -0.8205071 -0.5654023 
-0.3645188 -0.93068 -0.030999275 
-0.6002885 -0.77673393 -0.19062595 
-0.30358005 -0.9471805 -0.10338399 
0.33302888 -0.9256842 -0.17944533 
-0.027933182 -0.9711189 -0.23695508 
-0.23222746 -0.9096815 -0.34431118 
-0.061484817 -0.25736406 -0.9643564 
0.47415164 -0.7163057 -0.51194376 
0.30440593 -0.9502589 -0.06591747 
0.2466585 -0.45458573 -0.85586894 
0.24206772 -0.33752587 -0.909659 
0.112360924 -0.88284355 -0.456029 
-0.35136235 -0.7734942 -0.5274953 
-0.5153546 -0.85638094 -0.031958736 
-0.3390167 -0.9396936 -0.045206662 
0.24240865 -0.97006613 0.01448709 
-0.10572086 -0.9856958 0.1312515 
-0.29459676 -0.93444717 -0.20005302 
0.06993135 -0.83031285 -0.5528925 
0.6187639 -0.5586758 -0.5522794 
0.07061161 -0.9872591 0.1425961 
-0.46053088 -0.88721204 -0.02767808 
-0.09379485 -0.8353195 -0.5417046 
0.50431144 -0.5803928 -0.6393859 
0.8002741 -0.5117881 -0.3124653 
0.41475433 -0.45219043 -0.78962195 
0.40791437 -0.8486722 -0.3366919 
0.10304176 -0.8434253 0.5272724 
-0.19007157 -0.9754637 -0.111101665 
-0.66653496 -0.38295424 0.6395914 
-0.67370087 -0.73004466 0.11472571 
-0.69750684 -0.6862238 -0.20635179 
-0.55373406 -0.73318136 -0.39474514 
-0.2784783 -0.9603363 0.014281565 
-0.716681 -0.69637036 0.03790283 
-0.6943144 -0.66104007 -0.28452337 
-0.41824836 -0.8599519 0.2924913 
-0.6011943 -0.7586064 0.25116074 
-0.1974941 -0.90365136 -0.38001385 
-0.21775709 -0.6867621 -0.6934982 
-0.48523557 -0.59107476 -0.6443424 
-0.3415758 -0.2589239 -0.90348464 
0.35926193 -0.19166212 -0.91334355 
0.6571641 -0.5404464 -0.5254076 
0.5872611 -0.5546782 -0.5894545 
0.86279386 -0.4507622 -0.22891106 
0.8488841 0.12354748 -0.51393765 
0.59133375 -0.15498754 -0.79139334 
0.6468508 -0.17532305 -0.74218994 
0.68924874 -0.1587725 -0.70691407 
0.822218 0.14686665 -0.54989797 
0.8134405 0.53644204 -0.22482133 
0.7413892 0.6586171 0.12870733 
0.36964214 0.91313714 0.17188777 
0.08898775 0.23681882 0.96746993 
0.15146782 -0.469881 0.8696375 
-0.7816852 -0.46826175 0.41194555 
-0.9223626 -0.21194462 -0.32299662 
-0.39072856 0.48348385 0.7833101 
-0.9369663 0.3481697 -0.029531175 
0.058421288 -0.114515305 -0.99170226 
-0.47437844 0.122886896 -0.8717018 
-0.5805274 -0.53787285 -0.6112943 
-0.29745296 -0.7306248 -0.6145805 
-0.54383993 -0.089853086 -0.8343649 
-0.123799756 -0.2009005 -0.9717576 
-0.10998098 0.01177645 -0.99386394 
0.3584287 -0.4801285 -0.8006283 
0.04792745 -0.44130272 -0.8960775 
-0.094236135 -0.31890792 -0.9430893 
0.44793406 -0.12945649 -0.8846446 
-0.21908936 -0.68814147 -0.691709 
-0.31509903 -0.5270467 -0.789262 
0.32919547 -0.93399876 -0.13884057 
0.47823846 -0.7673806 -0.42710072 
0.42022738 -0.7027061 -0.57411945 
0.6293106 0.38395062 -0.6756849 
-0.17399032 0.0487351 -0.9835407 
-0.29145324 -0.65162015 -0.70031875 
-0.18876357 -0.6943012 -0.69448847 
0.020082599 -0.18390241 -0.9827394 
0.4687317 -0.3061571 -0.8285883 
0.25883785 -0.06010704 -0.9640488 
-0.4413659 -0.5601724 -0.70100147 
-0.06674523 -0.032846935 -0.9972293 
0.5045052 -0.6029159 -0.6180347 
0.410456 -0.8626656 -0.29552332 
0.46637964 -0.45500746 -0.7585897 
0.12596552 0.38136327 -0.9158028 
-0.5075568 0.082366124 -0.8576725 
-0.5068118 -0.103713945 -0.85579515 
0.031994946 0.44247058 -0.8962122 
-0.07707912 0.82450396 -0.5605818 
-0.11546659 -0.07746057 -0.9902865 
-0.57577246 0.5646132 -0.5913527 
-0.6716114 0.40203255 -0.62234074 
-0.7342949 -0.2362538 -0.63639235 
-0.7581854 0.35656393 -0.54590946 
-0.08799983 -0.34426892 -0.934738 
0.18535407 0.25456476 -0.9491263 
-0.18653132 0.26138878 -0.94703853 
0.30049914 0.2853687 -0.9100906 
0.44783875 0.5743403 -0.6852545 
0.20015599 0.13999404 -0.96971095 
0.0441114 -0.5274628 -0.8484322 
0.34017032 -0.93695194 -0.08003259 
0.4397894 -0.753563 -0.4885981 
0.4658733 -0.8377135 0.28495297 
-0.19349173 -0.9032095 0.38311055 
-0.44826618 -0.84998846 -0.27672577 
-0.6477116 -0.7068835 -0.2842278 
0.01133191 -0.9998613 0.012207263 
-0.65978557 -0.15578629 -0.73512834 
-0.3880044 -0.345509 -0.8544449 
-0.04258133 -0.2923632 -0.955359 
0.104337454 -0.079429105 -0.9913651 
0.35585436 -0.41671512 -0.83649045 
0.9089353 0.22632712 -0.3501611 
0.57000387 0.7971983 -0.19892353 
-0.70773536 0.4307247 -0.5599883 
-0.70494807 0.58610183 -0.3994157 
-0.9641899 -0.123644754 -0.23462735 
-0.87763405 -0.07892915 -0.47278827 
-0.90948236 0.14712542 -0.3888393 
-0.33334434 -0.9165444 -0.22097062 
-0.2529744 -0.8780034 -0.4063421 
-0.5263678 -0.2900089 -0.79926956 
0.07531553 -0.71383655 -0.6962507 
-0.21778043 -0.7248441 -0.65358454 
-0.6884138 -0.6242659 -0.3692946 
-0.26886305 -0.5967485 -0.75604504 
-0.5830901 -0.56245047 -0.5862213 
-0.21731727 -0.778308 -0.58907545 
-0.22318555 -0.6877837 -0.69075453 
0.2678447 -0.641843 -0.718538 
-0.32410115 -0.29156595 -0.89997095 
-0.28615746 0.3170102 -0.90422255 
0.23565456 0.04962258 -0.97056925 
-0.7535075 0.08191502 -0.6523162 
-0.5556897 0.036378004 -0.8305936 
-0.25418785 0.08690627 -0.96324235 
-0.24309097 -0.35457134 -0.9028765 
-0.15215006 -0.70612395 -0.6915485 
0.32234368 -0.03235173 -0.9460698 
-0.6620816 -0.025425445 -0.74900043 
-0.72886527 0.19477485 -0.6563675 
-0.20800199 0.08149958 -0.9747272 
0.018868856 0.2811248 -0.9594857 
-0.008687775 0.14607283 -0.9892357 
-0.44831342 0.09960873 -0.8883092 
0.01776645 -0.2950531 -0.95531565 
-0.11173664 -0.6652597 -0.7382035 
0.28152713 -0.5487348 -0.7871676 
0.34720397 0.05667209 -0.93607575 
-0.06112997 0.34022442 -0.9383552 
-0.057302136 0.45623326 -0.8880134 
0.28243795 0.59712243 -0.750782 
0.14529468 0.56915355 -0.8092922 
0.32603294 0.4382282 -0.8376507 
0.23393176 0.1543492 -0.9599231 
-0.06830881 0.30609977 -0.9495457 
-0.106441475 -0.29255718 -0.9503056 
0.5207387 0.15104425 -0.84024817 
0.9238402 -0.07671008 -0.37501326 
0.97380376 0.08947541 -0.20904651 
0.8337465 0.44991386 0.3200691 
0.5851335 0.80053854 0.12944815 
0.46003038 0.8700715 -0.17705257 
0.6897135 0.71965337 0.079965495 
0.27703753 0.8246054 0.49323046 
0.22872733 0.95949304 0.16448994 
-0.03780756 0.6358788 0.77086234 
-0.441406 0.022714041 0.89702004 
-0.7167506 -0.008827245 0.69727373 
-0.8282663 -0.1959195 0.52496725 
-0.5851795 0.01324909 0.81079566 
-0.62610126 -0.4063434 0.66549397 
-0.9870831 0.09214518 -0.13105866 
-0.8439897 -0.22701654 -0.48594737 
-0.76425785 -0.46067438 -0.45131925 
-0.29798052 -0.31984776 -0.89939153 
0.25343478 -0.61029243 -0.7505425 
0.47831476 -0.70905846 -0.51812273 
-0.29365057 -0.7068791 -0.6434993 
-0.4106826 -0.45286673 -0.7913605 
-0.45809034 -0.4708519 -0.75395733 
0.12885097 0.11089878 -0.98544353 
0.46858525 -0.020572742 -0.8831788 
0.6045038 0.7391678 -0.29699513 
0.46761748 -0.055091754 -0.88221246 
-0.21188298 0.1919935 -0.9582506 
-0.25280705 0.007954971 -0.9674841 
0.042530883 0.53406453 -0.8443733 
0.78283834 0.5572533 -0.27682668 
-0.1791771 0.657335 -0.73198795 
0.35219586 0.103970125 -0.9301335 