# OOMMF: rectangular mesh v1.0
# Segment count: 1
# Begin: Segment
# Begin: Header
# Desc: Time (s) :  5.560000000000009e-07
# Title: m
# meshtype: rectangular
# meshunit: m
# xbase: 2e-09
# ybase: 2e-09
# zbase: 5e-10
# xstepsize: 4e-09
# ystepsize: 4e-09
# zstepsize: 1e-09
# xmin: 0
# ymin: 0
# zmin: 0
# xmax: 1.024e-06
# ymax: 1.024e-06
# zmax: 1e-09
# xnodes: 256
# ynodes: 256
# znodes: 1
# ValueRangeMinMag: 1e-08
# ValueRangeMaxMag: 1
# valueunit: 
# valuemultiplier: 1
# End: Header
# Begin: Data Text
-0.48897943 0.87222683 0.010929378 
-0.6130873 0.78989184 0.013958741 
-0.876093 -0.14753354 -0.45901513 
-0.7284426 -0.6694257 -0.14574176 
-0.28423795 -0.95875275 0.0014029156 
-0.42411333 0.2022823 -0.88272864 
-0.1903902 -0.086516574 -0.9778888 
0.6350753 -0.7620743 -0.12618336 
0.27378812 -0.7535115 -0.5977127 
-0.09830592 0.24204229 -0.9652727 
-0.08090761 0.0741355 -0.99396074 
0.024242459 -0.34527647 -0.9381879 
-0.15017155 -0.015942898 -0.9885314 
0.40849966 -0.2512453 -0.8774986 
0.293618 -0.9358119 -0.19505075 
0.2847422 -0.5611049 -0.77722794 
0.5807673 -0.6253717 -0.52117145 
0.5434746 -0.8047398 0.23880823 
0.87710637 -0.4769523 0.05657716 
0.7590473 -0.17591181 0.62681913 
0.5360684 -0.65961415 0.52682066 
0.30311468 -0.7257172 0.61762124 
0.24510282 -0.75811225 0.60430986 
0.35776502 0.10334338 0.9280757 
-0.16236934 -0.6263779 0.76242185 
0.011783586 -0.6112266 0.79136795 
0.11407781 -0.9901764 0.08085271 
-0.50060374 -0.75357443 -0.4260535 
0.17177196 -0.8778714 -0.44703037 
-0.06229774 -0.51986057 -0.8519765 
-0.015728517 -0.65720373 -0.7535489 
0.19935106 -0.88889873 -0.41245404 
-0.4224735 -0.782134 -0.45802027 
0.4088169 -0.6784801 -0.6103553 
0.7816952 -0.59698904 0.18043482 
0.38287476 -0.5038054 -0.77433014 
0.49360922 -0.8466196 -0.19896048 
0.041368585 -0.9401716 0.33818036 
-0.12785663 -0.9588987 -0.2533102 
-0.119494185 -0.9001771 -0.41881055 
0.03129423 -0.8648608 -0.5010355 
-0.10709508 -0.72535574 -0.67999244 
-0.4905058 -0.12714593 -0.86211246 
0.31378508 -0.107348114 -0.9434063 
0.94958305 -0.097676344 -0.29791164 
-0.16473562 -0.9110806 -0.37788168 
0.6399562 -0.7475254 0.17793785 
0.5387492 -0.78338104 0.3099413 
-0.018122725 -0.97220933 0.23341109 
-0.275715 -0.91143435 -0.3053995 
-0.36950126 -0.84878135 0.3782052 
0.2878239 -0.84181434 -0.4566247 
0.07962301 -0.3110295 -0.9470591 
0.3949239 -0.87162554 -0.29035154 
-0.083071776 -0.9782526 -0.19005524 
-0.5335964 -0.82862025 -0.16930285 
-0.4545832 -0.59173644 -0.66573423 
-0.4456609 0.00079569634 -0.89520156 
-0.19308653 -0.20266849 -0.96002245 
-0.6583272 -0.743754 -0.11591083 
0.4076668 -0.8995749 0.15675691 
0.6543268 -0.5161114 -0.55270743 
-0.44191033 -0.30475947 -0.8437044 
-0.058980938 -0.6798181 -0.73100525 
0.3743936 -0.6983525 -0.61002725 
0.0077602533 -0.5043961 -0.8634376 
-0.86591834 -0.24260624 -0.4374104 
-0.7116855 -0.27872902 -0.6448364 
-0.004011901 0.012820874 -0.9999098 
-0.013339369 -0.34840533 -0.93724906 
0.4172345 -0.6880983 -0.5936633 
-0.12516725 -0.99159807 0.032658145 
-0.39472935 -0.87605935 0.27696368 
-0.06581361 -0.9320172 0.35638818 
-0.18414402 -0.96940166 -0.16233164 
-0.5031677 -0.42234042 0.7539568 
-0.215602 -0.70300955 0.67771196 
-0.5921952 -0.611139 0.5251799 
-0.61442196 -0.6448229 0.45463073 
-0.7443821 -0.59243566 0.30808347 
-0.82656395 -0.537254 -0.16778056 
-0.31987694 -0.48658276 -0.8129675 
0.12676379 -0.5355189 -0.8349554 
0.66322535 0.0064887926 -0.7483917 
0.50377935 -0.857727 -0.10252322 
0.33215934 -0.934373 0.12890787 
0.18009874 -0.7781847 0.6016587 
0.5351326 -0.8000388 0.27123967 
0.19840339 -0.973723 -0.11180215 
0.68521625 -0.7245278 0.07441929 
0.6675352 -0.400329 -0.6278006 
-0.24554028 -0.9693767 0.0043590036 
-0.65413475 -0.41915408 -0.6296171 
-0.96589255 -0.18987182 -0.17606936 
-0.5085557 -0.16477674 -0.8451152 
-0.61699545 -0.55544937 -0.55748785 
-0.32030666 -0.77452636 -0.5454473 
-0.5763209 -0.6044017 -0.5500481 
-0.65213495 -0.61431414 -0.44422776 
-0.46412045 -0.47228226 -0.74936086 
-0.3760001 -0.88678086 -0.2687815 
0.30796295 -0.049602237 -0.9501045 
0.5539441 -0.2970511 -0.77775735 
0.29093456 -0.9308534 -0.22106335 
-0.31906807 -0.9308711 0.17797367 
-0.45879635 -0.878054 -0.13611464 
-0.5743904 -0.6471911 -0.501218 
-0.5483099 -0.68624413 -0.4779387 
-0.4468424 -0.85375077 -0.26728544 
-0.793106 -0.38804287 -0.4694739 
-0.4016558 -0.607698 -0.6851101 
0.029620312 0.1375519 -0.9900516 
0.59033173 -0.63835835 -0.49397084 
-0.064014405 -0.58878154 -0.80575335 
0.80762726 -0.34494266 -0.47828126 
0.7078 -0.58184224 -0.40059805 
0.5313633 -0.7980727 0.28413564 
-0.06950456 -0.6017608 0.7956463 
-0.54999125 -0.83445 -0.034685288 
-0.17315859 -0.9737826 -0.14752488 
-0.41069758 -0.88605636 -0.21501581 
-0.7519856 -0.4407231 -0.4901846 
-0.43714836 -0.5522642 -0.70986307 
0.015036373 -0.9722051 -0.23364761 
-0.46149004 -0.6698762 -0.5816295 
-0.26323277 -0.95731014 0.119440086 
0.2710971 -0.8923774 -0.36078957 
-0.3045923 -0.49686134 -0.81262076 
0.25826478 -0.93675464 0.23619953 
-0.039515417 -0.7600116 -0.64870715 
-0.15507029 -0.6770153 -0.71944666 
-0.9486352 -0.22017373 -0.22718918 
-0.9744431 -0.16326205 -0.15429313 
-0.43759164 -0.55681 -0.7060285 
-0.6276883 -0.60104907 -0.4947197 
-0.74540955 -0.5449586 -0.38390726 
-0.66641885 -0.23721685 -0.7068339 
-0.06094738 -0.08156711 -0.9948026 
-0.5974068 0.054083046 -0.8001126 
-0.046959803 -0.20170052 -0.97832084 
0.14366485 -0.34306276 -0.92826104 
0.41425726 -0.6962897 -0.58614975 
0.1470207 -0.39865538 -0.9052397 
0.07834829 0.5208268 -0.85005945 
0.755051 0.6552895 0.02222025 
0.8954681 0.4301625 -0.114442766 
0.9148441 -0.12612729 0.3836042 
0.16768962 -0.069006376 0.9834218 
-0.49146688 -0.24781156 0.83489513 
-0.6204669 -0.46826616 0.6290849 
-0.004051422 -0.68820024 0.7255095 
-0.11498875 -0.8777935 -0.46503353 
-0.59068865 -0.6779719 -0.43753985 
-0.49064714 -0.3879731 -0.78021944 
0.38330844 -0.012258361 -0.9235391 
0.6744666 -0.5742879 -0.46399158 
-0.042974424 -0.9742336 0.2214094 
-0.30626005 -0.90923965 0.2819365 
-0.41995937 -0.8936578 -0.15814531 
-0.938926 -0.3225906 -0.11980577 
-0.607475 -0.41640455 -0.67644763 
-0.6105107 -0.75352585 -0.24387605 
-0.28713176 -0.8114189 -0.5090724 
-0.4328173 -0.7219192 -0.53990924 
-0.7757582 -0.46070385 0.4312207 
-0.43754116 -0.89146024 -0.11771292 
-0.5425304 -0.67224884 -0.5037284 
-0.5921835 -0.72192216 -0.35797653 
-0.94153017 -0.09975979 -0.32182136 
-0.44547477 -0.31168476 -0.83928835 
0.49544802 -0.46617803 -0.73294574 
0.8100347 -0.017110348 -0.5861324 
0.17871277 0.064454794 -0.9817879 
0.15554422 -0.7213852 -0.6748404 
0.026726902 -0.99470544 -0.099232025 
-0.69709164 -0.35062477 -0.62540036 
-0.077971905 -0.9110171 -0.40492997 
-0.5157828 -0.26326928 -0.81526536 
-0.33017042 -0.9166256 0.2253556 
-0.22838192 -0.94379354 -0.23894683 
-0.19213007 -0.9756746 -0.10557005 
-0.6766184 -0.46985465 -0.5669429 
-0.70311123 -0.70924884 -0.050997414 
-0.92948496 -0.3688524 -0.0023961896 
0.118236646 -0.56955975 -0.8134014 
0.06695929 -0.9248825 -0.37431127 
-0.28211567 -0.820531 -0.49713153 
-0.52786416 -0.7833154 -0.32829338 
-0.679722 -0.4860414 -0.5493103 
-0.76120794 -0.41042575 -0.50210875 
-0.68965745 -0.5142245 -0.5098488 
-0.63485533 -0.5843083 -0.5055122 
-0.69432276 -0.118341945 -0.709867 
-0.65746564 -0.62340057 -0.42321485 
-0.6752425 -0.5709427 -0.4669819 
-0.8195015 -0.5663149 -0.08777772 
-0.62400025 -0.7254401 -0.29044858 
0.20794556 -0.79541415 -0.56927603 
0.010960409 -0.87795085 -0.47862548 
0.013426962 -0.99832284 -0.056313843 
0.5420376 -0.76570797 0.3462464 
-0.7571472 -0.5274929 0.38533035 
-0.589987 -0.7057352 0.39224127 
-0.1414891 -0.82031256 0.5541373 
-0.16505383 -0.8312917 -0.53076506 
0.32378235 -0.9419261 -0.08910749 
0.6503393 -0.75771636 -0.0540817 
0.09054 -0.97698236 0.193153 
0.067861594 -0.97021174 0.23255995 
-0.11712727 -0.99068016 -0.069527924 
0.011944276 -0.9967078 -0.080192894 
0.026154438 -0.9654508 0.25926957 
0.61955297 -0.7563518 -0.20996654 
0.061999373 -0.99807376 -0.002241433 
-0.16615133 -0.74529254 0.6457033 
-0.5604431 -0.5442808 0.6242291 
0.3864459 -0.47701064 0.7893798 
-0.01949591 -0.8203306 0.5715573 
-0.01397762 -0.8744547 0.48490587 
0.114653505 -0.87567157 0.46909907 
-0.1993039 -0.8796435 0.4318627 
-0.3029597 -0.8989985 -0.31625512 
-0.087087 -0.9485273 -0.30448633 
0.5271023 -0.72752094 -0.4391772 
0.032827597 -0.9870405 -0.15707815 
0.33148828 -0.9162564 -0.22492148 
-0.14564013 -0.57661825 -0.803928 
-0.16171002 -0.17431445 -0.9713209 
0.012229307 -0.15242255 -0.98823977 
0.67360985 0.5042334 -0.5403688 
0.9917276 -0.027546251 -0.12537032 
0.83425736 -0.43315837 -0.3411577 
0.5904933 -0.7702694 -0.24083774 
0.5331247 -0.82967114 0.16560118 
-0.3678332 -0.91774744 -0.14979465 
0.21790025 -0.9488383 -0.22852902 
-0.32557407 -0.9455145 -0.00200582 
0.00018753606 -0.7867484 -0.61727375 
0.8500733 -0.47823715 0.22060093 
0.69204485 -0.46808502 -0.5495183 
0.8871372 -0.19706102 -0.41731846 
0.478471 -0.8758574 0.06276467 
0.2954906 -0.8003664 -0.52163106 
-0.14331925 -0.9558402 -0.25657225 
0.2322257 0.10295723 -0.9671976 
0.3154589 -0.80649906 -0.50004506 
0.57889575 -0.49871618 -0.6451062 
0.37221482 -0.86754024 -0.329894 
0.83762604 -0.5259838 -0.14739019 
0.58489585 -0.22827837 -0.77832246 
0.7203996 -0.23230429 -0.6534977 
0.27415374 -0.40761536 -0.87102795 
0.6031758 -0.69919205 -0.38380915 
-0.0065697874 -0.9606923 -0.27753785 
0.26590997 -0.88692904 -0.37768862 
0.45210102 -0.73098356 0.5111435 
-0.48648906 0.6333153 0.60186386 
-0.91752464 -0.3769104 0.12683521 
-0.837159 0.019244716 -0.54662097 
-0.60590816 -0.16005218 -0.779268 
-0.116796985 -0.862608 -0.49220505 
0.8058652 0.30899936 -0.50507504 
0.29642516 -0.15354179 -0.9426331 
0.05060899 -0.81819147 -0.5727141 
-0.14378712 -0.10699487 -0.9838076 
-0.5200008 -0.41709977 -0.74540395 
-0.3758694 -0.50234526 -0.7786986 
-0.13644488 -0.29572433 -0.94547874 
0.25147516 0.22301948 -0.94181883 
0.16206919 0.04552605 -0.9857287 
0.29373085 0.099782966 -0.95066595 
0.19930238 -0.03198943 -0.9794158 
0.58957297 -0.11123159 -0.8000197 
0.10989486 -0.7793215 -0.6169126 
0.77987313 -0.54166436 -0.31368393 
0.8612745 -0.42780003 -0.27421418 
0.16929044 -0.9552528 0.24255462 
-0.24370624 -0.8763682 0.41543478 
0.3465276 -0.40774304 0.8447866 
0.17485528 -0.8152878 0.55202496 
0.054650098 -0.51763505 0.8538544 
-0.18920468 -0.833534 -0.5190596 
-0.40947187 -0.532539 -0.7407665 
-0.22800565 -0.93492895 -0.2718846 
-0.16178825 -0.9857895 -0.045208644 
-0.010326178 -0.51073307 -0.85967743 
-0.1448051 -0.49721646 -0.8554574 
0.24122958 -0.49525478 -0.8345843 
0.28876826 -0.3520898 -0.8903065 
0.17167573 -0.48326647 -0.858476 
-0.8730081 -0.43049705 -0.22919267 
-0.43773192 -0.7917469 -0.42606068 
-0.4021315 -0.9133843 0.063398845 
-0.5971756 -0.7900562 -0.13853726 
-0.18258145 -0.89286417 -0.4116523 
0.013963242 -0.57646626 -0.8170017 
0.11250345 -0.20903754 -0.9714146 
0.33241996 -0.38063964 -0.8629081 
0.3089834 -0.4757084 -0.8235478 
0.09610262 -0.83889884 -0.5357361 
0.5326793 -0.119707406 -0.83780843 
0.72658575 -0.6438621 -0.23982245 
-0.17911325 -0.93126357 -0.31728017 
-0.16051623 -0.9563259 -0.24428567 
0.5922586 -0.5928951 0.54562366 
0.15617156 -0.86139554 0.48333043 
0.16748299 -0.9838865 -0.06258545 
0.6109487 -0.6290002 -0.48072925 
-0.3830903 -0.32605612 -0.86425066 
0.0014786294 -0.46487617 -0.8853745 
0.24534531 -0.90516275 -0.34711117 
-0.3575043 -0.932031 0.059237447 
-0.63044137 -0.6873644 -0.3606577 
-0.3312647 -0.6386118 -0.6945781 
-0.010448735 -0.6723433 -0.7401658 
0.2956261 -0.9010617 -0.3173219 
0.16212815 -0.8698154 -0.46597815 
0.22361955 -0.77649844 -0.589105 
0.505869 -0.48391938 -0.71408594 
0.2881978 0.3001252 -0.9093222 
-0.12185571 -0.14977351 -0.9811826 
-0.030261569 -0.18730842 -0.98183495 
0.20573305 -0.7706913 -0.60308295 
0.25711116 -0.5812481 -0.7720392 
0.5355027 -0.66164386 -0.524847 
0.029659973 -0.9804672 -0.1944334 
0.13352077 -0.79011595 -0.5982382 
0.25684565 -0.96015936 -0.11011033 
-0.19249766 -0.82282484 -0.53469974 
-0.4234902 -0.84751445 -0.3199618 
0.5408136 -0.83532465 0.09875928 
-0.37439698 -0.6673778 0.64376533 
-0.0603602 -0.74536157 0.66392237 
-0.15546668 -0.8999991 0.40722466 
-0.54297554 -0.7555121 0.36657754 
-0.8515626 -0.058998175 -0.5209226 
-0.6443762 -0.053893186 -0.7628072 
-0.30930373 -0.07132515 -0.94828475 
0.14102776 -0.38731197 -0.91109866 
0.3796363 -0.2025276 -0.9026954 
0.46426663 -0.6787117 -0.56904036 
0.2483857 -0.9615392 -0.11724713 
0.45214272 -0.8814594 0.1363683 
0.34135878 -0.90321696 -0.26014122 
-0.5418541 -0.8132215 -0.21228513 
-0.13321689 -0.95809096 -0.2536043 
0.27939865 -0.5151032 -0.81031173 
-0.3573728 -0.8720439 -0.33440143 
-0.54452074 -0.564826 -0.6200555 
-0.4982033 -0.6512592 -0.57241166 
-0.82123435 -0.25488502 -0.51049775 
-0.39079827 -0.60734504 -0.69167095 
0.04168597 -0.6786513 -0.7332767 
-0.16513997 -0.84859914 -0.5026015 
-0.23767117 -0.49460527 -0.83598936 
-0.010030781 -0.6439599 -0.7649936 
-0.3475401 -0.13563228 -0.92780375 
-0.46589753 -0.16949698 -0.86845285 
0.13316095 -0.8043199 -0.5790835 
-0.22241311 -0.73001635 -0.64622647 
-0.16603057 -0.8401362 -0.5163383 
-0.17202806 -0.71375656 -0.67893887 
-0.26071554 -0.96266156 -0.07287044 
-0.32186046 -0.9287183 -0.18408746 
-0.23434891 -0.34282526 -0.9096986 
-0.41408405 -0.6480782 -0.63916284 
0.081190914 -0.7709706 -0.63167423 
-0.10452116 -0.08508558 -0.9908763 
-0.50644195 0.19352417 -0.8402768 
-0.46274874 -0.038596503 -0.88564897 
0.25886434 -0.57252604 -0.77794814 
0.631865 -0.11115873 -0.76706606 
-0.09275898 -0.48941875 -0.8671016 
0.35024837 -0.885406 -0.3055851 
-0.5685195 -0.8058017 -0.16573846 
-0.59841937 -0.7812085 -0.17778544 
-0.067166306 -0.89241284 -0.4461928 
-0.04960018 -0.5045137 -0.8619778 
-0.03371495 -0.6564533 -0.7536129 
0.0031307864 -0.9150546 -0.40331808 
0.19760162 -0.38261142 -0.90253097 
0.54220366 -0.76540613 -0.3466537 
-0.0046678637 -0.7967376 -0.60430735 
-0.6894418 -0.5239922 -0.5001022 
-0.4414702 -0.8964496 -0.038501427 
-0.71937114 -0.6913475 -0.067408584 
-0.72211075 -0.3820453 -0.57671267 
-0.93783617 0.3448976 -0.038847122 
-0.71406376 0.22710486 -0.6622208 
-0.5607379 -0.6139579 -0.55554366 
-0.6041434 -0.2840911 -0.74451536 
-0.71830577 -0.62705404 -0.3013969 
-0.3842654 -0.5172298 -0.7647311 
-0.2931505 -0.2543784 -0.9216042 
0.4586817 0.32456297 -0.8272062 
0.029852606 0.7567408 -0.65303314 
0.24553573 -0.32148632 -0.9145265 
0.8083763 -0.106413394 -0.578968 
0.3151182 -0.22332996 -0.92240137 
0.0023682925 0.11144119 -0.9937682 
0.28640354 -0.08270799 -0.9545326 
0.72640055 -0.3868152 -0.56808126 
0.6925896 -0.6778075 -0.24677266 
-0.19516268 -0.3110136 0.93015164 
-0.82677555 -0.07742049 0.5571788 
-0.6197474 -0.31293404 0.71971214 
-0.77429426 -0.63078505 0.050780356 
-0.28206435 -0.81672955 -0.5033811 
-0.15061834 -0.08869749 -0.984605 
-0.4074085 0.1827196 -0.89478034 
-0.001846117 -0.653092 -0.7572763 
0.2027458 -0.5487479 -0.8110302 
-0.344565 -0.7393931 -0.5784226 
-0.0086313225 -0.993181 -0.11626297 
-0.3707097 -0.81694853 -0.4417798 
-0.62107104 0.36355338 -0.69433403 
-0.6745627 -0.011788549 -0.7381235 
-0.2258704 -0.68448067 -0.6931586 
-0.27496034 -0.39285344 -0.8775323 
-0.5624654 -0.7994254 -0.21107294 
-0.68256515 -0.69943553 -0.2118838 
-0.10719519 -0.98885345 -0.10333537 
-0.45079884 -0.46779403 -0.76022965 
-0.29309896 -0.04383845 -0.9550766 
-0.46078074 -0.59881246 -0.65506095 
-0.066352054 -0.46326914 -0.88373035 
0.48534676 -0.3749303 -0.78985184 
0.89871407 -0.3979172 -0.18432313 
-0.10483814 -0.23312128 -0.96677995 
-0.04375788 -0.5465598 -0.8362762 
0.027904373 -0.56980735 -0.82130444 
-0.3262787 -0.10644995 -0.9392607 
-0.1966915 -0.42149216 -0.8852439 
-0.036124405 -0.34172514 -0.9391055 
-0.71216434 -0.6869352 -0.14471391 
-0.47936437 -0.05267959 -0.87603354 
-0.5553438 -0.5178679 -0.65069664 
-0.4396585 -0.8060945 -0.3961213 
-0.52339655 -0.80733746 0.27251107 
-0.50600797 -0.8212613 -0.26360154 
-0.025216226 -0.971457 -0.23587164 
0.29533917 -0.95439655 0.043611497 
-0.14965127 -0.98588806 -0.07502883 
0.17224033 -0.961985 -0.21193907 
-0.53268594 -0.6132498 -0.5832413 
-0.49983352 -0.3428249 -0.79538524 
-0.8758782 -0.008473169 -0.48245803 
-0.17410956 -0.7022708 -0.690291 
-0.7715398 -0.2993732 -0.5613395 
-0.6898378 -0.717224 -0.09855785 
-0.6765724 -0.6985793 -0.23288806 
-0.61069864 -0.6489406 -0.4537878 
-0.10435103 -0.8349982 -0.54026747 
-0.13829398 -0.9767596 -0.16375464 
-0.834727 -0.1802225 -0.5203371 
0.03296342 -0.59209305 -0.80519515 
0.12708451 -0.979486 0.1563869 
0.17972533 -0.97859186 0.10028398 
-0.21152012 -0.9446768 0.25068933 
-0.06557959 -0.92397606 -0.37678596 
0.52351624 -0.58517283 -0.6192766 
-0.5074653 -0.49962375 -0.70203644 
0.062427476 -0.8738342 -0.48219985 
0.19277886 -0.59873235 -0.7774033 
0.37007254 -0.70322084 -0.60706407 
-0.15017347 -0.9561138 -0.2515836 
-0.2191456 -0.76321214 -0.60785073 
0.31579885 -0.94421077 -0.09347332 
0.082698256 -0.9835522 -0.16058055 
-0.10810057 -0.99374926 0.02786875 
0.3815732 -0.8976052 0.2206962 
0.7553176 -0.6036484 0.25515494 
0.49273676 -0.7984426 -0.34597695 
-0.09241225 -0.8975897 -0.4310369 
-0.58603954 -0.7055997 -0.39835507 
0.021161068 -0.96709585 0.25353083 
-0.11151643 -0.9895909 -0.09096159 
-0.23158695 -0.95604366 -0.17985594 
-0.07764983 -0.9210611 -0.38159806 
0.46269068 -0.4353612 -0.7722551 
-0.1613914 -0.84260184 -0.51378495 
-0.23847318 -0.58395714 -0.77596694 
0.3650479 -0.25553015 -0.8952343 
0.071047425 0.2999352 -0.9513103 
0.28606257 0.4581209 -0.84160167 
0.8341247 0.30062103 -0.46245342 
0.6197181 -0.6144972 -0.48820356 
0.68697643 -0.62804735 -0.3655408 
0.3371203 -0.38378632 -0.8596848 
-0.6653749 -0.6605447 -0.34778884 
0.051256478 -0.79953605 -0.5984271 
0.79134476 -0.2342655 -0.5647062 
0.66095793 -0.68039525 -0.31653905 
0.60079974 -0.7225327 -0.3420325 
-0.2603501 -0.7643984 -0.58984137 
0.5605161 -0.6880024 -0.46094942 
0.5842979 -0.8001859 -0.13527226 
0.518261 -0.85290176 0.06296089 
-0.20699029 -0.9252088 -0.318031 
0.18846582 -0.81140745 -0.5532619 
0.32197046 -0.2691314 -0.9076913 
0.43201128 -0.6356435 -0.6397841 
0.7835713 -0.044943973 -0.6196742 
0.087439835 -0.43764713 -0.8948852 
0.32489952 -0.10553236 -0.9398421 
0.69675404 -0.30263945 -0.65034086 
0.4303951 -0.38317657 -0.8172733 
-0.13657688 -0.61781317 -0.77437305 
0.2710115 -0.39225286 -0.8790281 
0.5947679 -0.42853838 -0.68015146 
0.893992 -0.3621177 -0.2639111 
0.97989774 0.037500087 0.1959448 
-0.46011814 0.39659333 0.7943582 
-0.84658146 -0.485029 -0.2191953 
-0.60682255 -0.6440268 -0.46582833 
-0.45761517 -0.27999672 -0.84391373 
0.60217655 -0.1792564 -0.7779785 
0.75260305 -0.19470762 -0.62902915 
0.11727555 -0.41135752 -0.9038979 
0.3951156 -0.5246676 -0.7540608 
0.3687679 -0.4205931 -0.82892203 
0.027079944 -0.66150653 -0.7494504 
0.04367219 -0.5363192 -0.8428846 
0.33654183 -0.14375369 -0.93063134 
0.14523557 -0.38138682 -0.9129352 
0.085307404 -0.03505432 -0.99573785 
0.48769143 0.010143299 -0.8729572 
0.5474022 -0.028805813 -0.83637375 
0.65851367 0.08766753 -0.74744517 
0.36141855 -0.58844894 -0.7232597 
0.21714851 -0.35275304 -0.9101714 
0.90930694 -0.1624958 -0.38308752 
0.5951323 -0.8035451 -0.011528986 
0.64556944 -0.7510535 0.13841513 
-0.0250562 -0.96669143 -0.25471517 
-0.3167147 -0.9446749 0.08532993 
-0.5921306 -0.7903624 -0.15718967 
0.06788175 -0.9127781 -0.40277588 
-0.39748526 -0.78438497 -0.47617823 
-0.68551064 -0.52455205 -0.50489634 
-0.6624515 -0.67356145 0.3278307 
-0.33861455 -0.4831165 -0.8074272 
-0.48554564 -0.42339563 -0.764841 
-0.5272239 -0.254917 -0.8105877 
-0.22496024 -0.6132947 -0.757141 
-0.7915898 -0.23139001 -0.56554776 
-0.13603915 -0.5938917 -0.7929604 
-0.8592717 -0.35632443 -0.3669945 
-0.7418407 -0.20532742 -0.6383675 
-0.79761684 -0.34900802 -0.49193585 
-0.22077662 -0.03096013 -0.9748329 
-0.24216986 -0.8839433 -0.39999774 
-0.32364634 -0.94602156 0.017215425 
0.4562832 -0.67153865 -0.5838163 
-0.26967666 -0.37609756 -0.88646775 
-0.17021842 -0.2783606 -0.94527304 
0.70679283 -0.2407625 -0.66518974 
0.23300196 -0.41726398 -0.8784082 
-0.3083103 -0.9068328 -0.28740045 
-0.07051069 -0.8687045 -0.49028644 
-0.059778262 -0.9980534 0.017780585 
0.34380752 -0.93898135 0.010510752 
0.17688595 -0.79099435 -0.58569574 
-0.11663665 -0.39642596 -0.91062754 
0.5410246 -0.095007166 -0.8356232 
0.09106369 -0.35690787 -0.9296904 
-0.3750019 -0.5634024 -0.7361735 
-0.57126606 -0.2809682 -0.77117574 
0.02598658 -0.34043744 -0.939908 
0.069608174 -0.3619176 -0.92960775 
0.18916218 -0.3078518 -0.93244034 
0.2323912 -0.70155746 -0.6736554 
0.23388569 -0.701923 -0.67275673 
0.24439597 -0.30550537 -0.9202919 
0.81399035 -0.1518157 -0.5606886 
0.10189746 -0.02351376 -0.99451697 
0.4747588 0.4516073 -0.75541705 
0.6157802 -0.4173718 -0.6682931 
-0.13704315 -0.35261232 -0.9256802 
0.43699127 -0.34891903 -0.82903206 
0.4371792 -0.74077255 -0.5100298 
-0.14642744 -0.35733104 -0.92242813 
-0.6940348 -0.578179 -0.4289811 
-0.26733705 -0.9601773 0.08118115 
-0.6455564 -0.73857504 -0.19432957 
0.13920352 -0.7509632 -0.6455051 
0.8792417 -0.28304052 -0.38317394 
0.02890635 -0.88300675 0.46846935 
-0.22182572 -0.8297601 -0.51214415 
-0.2578152 -0.94672877 0.19296667 
-0.7037028 -0.6991993 0.12618558 
-0.32968178 -0.6051437 -0.7246455 
-0.48310822 -0.46700975 -0.7406135 
0.0060285465 -0.24067637 -0.9705867 
0.141715 -0.6002456 -0.7871608 
0.29398775 -0.64019436 -0.70973414 
0.34807763 -0.42323977 -0.8364867 
-0.34709495 -0.85971117 -0.37472928 
-0.6183589 -0.31034327 -0.72202456 
0.17748559 -0.37452373 -0.91007197 
-0.23547065 -0.631636 -0.7386404 
-0.16599463 -0.7765608 -0.60778224 
0.069679245 -0.19854283 -0.97761226 
-0.30358166 -0.7958989 -0.52381593 
-0.2862912 -0.679746 -0.67526495 
0.609488 -0.61095834 -0.50522697 
0.34006307 -0.7462598 -0.5722356 
-0.2247296 -0.60035354 -0.7675105 
-0.59511966 -0.37061423 -0.71307623 
0.07701898 0.06808665 -0.99470216 
-0.031632178 -0.032082792 -0.9989846 
-0.34210968 -0.2822729 -0.89626056 
-0.77255446 0.38982484 -0.50119495 
-0.6405827 -0.32784095 -0.6943877 
-0.17215602 -0.35885215 -0.91738075 
0.19555782 -0.25189322 -0.9477906 
-0.17053196 0.08339129 -0.98181707 
0.40463138 -0.7728162 -0.48890564 
-0.097750075 -0.9930845 -0.06502402 
-0.12811065 -0.72718465 -0.67438143 
-0.23712747 -0.5830217 -0.77708197 
0.019060591 -0.5873567 -0.8091038 
0.29602626 -0.06684888 -0.9528377 
0.31660113 -0.058232073 -0.9467697 
-0.099050485 -0.037750445 -0.9943661 
0.036857627 0.20933655 -0.9771488 
0.048814975 0.08006284 -0.9955939 
0.14035459 -0.3886213 -0.91064495 
-0.034260012 -0.60137004 -0.7982359 
0.58186036 -0.69671315 -0.41955855 
0.14085971 -0.65920925 -0.73864865 
-0.018159952 -0.61215025 -0.79053295 
-0.19810443 -0.6265236 -0.7538056 
-0.30900487 -0.9008795 -0.30484784 
-0.53733236 -0.7706077 -0.34269193 
-0.40828577 -0.8664892 -0.28722674 
-0.37494227 0.08005354 -0.92358524 
-0.2968236 -0.17924604 -0.9379588 
-0.022772042 -0.82250303 -0.56830484 
-0.64932925 -0.33074218 -0.684822 
-0.100585654 -0.92894506 -0.3562915 
-0.67898947 -0.7216861 -0.1346943 
0.041380048 0.26258308 -0.9640217 
-0.6298484 0.36487314 -0.68568116 
0.05146659 -0.20129688 -0.9781773 
-0.33772686 -0.17764005 -0.92432934 
-0.45000774 -0.38292596 -0.8067595 
-0.2531532 -0.49525943 -0.83104247 
-0.2957108 -0.70662373 -0.642836 
0.048839804 -0.43784076 -0.897725 
-0.06746722 0.09057886 -0.9936014 
-0.6209099 0.29147232 -0.72767764 
0.20775737 0.118288934 -0.97100186 
0.2778091 -0.27259368 -0.92114866 
0.10309406 -0.015806854 -0.994546 
0.6837591 -0.024853213 -0.72928447 
0.65104866 0.2821271 -0.70465595 
0.57295984 -0.6373895 -0.5152201 
0.56277716 -0.7887954 -0.24715135 
0.31574216 -0.8938107 0.3184483 
-0.6663375 -0.6393983 0.38361987 
-0.61987764 -0.7814639 0.07117411 
-0.6995532 -0.65871733 0.27697808 
-0.41417262 -0.885425 -0.21091181 
-0.5609925 -0.81616825 0.13840835 
-0.27964082 -0.3068517 -0.90974885 
-0.50006497 -0.7891769 -0.35655978 
-0.86879915 -0.48506716 -0.09948861 
-0.43468887 -0.90012175 -0.028746575 
-0.38078177 -0.92434347 -0.024383651 
-0.6293027 -0.41974637 -0.6540575 
-0.49500316 0.5121608 -0.7018997 
-0.20990089 -0.356004 -0.9106058 
0.28503653 -0.73630947 -0.6136795 
0.23793712 -0.7672653 -0.59555846 
0.3191569 -0.87309074 -0.36858034 
-0.6387136 -0.7619075 -0.10743335 
-0.8783526 -0.37486246 -0.29660574 
-0.64447796 -0.5782343 -0.5002933 
-0.27979636 -0.5673765 -0.77446634 
-0.26742065 -0.7962298 -0.5426825 
0.30261502 -0.10535639 -0.947272 
0.6809488 -0.2774254 -0.6777492 
0.7782995 -0.1696451 -0.60454166 
0.4986569 -0.6156168 -0.61021096 
0.11382535 -0.57979554 -0.80677193 
0.54131454 -0.19239677 -0.8185122 
0.210446 -0.77466977 -0.59632164 
0.2392453 -0.41424862 -0.8781571 
-0.31733385 -0.81752396 -0.4805766 
-0.5624991 -0.21777222 -0.7976027 
0.07906755 -0.27241787 -0.9589249 
-0.45958018 -0.38194948 -0.80181086 
0.061150644 -0.78111845 -0.6213813 
-0.21473122 -0.8895651 -0.4031927 
-0.42100972 -0.89537036 -0.14513019 
0.5996422 -0.7922335 -0.11311673 
-0.44457963 -0.8917603 -0.08433702 
0.4605009 -0.20715423 -0.8631489 
-0.13376434 -0.7298829 -0.6703567 
-0.709123 0.28144026 -0.64647967 
-0.19152726 0.09339621 -0.9770335 
-0.28783274 -0.48808858 -0.8239673 
-0.4073231 -0.44976532 -0.7948579 
-0.44251245 -0.28255376 -0.8510853 
-0.43457314 -0.51919025 -0.73592645 
-0.49814522 -0.7091969 -0.49888977 
-0.48959607 -0.7924424 -0.3637731 
-0.22449154 -0.957902 0.17896183 
0.09235773 -0.9123817 0.39878544 
0.24658646 -0.7768249 -0.5794294 
0.14958863 -0.4651283 -0.87251306 
0.06526043 -0.7500711 -0.6581295 
-0.32594985 -0.4872793 -0.81013316 
-0.4307246 -0.76887023 -0.47256216 
-0.71750146 -0.5999127 -0.35397232 
0.36907634 -0.92244256 0.11350105 
-0.10955527 -0.8491502 -0.516664 
0.6730069 -0.53876585 -0.50674766 
0.3853075 -0.8938132 -0.22942565 
0.3612248 -0.91544175 0.17743516 
0.47600037 -0.82055515 -0.31640634 
0.35692126 -0.8522046 -0.38256308 
0.7193642 -0.4242821 -0.5499999 
0.02174722 -0.2895529 -0.956915 
0.15607029 -0.8973483 -0.41280547 
0.3806863 -0.8657124 -0.32499248 
0.5469515 -0.81033903 0.21022569 
0.45084777 -0.87797475 -0.16092503 
0.144262 -0.9481642 -0.28314868 
-0.48755434 -0.87015086 -0.07161232 
-0.18275657 -0.9828297 0.025415331 
-0.08470074 -0.9897626 -0.11487349 
0.08824018 -0.91272813 -0.39892483 
0.18268825 -0.48819202 -0.85340124 
0.60842174 -0.5352047 -0.5859855 
-0.30335653 -0.6096948 -0.73228896 
-0.045332506 -0.55482775 -0.83072937 
-0.4081558 -0.46582147 -0.7851237 
-0.21004042 -0.506617 -0.8361952 
0.62358344 0.44188228 -0.6448906 
0.7025827 0.7004758 -0.12534454 
0.26094377 0.22570136 -0.9385985 
0.62633795 -0.18409625 -0.75750214 
0.5747397 -0.19908056 -0.79375136 
0.5449229 -0.2029339 -0.8135581 
0.06671571 -0.7546304 -0.65274966 
0.5747172 -0.31443414 -0.7555339 
0.59970665 -0.4312415 -0.6740791 
0.16627249 -0.6397567 -0.7503766 
-0.18888006 -0.7443884 -0.64047664 
0.028249938 0.1233718 -0.9919583 
0.25434995 -0.7181809 -0.6477055 
0.30707404 -0.8614279 -0.404534 
0.30407414 -0.41235423 -0.8587799 
0.823872 -0.046882723 -0.5648336 
0.6411268 -0.20480788 -0.73960143 
0.40992412 -0.18545762 -0.8930664 
0.18030897 -0.49752504 -0.8485032 
0.3944465 -0.7921004 -0.4658208 
0.50974536 -0.23791793 -0.8267737 
-0.09043523 -0.39106143 -0.9159108 
0.29776543 -0.6026729 -0.74035203 
0.75413257 -0.5768717 -0.31385225 
0.4311121 -0.47787392 -0.76536185 
0.8810593 -0.16036017 -0.44499362 
0.80485827 -0.58232665 0.11445069 
0.93287975 -0.24802613 0.26118684 
-0.23944381 -0.26763913 0.93329316 
-0.773615 -0.5390723 0.33304796 
-0.72746885 0.016871383 -0.6859333 
-0.49976465 0.35995567 -0.7878245 
0.2966814 0.27608174 -0.91419864 
-0.53915393 0.03316217 -0.8415541 
-0.5544779 -0.56370497 -0.6122018 
0.2603433 -0.41153347 -0.87341946 
0.39347178 -0.531775 -0.74993026 
-0.081521794 -0.1429714 -0.98636377 
0.23107196 -0.43168452 -0.8719256 
0.0064220205 -0.23828398 -0.9711743 
-0.43411714 -0.3894194 -0.8123391 
-0.14667185 0.12360376 -0.98143244 
0.16470107 0.6530586 -0.7391807 
-0.08271618 0.5640601 -0.82158035 
0.21077311 -0.018615635 -0.9773578 
0.42936203 -0.48602167 -0.76120377 
0.760952 0.28409293 -0.58330387 
0.5269944 -0.82414347 -0.2075201 
-0.3819658 -0.76996595 -0.5111306 
0.28028154 -0.86387247 -0.4185294 
-0.51208884 -0.85499054 -0.082195766 
-0.15433772 -0.9864066 0.05640805 
-0.6814835 -0.43276295 -0.59016657 
-0.3607519 -0.62159586 -0.69532484 
-0.20013346 -0.6072404 -0.768899 
-0.07528681 -0.630414 -0.7725996 
-0.5475236 -0.20654206 -0.81089973 
-0.61032546 -0.49877205 -0.61540985 
-0.17870714 -0.20099814 -0.9631529 
0.48007706 0.09679688 -0.87186956 
-0.046000693 -0.2872678 -0.95674515 
-0.869561 -0.1309623 -0.4761434 
-0.21680935 -0.40283147 -0.8892247 
-0.55636847 -0.1909439 -0.80869937 
-0.6510392 0.28744945 -0.7025105 
-0.90756774 -0.33218306 -0.25685644 
-0.6459576 -0.41838393 -0.63850904 
0.36554393 -0.1283456 -0.92190295 
-0.17136389 -0.9656184 -0.19548844 
-0.36680084 -0.4606032 -0.8082709 
-0.3479637 0.0357129 -0.93682766 
-0.6544501 -0.66231614 -0.36473623 
0.20055068 -0.2605009 -0.94441456 
0.5202092 -0.30236992 -0.7987208 
-0.35597622 0.0539976 -0.9329336 
-0.0024444438 -0.96593934 -0.2587572 
-0.45223194 -0.56580824 -0.6894543 
0.41869903 -0.2092391 -0.88369125 
0.26984367 -0.23227422 -0.9344694 
-0.06693847 -0.27014086 -0.9604912 
-0.23191877 0.3100492 -0.9219995 
0.23045956 0.17051135 -0.95802635 
-0.72015464 -0.5826204 -0.37673703 
-0.09640409 -0.39452243 -0.9138153 
0.1744386 -0.35815653 -0.9172214 
0.07624949 -0.12806103 -0.98883086 
0.72424823 -0.40852928 -0.55548936 
-0.0053303246 -0.82257164 -0.5686366 
-0.07041324 -0.92618483 -0.3704372 
-0.06587372 -0.56229556 -0.8243085 
0.58554167 0.09014682 -0.8056144 
0.36586052 0.20564224 -0.9076659 
-0.08643274 0.15154703 -0.98466384 
-0.2115567 -0.3661785 -0.9061772 
-0.078800775 -0.3162555 -0.9453957 
0.16339561 -0.39199787 -0.9053395 
0.19820045 -0.5627378 -0.8025227 