# OOMMF: rectangular mesh v1.0
# Segment count: 1
# Begin: Segment
# Begin: Header
# Desc: Time (s) :  5.590000000000009e-07
# Title: m
# meshtype: rectangular
# meshunit: m
# xbase: 2e-09
# ybase: 2e-09
# zbase: 5e-10
# xstepsize: 4e-09
# ystepsize: 4e-09
# zstepsize: 1e-09
# xmin: 0
# ymin: 0
# zmin: 0
# xmax: 1.024e-06
# ymax: 1.024e-06
# zmax: 1e-09
# xnodes: 256
# ynodes: 256
# znodes: 1
# ValueRangeMinMag: 1e-08
# ValueRangeMaxMag: 1
# valueunit: 
# valuemultiplier: 1
# End: Header
# Begin: Data Text
-0.045373473 -0.1708202 0.9842569 
0.13351601 0.06040302 0.9892042 
-0.09916728 -0.46044967 0.8821292 
-0.5647806 -0.8151456 0.12868795 
-0.85388225 -0.054864295 -0.5175665 
-0.9047071 0.23608509 -0.35463944 
-0.8557696 -0.38024935 0.3508118 
-0.7736637 -0.37494797 0.5107433 
-0.78351045 -0.5691189 -0.2494298 
-0.45348606 -0.652731 -0.60687125 
-0.45289093 -0.83059376 0.32404315 
-0.7965496 -0.6027205 -0.04729526 
-0.8030367 -0.45717248 0.3822637 
-0.9182239 -0.32910275 -0.22035491 
-0.051071905 -0.888175 -0.45665845 
0.038892433 -0.9290189 -0.36798277 
0.023726057 -0.94233704 0.33382353 
0.64265794 -0.6705732 0.37057054 
0.22771998 -0.39163116 -0.89149797 
0.4246511 -0.4312957 -0.7960248 
-0.08932894 0.00926436 -0.99595916 
-0.15719385 0.2713123 -0.9495683 
-0.25509396 0.55932295 -0.7887236 
-0.4137111 0.14263685 -0.8991652 
-0.055084556 0.655549 -0.75314087 
-0.4208241 0.47141504 -0.7750323 
-0.017777912 0.7108838 -0.70308477 
-0.0066347355 0.59689885 -0.8022891 
-0.4785567 0.48409703 -0.7325528 
-0.3952024 0.32101142 -0.86067814 
-0.36929742 -0.7025246 -0.60834086 
-0.21284482 -0.5623033 -0.7990695 
0.04565009 -0.09882319 -0.99405736 
0.86688894 -0.45946705 0.19337454 
0.1761225 -0.7726158 -0.6099556 
0.8011433 -0.5878675 0.11216634 
-0.22107084 -0.8966717 0.38354623 
0.4039822 -0.81885475 0.4077686 
0.1890792 -0.9819125 -0.0098488955 
-0.20693995 -0.9247835 0.31929815 
0.6096846 -0.746788 0.26569232 
-0.123449154 -0.6614922 0.73972183 
0.93824416 -0.2609487 0.22716472 
0.927583 0.03262678 -0.37219018 
0.9671982 0.1338273 0.21591187 
0.48037195 0.20011552 0.8539302 
0.8075086 -0.23892334 0.53930104 
0.19258665 0.3870037 0.901742 
-0.46614304 -0.5188416 -0.7165989 
0.43752128 -0.72101814 -0.5373156 
-0.043330766 -0.6176594 -0.7852511 
0.0361439 -0.7188737 -0.6942005 
0.07769514 -0.8154585 -0.5735775 
0.015161911 -0.28218454 -0.95924044 
0.75492436 -0.63974994 -0.14425461 
0.6038206 -0.7336449 -0.31171435 
-0.4811849 -0.703786 0.522634 
-0.27670228 -0.953686 -0.117978014 
0.2751007 -0.9319749 -0.23609836 
-0.7790649 -0.0023792826 -0.6269388 
-0.78191245 -0.35540643 -0.51215154 
-0.65890944 -0.75122994 0.038625397 
0.50703543 -0.85054106 -0.13962509 
0.09630946 -0.96680087 0.23668672 
0.068012215 -0.98126245 -0.18027312 
-0.38107085 -0.4562285 -0.80413973 
-0.22548535 -0.5393718 -0.8113165 
0.34983858 -0.5825985 -0.73361576 
-0.7282539 -0.14810872 -0.66911143 
0.019956565 -0.55098265 -0.8342781 
0.23039526 -0.16169284 -0.9595695 
0.38780975 -0.13240698 -0.9121798 
0.5438883 -0.1199058 -0.8305469 
0.6837632 -0.28828356 -0.6703436 
0.7272762 -0.59173626 -0.34773213 
-0.21948338 -0.84285784 0.491343 
-0.43165886 -0.8865605 0.16637695 
0.14895853 -0.9888306 -0.0050411345 
0.88587815 -0.4301221 -0.17382479 
0.07354238 -0.75687087 0.64941376 
-0.61432135 -0.2486054 0.74886894 
-0.18457527 -0.57767755 -0.7951231 
-0.0923901 -0.45179963 -0.88732255 
0.6165065 -0.6849347 -0.38830948 
0.3918247 -0.7880518 0.47481358 
-0.23090306 -0.20524926 0.9510818 
-0.84318024 -0.4745185 -0.2527438 
-0.7348227 -0.6778402 -0.0238399 
-0.75866616 -0.56897974 -0.3173136 
-0.27762198 -0.4738925 -0.8356746 
-0.8710979 -0.39399183 -0.2931878 
-0.059154473 -0.90623903 -0.41860673 
-0.02484494 -0.98102796 -0.19226776 
0.33127698 -0.8872776 0.32092687 
0.0741294 -0.77903616 0.6225813 
-0.16021413 -0.8390381 0.5199488 
-0.74279463 -0.6542062 0.14237447 
-0.65033364 -0.5970663 -0.46965742 
-0.8000577 -0.5984711 0.041715477 
-0.29764545 -0.94461334 -0.13824962 
-0.55315185 -0.811711 0.18747877 
-0.050623417 -0.8500574 -0.52425176 
0.7402142 -0.4863601 -0.46425936 
0.58486634 -0.6850658 0.4342998 
0.36175254 -0.6558276 0.6625899 
-0.41167367 -0.8757126 0.25229457 
-0.81030387 0.1904561 -0.55419683 
-0.43324324 -0.053027824 -0.8997157 
-0.4457696 0.2735325 -0.8523318 
-0.14489032 0.06742545 -0.9871478 
0.18810737 0.30510366 -0.9335563 
0.79263186 -0.1730114 -0.5846382 
0.98214895 0.089036025 0.16569881 
0.68501353 -0.6222087 -0.37896287 
0.95129985 -0.11172667 0.28730804 
0.58394873 -0.11476191 0.80363774 
0.7424729 -0.63268316 -0.22010487 
0.8526534 -0.32783663 -0.40682358 
0.72044176 -0.6290066 -0.29208642 
0.31618616 -0.94841087 -0.023308367 
-0.29731402 -0.87758017 0.37610826 
0.2818181 -0.9557828 -0.08401103 
0.11711039 -0.94110763 -0.3171776 
0.36288056 -0.78215396 -0.50651056 
-0.057100285 -0.7393313 -0.6709164 
0.37512583 -0.9211026 0.10416697 
0.18589747 -0.96519613 -0.1839526 
0.70027435 -0.67173845 0.2416265 
-0.07846486 -0.846875 0.52597153 
-0.25504312 -0.9380422 -0.23458457 
-0.053868253 -0.96864253 0.2425486 
-0.93155473 -0.33153668 -0.14929597 
-0.6155806 -0.032598205 -0.7873995 
-0.5764881 0.776608 -0.25405025 
0.038935408 0.49710825 -0.86681455 
0.5686646 0.48501197 -0.6643674 
-0.13337575 -0.5010189 -0.8550972 
-0.37974882 0.32317224 -0.86680484 
-0.060636178 0.6092555 -0.79065233 
0.5288537 -0.39135972 -0.75309455 
0.1296407 -0.31134713 -0.9414119 
0.53322506 -0.5171391 -0.66950595 
0.58276 -0.7724185 -0.2525085 
-0.56408006 -0.81611216 0.12559703 
-0.7248803 -0.29416642 -0.6229083 
-0.27325755 -0.6558231 -0.7037233 
0.009519721 -0.3062961 -0.95188874 
0.5683203 -0.8161142 -0.10473699 
0.9123311 -0.36512706 -0.18529509 
0.84922266 -0.41680875 -0.32417816 
0.37588716 -0.7105709 0.5948091 
-0.0064715827 -0.9997097 -0.023210317 
0.6005317 -0.7717449 0.20921649 
0.73250085 -0.29628703 0.6129083 
0.86179703 -0.3089658 0.40230092 
-0.45006186 -0.85866094 -0.24524663 
-0.7403723 -0.6709235 -0.041359987 
0.044177566 -0.9381061 -0.34351927 
-0.10477179 -0.9615697 0.25378445 
0.06814163 -0.97842497 -0.19504216 
-0.55857116 -0.6060646 0.56628966 
-0.60332 -0.7265936 -0.32873514 
-0.9554737 -0.18513961 -0.22976804 
-0.7349856 -0.3335834 -0.5903544 
-0.075051084 0.265401 -0.96121264 
0.31862047 -0.37313312 -0.87135106 
-0.45003834 -0.40379438 -0.7965021 
0.35682914 -0.3578744 -0.8629015 
0.68132627 -0.5143183 -0.52083707 
0.39453217 -0.88508564 -0.24691667 
-0.1538535 -0.92694074 0.34221333 
-0.5218515 -0.0130649125 0.8529363 
-0.3607712 -0.85217464 -0.37900195 
-0.51043487 -0.82374096 0.2467939 
-0.26153183 -0.47598696 0.8396652 
-0.4395167 -0.016021872 0.8980916 
0.29254538 -0.36188397 0.88513124 
-0.08072258 -0.5863234 0.80604523 
0.7200967 -0.586465 0.37083647 
0.43597165 -0.78618467 0.43799844 
0.27732536 -0.67485964 0.6838532 
-0.9734711 -0.22880086 0.0020651983 
-0.91235375 -0.40846267 0.027729386 
-0.6690252 -0.5989737 -0.4400408 
-0.8131996 -0.35271528 -0.46292368 
0.5895706 0.48196232 -0.6481659 
0.9515616 0.0009383003 0.30745685 
0.40460777 -0.9128002 0.055575192 
0.21787423 -0.49499887 0.8411344 
-0.4127796 -0.41886342 0.8088056 
-0.8063047 -0.55517435 0.20409383 
-0.79446524 -0.6060702 0.03877978 
0.85572886 -0.39972493 -0.32855478 
0.4730468 -0.8208468 0.32005808 
0.9528542 -0.039921254 0.300791 
0.101344235 -0.0684999 0.9924904 
-0.2998756 -0.02328602 0.95369405 
-0.6268303 -0.561554 0.5401305 
0.20733328 -0.9047546 0.37206468 
-0.008075456 -0.98254573 0.18584614 
-0.27058387 -0.95566356 -0.11615349 
-0.48292595 -0.47125527 -0.73803866 
-0.6951664 -0.4673 -0.5462366 
0.14098048 -0.58927244 -0.79553914 
-0.4398663 -0.36187086 -0.821929 
-0.79041666 -0.5217066 -0.3210358 
-0.3548346 0.39689896 -0.8465009 
-0.263322 -0.30518305 -0.91516393 
0.45752934 -0.37877074 -0.8044872 
-0.0049478686 0.5466799 -0.83732706 
-0.11084608 -0.43413 -0.8940046 
-0.42264298 -0.60939 -0.670833 
-0.030334 -0.99122536 -0.12865546 
-0.84067726 -0.30606958 0.44674733 
-0.4777794 -0.33871445 0.810555 
-0.8622609 -0.019981656 -0.5060701 
-0.8785314 0.4382957 0.18994598 
-0.7549889 0.30935034 -0.5781818 
-0.88424903 -0.24160475 -0.39966354 
-0.61068094 -0.7399053 -0.28215072 
-0.7926392 -0.5892466 -0.15656225 
-0.5596023 -0.32251266 -0.76343364 
-0.04524044 -0.5001531 -0.8647544 
-0.17157467 -0.9844017 -0.03892894 
-0.84134376 -0.4864949 -0.23550679 
-0.27517533 -0.866151 -0.41720632 
-0.045142133 -0.80992645 -0.5847917 
0.47380206 -0.635111 0.61003757 
0.2438852 -0.42960337 0.86946017 
-0.14734256 -0.7164874 0.68186224 
-0.570234 -0.6980735 0.4330435 
-0.6925238 -0.65604264 0.30003148 
-0.34435704 -0.8822566 0.3210008 
-0.7747558 -0.30512106 0.5537641 
-0.726295 -0.68418986 -0.066181324 
-0.862097 -0.3464277 0.36983347 
-0.71106917 -0.57105994 -0.41020867 
-0.98517704 -0.17022792 0.021185677 
-0.23654637 -0.9628493 0.13025804 
-0.11914069 -0.52707714 -0.8414246 
0.3263634 -0.21002297 -0.92161673 
0.5646812 -0.5441101 -0.6205476 
0.78027123 -0.5912665 -0.20391357 
0.12423181 -0.79896444 -0.58840656 
0.7112463 0.073203355 -0.69912094 
0.34594384 0.26149103 -0.9010802 
0.47167626 -0.44744527 -0.7598121 
-0.5777505 -0.5893218 -0.5647161 
0.06279803 -0.41853458 -0.9060272 
0.21972308 -0.15397005 -0.96333534 
0.09708349 0.23298207 -0.96762294 
0.7144757 -0.3436239 -0.60946465 
0.46178192 -0.88698083 0.004732146 
0.38655275 -0.74168736 0.5481577 
0.421532 -0.42760593 0.79966486 
0.98730767 -0.12499279 0.0979823 
-0.6375207 -0.118097916 0.7613281 
-0.55426943 -0.8097986 0.192384 
-0.34914842 -0.8316739 0.43175668 
-0.5531171 -0.8258814 -0.10946033 
-0.982789 -0.13762201 0.12323176 
-0.9487423 0.25078174 -0.19234496 
-0.9385636 0.112550005 -0.32623747 
-0.6131238 -0.39369696 -0.68489563 
-0.5309727 -0.61221033 -0.5858896 
-0.35868272 -0.88848513 -0.28625348 
-0.68694365 -0.58666545 -0.4288732 
-0.95895195 0.054799486 -0.27822343 
-0.98009014 -0.194969 0.037555493 
-0.76900977 -0.3889436 -0.5072938 
-0.71707124 -0.565579 -0.40734416 
-0.64262915 -0.560579 -0.5222825 
-0.6688738 -0.6375083 0.38234943 
-0.016409056 -0.8472735 -0.53090334 
0.33262706 -0.42303386 -0.8428533 
0.10668621 -0.8160316 -0.56807625 
-0.46827582 -0.8831646 0.027169054 
-0.715449 -0.2643745 -0.64671403 
0.07310579 0.53394514 -0.84235287 
-0.30917603 0.58184916 -0.75223786 
0.22069637 0.74302036 -0.6318338 
-0.03327676 0.7085672 -0.70485836 
-0.37333834 0.6587604 -0.65318704 
-0.78712046 0.40954882 -0.46120623 
-0.1587755 0.3511527 -0.922758 
0.15505357 0.31995913 -0.93465745 
-0.2816377 -0.2726118 -0.91998 
-0.36978337 -0.23293236 -0.8994459 
0.052542347 -0.2859751 -0.9567955 
0.71714944 -0.41192296 -0.56215316 
0.21708472 -0.5553095 -0.8028111 
0.55996776 -0.6144572 -0.5557684 
0.26247847 -0.92432976 -0.27698323 
-0.17164733 -0.9802011 -0.09870619 
-0.08674074 -0.993659 -0.071539894 
-0.5290063 -0.4688857 -0.70731795 
0.2591721 -0.940737 0.21873201 
0.53604865 -0.7609023 0.36562228 
0.8266548 -0.19245641 0.5287745 
0.78893435 -0.10378286 0.60564995 
0.5322873 0.024962783 0.84619564 
0.5167666 0.21201657 0.8294584 
0.3238967 -0.057453033 0.94434637 
0.49313152 -0.7812497 0.3827143 
-0.63246155 -0.62196666 0.46168154 
-0.25008506 -0.9679315 0.023793006 
0.18868768 -0.97823787 -0.08630041 
-0.29487514 -0.92995894 0.2196025 
-0.10617247 -0.87671256 -0.46915072 
0.04771756 -0.24512382 -0.96831685 
0.12729818 -0.41513494 -0.90080976 
0.25793588 -0.74383616 -0.6165849 
-0.56100446 -0.10515526 -0.82110685 
-0.066253535 -0.2314139 -0.97059673 
0.3601812 -0.6868718 -0.63125014 
-0.14647211 -0.98647386 0.073588476 
-0.40789804 -0.84653497 -0.34204957 
-0.063480936 -0.6600704 -0.7485167 
-0.4206151 -0.880327 0.2193337 
0.11027507 -0.9484388 -0.29715848 
-0.42169508 -0.8882254 -0.18228851 
-0.9104641 0.15916723 -0.38173434 
0.30306017 -0.71056575 -0.6350203 
-0.04342906 -0.45308328 -0.8904098 
-0.2986156 -0.68521816 -0.6643078 
0.32680273 -0.2968765 -0.89725375 
0.5152028 -0.280812 -0.8097597 
0.0077085313 -0.30080497 -0.9536545 
0.7276759 -0.17692475 -0.6627107 
0.43941927 -0.8341577 -0.33330414 
0.363796 -0.6943026 -0.62096417 
-0.1596737 -0.89837474 0.40917873 
-0.22621712 -0.96534306 0.13014884 
0.4103908 -0.91137564 0.031207208 
0.3679037 -0.92710096 0.07162914 
0.15178694 -0.87699026 0.45590436 
-0.18043527 -0.9823057 -0.05018653 
-0.33737612 0.38312688 -0.85987866 
-0.4918132 -0.2971064 -0.81844217 
0.038164802 -0.8904072 -0.45356196 
0.47474205 -0.7828002 -0.4022982 
-0.29567236 -0.8980832 -0.32561404 
-0.422003 -0.8101735 -0.40685678 
-0.5313733 -0.63861334 -0.5566106 
-0.27574876 -0.49734244 -0.82256496 
-0.17413549 -0.62844527 -0.75811183 
-0.7519188 -0.5384365 -0.38040006 
-0.4086365 -0.84798265 -0.33755264 
0.24961357 -0.7505287 -0.61188215 
0.28841957 -0.81050795 -0.5097951 
0.013127282 -0.99975926 0.017583307 
-0.1668237 -0.9159026 -0.36509228 
-0.68869215 -0.3744256 -0.6208934 
-0.72401774 -0.6717715 0.15659322 
-0.1494083 -0.92135584 -0.35886043 
-0.18256034 -0.59663695 -0.78147054 
-0.020721797 -0.82618904 -0.56301177 
-0.26110965 -0.8522992 -0.4532195 
-0.62576914 -0.68180466 -0.3788871 
-0.2545447 -0.8377095 0.48316646 
-0.30182603 -0.9533097 0.01008235 
-0.046035554 -0.49241963 -0.86913973 
-0.43165025 0.5578335 -0.7088723 
0.004624282 0.1336413 -0.99101907 
-0.18427509 -0.0839788 -0.97928053 
0.55587596 -0.17514387 -0.8126048 
0.5593531 -0.21119502 -0.8015739 
0.65300965 0.18066947 -0.73548424 
0.6200677 -0.024355607 -0.78417015 
0.76375514 -0.420516 -0.48973918 
0.88679445 -0.37749028 -0.2666397 
0.9708929 -0.23559782 -0.043135963 
0.5120833 -0.85786986 0.042779952 
0.64303833 -0.6337069 -0.43002 
0.0119840605 -0.8958387 -0.44421777 
-0.34236422 -0.81241566 -0.47198263 
-0.2107769 -0.87697107 -0.43185043 
0.36309996 -0.8602681 -0.35790655 
0.07249697 -0.82040703 -0.56716543 
-0.24784455 -0.4089977 -0.87823355 
0.020115944 -0.7397657 -0.67256385 
0.03980005 -0.8915809 -0.45110908 
0.07163963 -0.9786542 -0.19262327 
-0.085932195 -0.9218643 -0.37786496 
-0.5057632 -0.8529386 -0.1292264 
-0.25400856 -0.8884998 -0.38216215 
-0.44212443 -0.8748067 -0.19808935 
-0.5301722 0.5655617 -0.6317099 
0.0073533594 0.51047343 -0.8598622 
-0.116212375 0.8014687 -0.5866367 
0.8560404 0.37820297 -0.35235965 
0.7753272 0.4627306 -0.4298234 
0.21775006 0.5339232 -0.8170134 
-0.30746007 0.59765404 -0.740458 
-0.4862165 0.6179927 -0.6178014 
-0.16434862 0.6870613 -0.70776856 
-0.52765375 -0.38685906 -0.75625503 
-0.10696952 -0.92245895 -0.37098137 
-0.40941054 -0.8947371 0.17840567 
-0.5569503 -0.7354615 0.3858794 
-0.3005344 -0.059307072 -0.9519253 
-0.3423417 -0.5115001 -0.78814334 
-0.5541194 -0.0053226203 -0.83242023 
-0.35541844 -0.7218289 -0.5938358 
0.20108269 -0.25526842 -0.94572926 
0.25776652 -0.5218585 -0.8131545 
0.021893218 -0.8506215 -0.5253226 
-0.18622874 -0.9293557 0.31877416 
0.4527654 -0.8348251 -0.31316227 
0.018610975 -0.9761315 -0.21638134 
-0.24442546 -0.9645879 -0.09912815 
-0.61391556 -0.675428 -0.4085398 
0.0017715286 -0.86781293 -0.4968878 
-0.6579287 -0.3491952 -0.6672275 
-0.6114682 -0.79060125 -0.032501966 
-0.4262077 -0.8061552 -0.41043985 
-0.48929784 -0.76710254 -0.4148993 
-0.57605565 -0.77914023 -0.2471852 
-0.39441335 -0.37149787 -0.8404925 
-0.7949171 -0.58156484 -0.1728849 
-0.84324425 -0.28357902 -0.45664218 
0.14977153 -0.13543358 -0.979401 
-0.26580098 0.1963312 -0.9438242 
0.49600548 -0.049429715 -0.8669113 
0.6324745 -0.54048735 -0.5548418 
0.59348017 -0.37558505 -0.7118408 
0.35562557 -0.8883693 -0.290397 
0.19478546 -0.94582814 -0.2597457 
-0.009161788 -0.85804963 -0.51348513 
0.3100509 -0.941635 -0.13111785 
-0.22603714 -0.346998 0.9102195 
-0.19991837 -0.58161634 0.78851455 
-0.12047281 -0.49337998 0.8614306 
-0.13773493 -0.85562015 0.49894223 
-0.108583376 -0.8298443 0.5473282 
-0.15962677 -0.529272 0.833301 
0.16616662 -0.69197893 0.7025339 
-0.6901596 -0.6991839 -0.18660544 
-0.12719375 0.16998611 -0.9772034 
-0.1473842 0.015532872 -0.9889574 
-0.22452204 -0.28648555 -0.93140537 
0.58169216 -0.24709493 -0.7749699 
0.91757125 -0.24883482 0.31007168 
0.93097794 -0.18044883 -0.31736156 
0.31300828 -0.94150907 0.12484598 
0.19913507 -0.9413602 0.27237168 
-0.13507725 -0.62656796 -0.767572 
-0.10679177 -0.7620204 -0.6386865 
0.61546916 -0.5559451 -0.5586795 
0.52945954 -0.53167665 0.6610542 
0.42120925 -0.65552795 0.62679017 
0.35151288 -0.4292599 0.83197033 
-0.5274144 -0.7037463 0.47599933 
-0.01989162 -0.96977794 -0.24317692 
-0.31350848 -0.94729507 0.065913394 
-0.4570272 -0.72942466 -0.50898516 
-0.3498094 -0.55766314 -0.7527585 
-0.54861397 -0.4951901 -0.6736539 
-0.5659079 -0.4500633 -0.69079036 
-0.4600604 -0.36582622 -0.8090214 
-0.59942824 0.009872907 -0.80036765 
-0.91000396 -0.39897037 -0.11276357 
-0.3403528 -0.18058185 -0.92279476 
-0.21523762 -0.11868042 -0.96932334 
0.050376024 -0.28278568 -0.95785934 
0.003490085 0.030075045 -0.99954164 
0.5135196 -0.5030266 -0.69517046 
-0.303499 -0.59847146 -0.7414313 
-0.20341532 -0.9478299 -0.2454399 
-0.81509286 -0.16177501 0.5562845 
-0.94673544 -0.08868472 0.3095594 
-0.72206163 -0.5363829 0.43694445 
-0.7852962 -0.2012646 0.58549345 
-0.5603336 -0.24191967 -0.7921498 
-0.6429179 0.43771487 -0.62853986 
-0.54669034 -0.40961888 -0.73030275 
-0.7569908 -0.32021865 -0.56958324 
-0.38873878 0.45868936 -0.7990533 
0.3330116 -0.44042838 -0.8337422 
-0.09609438 -0.3500156 -0.9318021 
-0.43058285 -0.45034063 -0.7821712 
0.2528298 -0.41743222 -0.87282723 
-0.23499893 -0.5510263 -0.8007156 
0.24949045 -0.9631002 0.10095805 
-0.14110933 -0.9899923 -0.001842139 
-0.14569831 -0.9327157 -0.3298689 
-0.7087535 -0.7031738 -0.056701757 
-0.6449734 -0.764157 -0.008579309 
-0.058971237 -0.98425055 -0.16665323 
0.51971453 -0.7885375 -0.32879373 
-0.47062686 -0.80341715 0.36473477 
-0.35320064 -0.8906973 -0.2861951 
-0.32440063 -0.77245134 -0.54597 
-0.5285602 -0.56212425 -0.63611364 
-0.42779288 -0.77471596 -0.46562704 
-0.31852034 -0.05374836 -0.94639105 
0.48853645 -0.2153966 -0.8455391 
0.13010904 -0.52162004 -0.8431988 
0.04158189 -0.44726703 -0.8934334 
0.084071 -0.64029145 -0.7635175 
0.16687998 -0.20856644 -0.9636655 
0.033849455 -0.0033430222 -0.9994214 
-0.025406102 -0.49146858 -0.87052464 
-0.0570786 -0.9081161 -0.41480973 
0.11523099 -0.8975124 -0.42566812 
-0.0031139718 -0.46391472 -0.88587445 
0.4584524 0.31577593 -0.83072686 
0.73100615 -0.59683204 -0.33078936 
0.62523764 -0.7142966 -0.31441748 
0.9372381 -0.17292354 0.30279085 
0.4681521 -0.7906089 0.39467856 
0.8372416 -0.47473422 -0.27139264 
-0.019506536 -0.8778023 -0.47862598 
0.20453557 -0.6947758 -0.6895302 
0.03134177 -0.640954 -0.7669392 
-0.6611793 -0.6774647 -0.32230976 
-0.57550275 -0.6411671 -0.507643 
-0.95645124 -0.21184966 -0.20080073 
-0.90314245 0.29774013 -0.30932927 
-0.4714997 -0.5641092 -0.6778414 
-0.2197442 -0.15955074 -0.962422 
-0.31208962 -0.81860316 -0.48217106 
-0.023300132 -0.8975684 -0.4402592 
-0.9469123 -0.20752984 -0.24553746 
-0.4149456 -0.6771204 -0.6077239 
-0.678783 -0.09731951 -0.7278617 
-0.92985535 -0.24441703 -0.27500817 
-0.70876926 -0.7044661 -0.03706394 
-0.054117076 -0.99390745 -0.096017435 
-0.1738127 -0.71373063 -0.6785115 
0.11480761 -0.25337678 -0.9605309 
0.63181216 -0.128627 -0.76437455 
0.47275433 -0.092856735 -0.87628824 
0.13225612 0.18747158 -0.97332567 
-0.0028544161 0.47602025 -0.8794297 
0.27478287 0.16007274 -0.94808817 
0.47633374 0.3719051 -0.7967389 
0.7818978 0.41187 -0.46797344 
0.22737482 0.7423557 -0.630245 
-0.38323322 0.9079341 -0.16967022 
-0.082969435 0.6079892 -0.7895981 
-0.4472095 0.14724857 -0.8822254 
-0.19403267 -0.066960625 -0.9787072 
-0.12477619 -0.48517784 -0.8654672 
-0.48917624 -0.5422197 -0.68315774 
0.62255794 -0.5554487 -0.55126977 
-0.13213709 -0.94822055 -0.28882113 
-0.12611556 -0.88142896 -0.45516816 
0.044032924 -0.7996946 -0.5987903 
-0.5702413 -0.42076182 -0.70553845 
0.040833548 -0.5305797 -0.846651 
0.2097065 -0.91619426 -0.34148413 
0.65605354 -0.68287283 -0.32136986 
0.47570878 -0.6109277 -0.63282585 
0.7160048 -0.6231684 0.31463996 
0.70820796 0.100498475 0.6988144 
0.103746966 -0.16348596 0.9810754 
-0.64694905 -0.06968403 0.75934255 
-0.3004486 -0.43788716 0.8473402 
0.07797284 -0.93831056 0.33688822 
0.16469106 -0.7169158 0.67742795 
-0.44856203 -0.80602145 0.38616273 
-0.47574493 -0.8608141 -0.18073702 
-0.5559696 -0.79191417 0.25252727 
0.20436431 -0.863068 -0.46189716 
-0.20633788 -0.36693844 -0.9070727 
0.00878092 -0.66262865 -0.74889666 
-0.42846853 -0.109997205 -0.8968363 
-0.6484879 -0.47233844 -0.5969588 
-0.5500597 0.06484374 -0.83260417 
-0.9336393 -0.34270963 0.10424843 
-0.68714285 -0.7265216 -0.0011055161 
-0.3312321 -0.9429791 -0.0327989 
-0.7381365 -0.3688318 -0.564905 
-0.0965953 -0.5521906 -0.8281032 
-0.73777944 -0.276824 -0.6156704 
-0.907814 -0.1820225 -0.37781176 
-0.50535756 0.23728703 -0.8296437 
-0.4068682 -0.43291038 -0.80439234 
-0.17960899 -0.5339249 -0.82623535 
-0.39030063 -0.8821565 -0.2635627 
-0.30018747 -0.86770123 -0.3962098 
0.13773437 -0.59986526 -0.7881568 
-0.46230742 -0.7797757 -0.42216325 
0.2147975 -0.4541859 -0.8646256 
0.66754556 -0.47770944 -0.5711189 
0.15540114 -0.98079425 0.11786959 
-0.09272862 -0.9370173 -0.3367492 
-0.38711053 -0.76581264 0.5134945 
0.5523763 -0.827264 0.10254182 
0.593825 -0.6100962 -0.52455175 
0.39195508 -0.9053228 -0.16359112 
-0.1878172 -0.80738336 -0.55933607 
0.06470633 -0.08456287 -0.99431497 
-0.82691246 0.12182948 -0.548975 
-0.58285975 -0.5372877 -0.60958725 
-0.09874612 -0.44247812 -0.8913261 
-0.30283025 -0.27913696 -0.91124994 
-0.057902005 -0.7799625 -0.62314206 
-0.20592305 -0.78906786 -0.5787639 
-0.40495625 -0.9097742 0.09122263 
-0.68460935 -0.6771182 0.2698538 
-0.48988172 -0.8533748 -0.17823446 
-0.44998866 -0.10270237 -0.8871091 
-0.5262897 -0.59761584 -0.60487556 
0.41294256 -0.3255179 -0.85059786 
0.55228376 -0.39946848 -0.7317156 
0.006287054 -0.9916828 0.12855235 
-0.12458668 -0.97295004 -0.19454147 
-0.44509894 -0.616949 -0.6490462 
0.31059307 -0.7129067 -0.6287257 
0.39466804 -0.36509538 -0.8431741 
-0.18445595 -0.9670709 -0.17535655 
0.09299755 -0.720488 -0.6872034 
-0.19682151 -0.74185133 -0.64102876 
-0.12733136 -0.8808643 0.45592198 
0.19976147 -0.5659951 -0.7998405 
0.4983401 -0.5158726 -0.6968018 
-0.081346005 0.40243638 -0.9118266 
-0.09451598 0.037055355 -0.9948335 
0.2002878 -0.0484918 -0.97853637 
0.46672654 0.054751456 -0.88270533 
0.69500595 0.00585816 -0.7189802 
0.60388595 0.7494666 -0.27133307 
0.80182236 0.3928853 -0.45024663 
0.9337248 -0.003145671 -0.357978 
0.68945146 -0.6985333 0.19159316 
0.5137984 -0.85575414 -0.06079584 
0.27990526 -0.8854016 -0.37110245 
0.0930012 -0.8419172 -0.53153205 
-0.26519153 -0.8115805 -0.52058685 
-0.84711146 -0.10381317 -0.5211767 
-0.5668675 0.15854771 -0.8084082 
-0.24753046 -0.80965996 -0.532146 
-0.021605723 -0.4330927 -0.9010904 
-0.29146722 -0.47249204 -0.831744 
-0.19071734 -0.8306247 -0.52315366 
-0.26750648 -0.9044417 -0.33230335 
-0.6096216 -0.6048743 -0.51233643 
0.05474761 -0.4412264 -0.8957243 
0.50210994 -0.76139843 -0.41007072 
-0.7809261 -0.5662511 -0.26365542 
-0.21220754 -0.96576726 0.14920324 
-0.6495836 -0.5685042 -0.504821 
0.30108535 -0.4051543 -0.8632483 
0.07662828 0.10777746 -0.9912175 
0.091137685 0.9252729 0.36819044 
0.8174375 0.4018383 0.4127009 
0.18009424 0.9521882 -0.24678668 
-0.5341693 0.52692354 -0.6610709 
-0.33574632 0.93349695 -0.12592794 
-0.76722944 0.19149393 -0.6121186 
-0.56685925 -0.21766768 -0.79453856 
-0.3333767 -0.9262792 -0.1756898 
-0.22927459 -0.922299 -0.31112337 
-0.24179849 -0.77026767 -0.59010273 
-0.16009164 -0.19312403 -0.9680257 
0.14013438 -0.30295995 -0.942644 
-0.49794137 0.119305015 -0.858965 
-0.46801147 -0.37301028 -0.8011421 
-0.036982268 -0.2685419 -0.96255785 
0.22683127 0.09113559 -0.96966076 
-0.011982712 -0.4040725 -0.91464853 
0.43302125 -0.8925487 -0.12589425 
0.5199246 -0.8496071 -0.088580064 
-0.056385055 -0.9928456 -0.105254695 
-0.45045546 -0.3709858 -0.81207114 
-0.991573 -0.08547598 0.09734919 
-0.5240582 -0.72676903 -0.444038 
-0.32257137 -0.5419556 -0.776036 
-0.4669443 -0.38624638 -0.7954728 
-0.5032525 -0.8466226 0.17311028 
-0.7703098 -0.4789842 -0.42094767 
-0.5793687 -0.62163234 -0.5271671 
-0.28406683 -0.4156403 -0.8640308 
-0.28776473 -0.7833932 -0.5508961 
0.16851164 -0.932438 -0.31962994 
-0.25005442 -0.005192095 -0.96821785 
-0.18464531 0.35261378 -0.91737103 
0.53987443 -0.4644593 -0.7020065 
0.26486868 -0.5965953 -0.75757426 
0.66641605 -0.33693105 -0.66510695 
0.5392846 -0.6780085 -0.49947646 
0.22968613 -0.9686704 0.09445597 
0.6599556 -0.50399965 -0.55717415 
0.14001006 -0.89341486 0.42685732 
0.007916696 -0.345159 0.93851084 
-0.21258621 -0.22401735 0.95111686 
-0.095401734 -0.7903215 0.6052193 
-0.047099113 -0.93538415 0.35048273 
-0.27535024 -0.95398134 -0.11875179 
-0.7510175 -0.6381412 -0.16955377 
-0.1245698 -0.9773392 -0.17114452 
-0.35307372 -0.92629695 -0.13157879 
-0.49244475 -0.1279602 -0.8608858 
-0.4609074 -0.6623674 -0.5906216 
-0.25504366 0.052473243 -0.9655047 
0.57852495 -0.45252585 -0.67862314 
0.86512595 -0.4804014 0.14412399 
0.27298218 0.06428683 0.9598687 
0.04854508 -0.5355691 0.843095 
0.0115175545 -0.9928932 0.11845042 
0.047057737 -0.9894162 -0.13726397 
-0.32379946 -0.8214057 -0.46951732 
0.08973128 -0.50676596 -0.857401 
0.15196572 -0.891741 -0.4262682 
0.21886599 -0.93857646 0.26678088 
-0.33846864 -0.81440556 0.4713626 
-0.61827475 -0.7789459 0.10478442 
-0.28810534 -0.896858 -0.3356208 
-0.6668606 -0.5240755 -0.52975655 
0.13618606 -0.8958956 -0.42287657 
-0.21139573 -0.8427966 -0.4949806 
0.1445105 -0.525294 -0.8385601 
-0.006279497 -0.500362 -0.86579365 
-0.56851435 -0.5403732 -0.6203131 
-0.6233852 0.042028964 -0.7807846 
-0.58517617 -0.116163194 -0.8025429 
-0.05817927 -0.5666106 -0.8219292 
-0.4888493 0.43673062 -0.7551772 
-0.1340837 0.35119295 -0.92665267 
-0.20596124 -0.37688693 -0.9030704 
0.20411482 -0.17896274 -0.9624497 
-0.25061685 -0.75319856 -0.6081802 
0.13771734 -0.7204079 -0.67973995 
-0.6846471 -0.67549944 -0.2737862 
-0.99306506 0.10545683 0.051967427 
-0.65375686 -0.60563296 -0.45366368 
-0.7862283 -0.5250271 -0.32587075 
-0.7930811 -0.043428823 -0.6075658 
-0.86712915 0.43648648 -0.23993047 
-0.297591 -0.34112072 -0.8916705 
-0.17321667 -0.21875042 -0.96028346 
-0.83818597 0.2171172 -0.50030434 
-0.4613041 -0.1366303 -0.87665886 
-0.9831419 0.1679421 0.07230199 
-0.6841508 -0.09192095 -0.7235249 
0.034879882 0.04118784 -0.9985424 
-0.001982825 -0.518306 -0.85519296 
-0.64256203 -0.18756512 -0.7429222 
-0.63304764 -0.64582175 -0.426808 
0.020722304 -0.5955671 -0.8030383 
-0.30239177 -0.8808286 -0.36428043 
-0.56476843 -0.58560735 -0.58146423 
-0.36271122 -0.12747425 -0.9231419 
0.34435317 -0.40801862 -0.8455422 
0.04836681 -0.97928756 -0.19661255 
0.015291258 -0.9388952 -0.34386334 
-0.078255974 -0.49901876 -0.8630506 
0.5736716 -0.40372673 -0.7126751 
-0.25449803 -0.6533868 -0.7129632 
0.5636469 -0.29212272 -0.7726361 
0.52617246 -0.1552632 -0.8360837 
-0.11745231 -0.6051471 -0.787402 
0.28723052 -0.3447908 -0.89365435 
-0.39461455 -0.7399272 -0.54478174 
-0.6942103 -0.095282316 -0.71343774 
0.06534592 0.39620456 -0.91583407 
0.39545822 -0.41322875 -0.8202773 
0.06630004 -0.84703135 -0.5273918 
-0.26536065 -0.76350486 -0.5887649 
-0.24876767 -0.19987203 -0.9477162 
-0.034969833 0.05088559 -0.99809206 
-0.19220428 -0.5013374 -0.843634 
0.49208313 -0.80354196 -0.33492488 
0.5929314 -0.6687978 -0.44848847 
0.54580164 -0.4349701 -0.71617156 
0.76645285 -0.5086539 -0.39220083 
0.2374218 -0.7905503 -0.5645008 
0.7580458 -0.07819594 -0.64749676 
-0.269848 -0.90944827 -0.31636372 
-0.21678366 -0.81085074 -0.54362303 
-0.7728974 -0.19225788 -0.6047038 
-0.6931121 -0.4769458 -0.5404798 
-0.6578089 -0.21961147 -0.7204571 
-0.33068585 -0.38758627 -0.8604789 
0.19810115 -0.47121373 -0.85948443 
0.5145141 -0.742115 -0.42958197 
0.13290372 -0.9800487 -0.14778793 
-0.6462889 -0.73708254 0.19753525 
-0.34128115 -0.6738893 -0.65528655 
0.52549857 -0.4555236 -0.7185747 
-0.18919212 -0.27010348 -0.9440606 
-0.24677612 -0.805164 -0.53927046 
-0.56167763 -0.50043464 -0.65885013 
-0.4768967 -0.43441343 -0.76410383 
-0.009547548 -0.38172007 -0.9242288 
0.474311 -0.5078405 -0.71911556 
0.5287226 0.16059683 -0.8334634 
0.60687584 0.09407306 -0.7892097 
0.61204535 0.31552845 -0.7251499 
0.22850777 0.9355914 -0.26917097 
0.81234616 0.5557944 0.1765966 
0.4558467 0.87717074 -0.15091476 
0.008618964 0.76934993 0.6387694 
-0.16581976 0.98575664 -0.028066283 
-0.75021833 0.64205045 -0.15793628 
-0.2986475 0.75716066 -0.5809626 
-0.21269102 0.34490472 -0.9142228 
-0.104796916 -0.30585226 -0.94629383 
0.047037803 -0.54318315 -0.8382957 
0.4935092 -0.6535713 -0.5738408 
0.35705122 -0.9255724 -0.12581854 
0.13764887 -0.74947566 -0.64756393 
0.5586122 -0.7984275 0.22464606 
0.35796246 -0.9078157 -0.2184798 
0.57764447 -0.2588713 -0.7741528 
-0.1011599 -0.57287216 -0.8133783 
0.27128357 -0.1536175 -0.9501616 
0.80217326 -0.3340323 -0.49491462 
0.8039446 -0.5652898 0.18471721 
0.7094218 -0.697993 0.09760434 
0.14336646 -0.31241956 0.9390635 
-0.58039224 -0.2898762 0.76099724 
-0.6014154 -0.410421 0.6854591 
0.0038224536 -0.98978794 0.14249681 
-0.62835157 -0.66580236 0.40234515 
-0.98957676 -0.1294199 -0.06315454 
-0.83409953 0.04476337 -0.54979485 
-0.35251954 -0.24947362 -0.90193844 
-0.24826318 -0.6112837 -0.7514638 
-0.40414298 -0.3594507 -0.8411086 
-0.4311082 -0.47077146 -0.7697532 
-0.5838089 0.07244397 -0.80865264 
-0.9610806 -0.19364826 0.19703937 
-0.63042533 0.17067267 -0.7572548 
-0.86628497 -0.4977743 -0.0420849 
-0.61533856 -0.66283923 -0.42661783 
-0.30618367 -0.59029496 -0.7468625 
-0.19369051 0.046712704 -0.97995 
0.076009706 -0.577803 -0.81262916 
-0.10127455 -0.16348574 -0.98133373 
0.3612352 -0.43375888 -0.82544684 
-0.7404747 0.22946537 -0.6316984 
-0.76887465 -0.42433733 -0.47829872 
-0.4602405 -0.60799146 -0.6469351 
0.09586104 -0.9147544 -0.3924732 
-0.51711833 -0.26074392 -0.8152308 
0.29476452 -0.37608472 -0.8784499 
-0.12704216 -0.90064645 -0.4155677 
-0.42407492 -0.8310406 -0.3599056 