# OOMMF: rectangular mesh v1.0
# Segment count: 1
# Begin: Segment
# Begin: Header
# Desc: Time (s) :  5.68000000000001e-07
# Title: m
# meshtype: rectangular
# meshunit: m
# xbase: 2e-09
# ybase: 2e-09
# zbase: 5e-10
# xstepsize: 4e-09
# ystepsize: 4e-09
# zstepsize: 1e-09
# xmin: 0
# ymin: 0
# zmin: 0
# xmax: 1.024e-06
# ymax: 1.024e-06
# zmax: 1e-09
# xnodes: 256
# ynodes: 256
# znodes: 1
# ValueRangeMinMag: 1e-08
# ValueRangeMaxMag: 1
# valueunit: 
# valuemultiplier: 1
# End: Header
# Begin: Data Text
0.7975079 -0.11311668 -0.5926094 
0.56118363 -0.32843116 -0.7597407 
0.8034536 0.064318575 -0.59188306 
0.2762497 -0.5773819 -0.76832044 
0.7830875 -0.53943664 -0.30948704 
0.081021905 -0.8821986 -0.46385458 
-0.24609534 -0.5734913 -0.78137374 
0.5150371 -0.85498995 -0.06106569 
0.75440264 -0.59920585 0.2680096 
0.21436408 -0.9288608 0.30210203 
0.442521 -0.8382097 0.3187155 
0.51134545 -0.8129057 0.27876526 
0.17696923 -0.79798216 0.5761132 
0.5119315 -0.6795613 0.5254738 
0.36763346 -0.92897594 0.043004602 
-0.60506105 -0.6395107 0.474265 
0.270967 -0.5778333 0.7698608 
-0.14669205 -0.25497958 0.95575464 
-0.7134905 -0.6512388 0.25849465 
0.0035808554 -0.7006917 0.71345526 
-0.42226568 -0.8894623 0.17478177 
-0.63321245 -0.7733322 0.031611938 
-0.50564134 -0.3895704 -0.7697804 
0.21927081 -0.114707686 -0.9688976 
0.17377724 -0.55041325 -0.8166069 
0.33815032 -0.92947817 0.14739344 
0.6389819 -0.74477166 -0.19239888 
0.84634584 -0.46623474 0.2575346 
0.8755137 -0.48310274 0.0093601225 
0.8103747 -0.5627031 -0.16327333 
0.45602235 -0.2921346 -0.8406552 
0.6631423 0.42715442 -0.6146392 
0.7269119 -0.31889382 -0.6081989 
0.33692327 -0.8467714 -0.41165638 
0.082992725 -0.9041168 -0.41914824 
0.32845637 -0.5183487 -0.78957653 
0.8179852 -0.56788266 -0.09170312 
0.4173083 -0.9084189 -0.025076538 
0.021231433 -0.92709136 -0.3742338 
-0.16753328 -0.9628931 -0.2115883 
0.75518763 -0.5930049 -0.27935106 
-0.43978828 -0.82150215 -0.36293328 
-0.078451805 -0.6567011 -0.7500593 
-0.2741722 0.041375205 -0.9607902 
-0.50150615 -0.4964457 -0.7085431 
-0.820099 0.025446143 -0.57165563 
-0.14663775 0.17459711 -0.97365975 
0.61601615 0.0067854524 -0.7877044 
0.8969936 -0.09322632 -0.4321011 
0.5870778 -0.75166297 0.3005703 
0.34810272 -0.77669007 0.5249544 
0.0018025616 -0.28815624 0.9575817 
-0.9585701 -0.2354929 0.16026993 
-0.38234228 -0.59354544 0.7081795 
-0.5068057 -0.7367136 -0.44766173 
0.011504707 -0.98583186 -0.16734155 
0.09259372 -0.90223795 0.4211806 
0.12517351 -0.6908255 0.7121037 
-0.038508642 -0.9665179 -0.2536931 
-0.63548946 -0.65938157 -0.40170783 
0.23514467 -0.96039313 -0.1495063 
0.5698421 -0.6578957 0.49239543 
0.08046713 -0.7179204 -0.6914588 
-0.013401577 -0.9791092 -0.20289302 
0.23013756 -0.65440285 -0.7202733 
-0.9981754 0.019119835 0.05727434 
-0.79772174 -0.08727795 -0.5966763 
-0.32429552 -0.58291817 -0.74500936 
-0.117313474 -0.9773032 -0.17639767 
-0.24558017 -0.9688843 0.030881783 
-0.049065474 -0.8696123 -0.49129134 
0.07678637 -0.8025517 -0.5916204 
0.2686499 -0.63775593 -0.72186893 
-0.5403659 0.20636664 -0.8157313 
-0.13501921 0.0029326426 -0.99083865 
-0.31012636 -0.89514524 -0.32021362 
0.2300025 -0.052592665 -0.9717679 
-0.30965954 -0.055350635 -0.94923514 
-0.3257621 -0.5167988 -0.7917059 
0.3310959 -0.8287917 -0.4510875 
0.31391048 -0.83102065 -0.45920026 
0.20595764 -0.89583325 -0.39378193 
-0.3230999 -0.82009614 -0.4722805 
-0.30947956 -0.8931813 -0.326266 
-0.5629345 -0.65538406 -0.5035638 
-0.6934628 -0.26168913 -0.67128855 
-0.31118295 -0.56515056 -0.7640486 
-0.013695529 -0.14738198 -0.9889848 
-0.15377936 -0.5691607 -0.8077179 
-0.21993466 -0.58542204 -0.7803268 
-0.15243515 -0.5910635 -0.79209065 
0.0820953 0.012272477 -0.996549 
0.48311493 0.21163212 -0.8495952 
-0.06798872 -0.47852397 -0.8754384 
-0.6733113 -0.7182763 -0.17530282 
0.12743913 -0.9631443 -0.23688069 
0.13423511 -0.9393948 -0.31546536 
0.017840654 -0.9659813 -0.25799605 
0.60042673 -0.7525391 0.27050468 
0.3869949 -0.88987523 0.24157181 
0.3554312 -0.77027225 -0.52948034 
0.28365535 -0.5561419 -0.78118247 
0.8614071 -0.411878 -0.29721123 
0.5816305 -0.7554157 -0.3017502 
0.7007376 -0.23821972 0.67247176 
0.042032517 -0.41113064 0.9106069 
0.13431208 -0.5988188 0.7895419 
0.20962596 -0.8268359 0.52191913 
-0.39576477 -0.8710521 0.29092723 
-0.5476917 -0.506266 -0.6661296 
-0.07180035 -0.950485 0.30236253 
-0.9244703 -0.36163357 -0.12073115 
-0.3034288 0.74871695 -0.5893674 
0.48295704 0.80737907 -0.33895642 
0.37411797 0.63895226 -0.6721427 
0.168948 0.2287122 -0.9587217 
0.4008984 0.056030486 -0.9144076 
-0.53401744 0.25408742 -0.80639017 
0.49861014 0.4467806 -0.7428157 
0.20388296 -0.444499 -0.87226856 
0.115927786 -0.34978023 -0.9296314 
-0.36492977 0.01637789 -0.93089104 
-0.6332072 -0.0400413 -0.7729459 
-0.03724291 -0.096686095 -0.99461794 
0.6997187 -0.65943444 -0.27484548 
-0.021066692 -0.9880334 -0.15279469 
0.15574604 -0.7347825 0.6601802 
-0.4072821 -0.8756344 0.25958797 
0.37314463 -0.90799046 0.19056858 
-0.34352723 -0.8695061 -0.35489163 
0.17295545 -0.4171283 -0.89223903 
0.2902339 -0.86995864 -0.39866817 
0.5110375 -0.6981847 -0.5013769 
0.35674462 -0.92880577 0.100265756 
0.27282578 -0.7168432 -0.64164007 
-0.25993288 0.3664399 -0.89339626 
-0.8858217 -0.2143477 -0.411552 
-0.10208784 -0.47767287 -0.87258625 
-0.20355797 -0.5193612 -0.82995665 
-0.40161297 -0.72491753 -0.5596443 
0.015260403 -0.98028874 -0.1969802 
0.041507002 -0.82455957 -0.5642505 
-0.045971766 -0.95318776 -0.29886392 
0.17927398 -0.031254787 -0.9833026 
0.53174955 -0.16186261 -0.83129 
0.6117142 0.107146025 -0.78378916 
0.98044145 0.19259462 0.040521007 
0.3541613 -0.9006018 0.25196448 
-0.06243178 -0.66657007 -0.7428235 
0.06288349 -0.8446298 -0.5316448 
-0.0029358922 -0.70209134 -0.71208096 
0.52597284 -0.43202007 -0.7326058 
0.19246985 -0.8138524 -0.54826975 
0.2833366 -0.84569764 -0.4522343 
0.8813771 -0.46937785 -0.05346861 
0.8156755 -0.27769673 0.5075017 
0.39756557 -0.6840312 0.6115906 
0.032596324 -0.74268407 0.6688482 
-0.50562304 -0.8274313 -0.24434198 
-0.346051 -0.38205487 -0.85690296 
0.5542766 -0.6914024 -0.46340075 
0.4078988 0.13032332 -0.9036783 
0.8954851 -0.44507438 -0.0039078323 
0.723518 -0.5136326 0.46119767 
0.7113436 -0.5436963 0.4454041 
-0.9624492 -0.26340926 -0.06562822 
-0.3477533 -0.74114776 -0.574254 
-0.21939199 -0.9317916 -0.28919163 
-0.32754153 -0.8753733 0.35558155 
-0.14124335 -0.96376157 0.22630538 
-0.14593111 -0.95467776 -0.25941187 
-0.29080757 -0.8820107 -0.370794 
-0.6106581 -0.39822778 -0.68447894 
-0.457243 -0.025851792 -0.88896596 
0.20408627 -0.30360934 -0.9306827 
0.28861997 -0.8111855 -0.5086027 
0.65948343 0.18636324 -0.7282516 
0.9883129 0.14989585 0.027729092 
0.46895564 -0.8682737 0.16180678 
0.59502107 -0.28956875 0.74973327 
0.48479658 -0.4730429 0.7356649 
0.16191718 -0.07471122 0.98397213 
-0.8512665 0.12377438 0.5099269 
-0.40756541 -0.83132756 0.3778691 
-0.87954843 -0.2741528 0.38888925 
0.025299385 -0.23284176 -0.9721855 
0.077730216 -0.5181497 -0.8517506 
-0.24787232 -0.6865878 -0.68348855 
0.62726474 -0.7618293 0.16172518 
0.06888741 -0.99052125 0.11883672 
-0.36886624 -0.92691064 -0.069097735 
0.3616313 -0.9321025 0.02019728 
0.06316839 0.1899718 0.9797554 
-0.05335818 0.15289694 0.9868007 
0.5400411 -0.48849317 0.6853686 
0.45654353 -0.40877768 0.79023343 
-0.47058514 -0.18657368 0.86240363 
0.10057014 -0.8163087 0.5687934 
-0.5061192 0.0017372234 0.8624618 
-0.46067426 -0.2765401 0.84338886 
-0.7707443 -0.4605588 0.44027132 
-0.28604767 -0.8927353 -0.3481386 
-0.123691045 -0.8940936 -0.4304615 
-0.7143845 -0.69766366 0.05403963 
-0.31023633 -0.8774333 -0.36587468 
-0.60957927 -0.63329536 -0.47681248 
-0.38063708 -0.88030255 -0.28316584 
-0.61230975 0.061920434 -0.7881895 
-0.13080615 0.04766144 -0.99026173 
0.98766625 -0.07160691 -0.13924028 
0.7236585 -0.54128414 -0.42817038 
-0.016116055 -0.99656063 0.08128505 
-0.29769707 -0.83938766 -0.4547579 
0.7186401 -0.6357518 -0.2817376 
0.54454494 -0.34103635 -0.766267 
0.17847434 -0.98128796 -0.072255544 
0.5524368 -0.6436386 -0.5296631 
0.26252386 -0.8665954 -0.42437443 
-0.3641537 -0.65032023 -0.66669005 
-0.07066212 -0.8948632 -0.44071168 
-0.14599368 -0.75864214 -0.6349393 
-0.85210526 -0.41146305 -0.32344216 
-0.65126455 -0.75780845 -0.03976106 
-0.636928 -0.56454927 -0.52498275 
-0.88575375 -0.3362605 0.3199521 
-0.802892 -0.20569652 -0.5595117 
0.4824002 -0.23116775 -0.84489733 
0.79325235 0.3464077 -0.500752 
0.9136289 0.10463925 0.3928524 
0.5145324 -0.83414227 0.19865347 
0.9688058 -0.22134 0.11146309 
0.6378051 0.22962591 0.73517114 
0.41841352 -0.8130505 -0.4048197 
0.8904891 -0.25707677 0.375421 
-0.28276536 -0.80966055 0.51428944 
-0.436253 -0.8969244 0.07217989 
-0.1262389 -0.93851787 -0.32132232 
-0.17605217 -0.9767709 0.12216517 
-0.69261676 -0.7035126 0.1592232 
-0.8929884 -0.088886775 -0.4412154 
-0.8520527 -0.38929406 -0.34993765 
-0.30103502 -0.9325407 -0.1993637 
-0.18865351 -0.8431706 0.5034615 
-0.3377102 -0.8865902 -0.31608495 
-0.8864943 0.0026845858 -0.46273187 
-0.20832634 0.01771909 -0.9778989 
-0.17837979 0.02563778 -0.98362774 
0.055708703 0.56264424 -0.82482004 
-0.56491774 0.053261228 -0.8234266 
-0.43433243 -0.6040537 0.6681875 
-0.56314284 -0.7488593 0.34939942 
-0.78231615 -0.55052763 0.29137772 
0.14958525 -0.85007447 -0.5049731 
0.4930517 0.3253392 -0.8068794 
0.9683913 -0.18913148 -0.16262755 
0.8650599 -0.46100327 -0.19785711 
0.14047404 0.33890212 -0.9302755 
0.17079413 -0.56282336 -0.80873936 
0.23017259 -0.18509762 -0.9553845 
-0.08853692 -0.45204368 -0.88759094 
0.32960296 -0.7445702 -0.5804973 
0.21931928 -0.67191947 -0.7074061 
0.36226362 -0.53891534 -0.7604837 
0.29976356 -0.89802396 -0.32201657 
0.34254754 -0.9190597 -0.19491147 
0.24523781 -0.9566791 -0.15691897 
0.6386805 -0.47308075 0.60686237 
0.6497111 -0.7281779 0.21824878 
0.05223885 -0.9979173 0.037845567 
0.19270718 -0.9188126 0.3444522 
-0.44384214 -0.88109785 0.16331215 
-0.5575463 -0.38444543 0.7357608 
-0.2471404 -0.7484515 0.6154203 
-0.30263677 -0.1960747 0.9327195 
-0.25399548 -0.6351369 0.72944325 
0.24159257 -0.766201 0.59545696 
0.24659012 -0.93487865 -0.25533366 
0.06104752 -0.98638344 -0.15271229 
-0.4398186 -0.6331913 -0.63688976 
0.21849196 -0.96114504 -0.16870539 
0.27944025 -0.5075859 -0.8150274 
-0.031160027 -0.1686616 -0.98518145 
0.5374336 -0.14983808 -0.82988787 
0.8002455 -0.5402742 -0.26021326 
0.71378577 -0.06639759 -0.6972097 
0.7154411 -0.14897497 -0.68260574 
0.16185658 -0.4462259 -0.88016194 
0.84092903 0.07308245 -0.53618777 
0.91990954 -0.19756113 -0.33872715 
0.3448868 -0.82934797 -0.4395851 
-0.367515 -0.6902513 -0.62328637 
0.4021708 -0.49140528 -0.772515 
0.17175235 -0.650054 -0.7402236 
0.23239987 -0.8188034 0.52492994 
-0.18366471 -0.9249758 0.33269677 
0.25007698 -0.7639499 -0.5948463 
0.19861718 -0.8573969 -0.4747861 
-0.7367698 -0.5246404 -0.42652404 
-0.4298409 -0.034731008 -0.90223646 
0.11410028 -0.41878295 -0.90088964 
-0.26068163 0.4065849 -0.8756334 
-0.1599511 -0.45468152 -0.8761737 
-0.74239796 -0.1636402 -0.649667 
0.36393663 -0.282503 -0.88754845 
0.7256496 -0.45061773 -0.5199772 
0.9783948 -0.11919684 -0.16892534 
0.690557 -0.3552748 0.6300087 
0.65219176 -0.6093599 0.45091727 
-0.18412012 -0.914933 0.3591622 
0.21068017 -0.6636674 0.71774614 
0.3915901 -0.8773633 -0.2772923 
-0.32219258 -0.9311268 -0.17086504 
0.32257232 -0.8367158 -0.44255382 
-0.5288673 -0.8155752 -0.23481172 
-0.3494435 -0.5839278 -0.73274666 
-0.6575253 -0.6419818 -0.3943601 
-0.2529644 -0.96499443 -0.06924397 
-0.35904926 -0.8851376 -0.2959984 
-0.137502 -0.8772885 -0.45984566 
-0.09212936 -0.45855975 -0.88387513 
0.3851046 -0.5450151 -0.7447504 
0.14985321 -0.86691636 0.4753947 
0.006606329 -0.99633026 -0.08533759 
-0.4733455 -0.862829 -0.17739828 
0.048740357 -0.9245798 -0.37785798 
0.3402627 -0.89598304 0.28536963 
0.6676613 -0.74403155 0.025405617 
0.062466107 -0.9975896 -0.030215893 
-0.20535903 -0.9534874 -0.22065717 
-0.46955982 -0.75773585 -0.4531556 
-0.37501207 -0.45958093 -0.8050784 
-0.09429858 -0.90516216 -0.41447482 
-0.06963597 -0.97909594 -0.19110715 
-0.37771332 -0.17483906 -0.90926564 
0.093396395 -0.15846571 -0.98293734 
0.5989726 -0.52405125 -0.60547686 
0.63893735 -0.6985423 -0.3221766 
0.39794084 -0.8138624 -0.42340448 
0.13856983 -0.41256407 -0.9003274 
-0.2496668 -0.9324696 0.2610882 
-0.9201264 -0.39093828 0.02312414 
-0.5281356 -0.732331 -0.42984203 
-0.5208064 -0.50862586 -0.6856096 
0.087530084 -0.55482465 -0.82735014 
0.07981428 -0.37523794 -0.9234859 
-0.31933114 -0.11229111 -0.9409667 
-0.21811825 -0.46828827 -0.8562305 
-0.5436501 -0.024327958 -0.8389594 
0.56150883 -0.05944354 -0.8253329 
-0.20490822 -0.3128546 -0.92743444 
0.3131646 -0.71815103 -0.62143946 
0.3188087 -0.7505024 -0.5788844 
0.54553604 -0.76026624 -0.3526837 
0.16778287 -0.6936921 -0.70045716 
0.31975487 -0.56746423 -0.7587761 
0.6108256 0.17373085 -0.77247 
0.6497063 -0.120615706 -0.7505556 
0.46295345 -0.2191159 -0.85887265 
0.7006216 -0.5483452 -0.4565599 
0.31382844 -0.9312551 -0.18513694 
0.19121252 -0.51316637 0.8367187 
0.034361936 -0.5715963 0.8198152 
0.01955664 -0.055665314 0.99825794 
-0.69103163 -0.54967797 0.46939266 
-0.6963359 -0.598148 0.3966552 
-0.8226634 -0.5411557 -0.17428562 
-0.31305486 -0.9481099 -0.055535816 
-0.51773095 -0.85424644 0.047094736 
-0.5571681 0.1795949 -0.8107462 
-0.033286862 0.5496506 -0.83473116 
-0.008176299 0.47187737 -0.88162625 
0.62750155 0.3348035 -0.702957 
0.43173715 0.13531604 -0.8917918 
0.38732082 0.48159704 -0.7861595 
-0.061267596 0.13521062 -0.98892087 
-0.007532385 0.053552385 -0.9985367 
0.052950285 0.22489923 -0.97294223 
-0.2099892 0.13213101 -0.9687342 
0.36257443 0.2279472 -0.9036481 
-0.15147322 -0.29082268 -0.9447106 
0.36529294 -0.78052306 -0.50729156 
-0.18189381 -0.80459374 -0.5652819 
0.04799705 -0.8986776 0.43597576 
0.4599851 -0.81632406 0.34932634 
0.21833277 -0.92628944 0.30711362 
-0.28098282 -0.76641834 -0.5776258 
-0.059690997 -0.59833694 -0.7990181 
0.6759373 -0.48970038 -0.550729 
-0.17365982 -0.8899926 -0.42161053 
-0.7232631 -0.42086518 -0.5475062 
-0.031662468 -0.43704093 -0.89888424 
0.5670055 -0.23067297 -0.7907558 
0.21490432 -0.58167267 -0.7845209 
0.09803844 -0.7091079 -0.6982511 
-0.0057807365 -0.6174975 -0.78655165 
0.24341694 -0.6847219 -0.6869528 
0.8481286 -0.47845644 -0.22750263 
0.07826385 -0.2727758 -0.958889 
0.44108847 -0.8426419 -0.30886164 
0.48535967 -0.5930486 -0.6424324 
0.7949576 -0.52505344 -0.30391 
0.9012946 -0.38534468 -0.19793315 
0.20376958 -0.6792943 -0.70500875 
0.17276892 -0.48169622 -0.859139 
0.2889228 -0.89993334 -0.32656366 
0.018216291 -0.99982464 0.0043359613 
0.2937286 -0.95080453 -0.09846055 
0.3976701 -0.8289593 -0.3933 
0.27016935 -0.66219664 -0.69893074 
-0.011311878 -0.8248659 -0.56521535 
0.41267875 -0.7542231 -0.51072854 
0.37899032 -0.858749 -0.34484288 
0.07712936 -0.93502295 0.346097 
-0.59238267 -0.78338736 -0.18811475 
-0.2857311 -0.6429308 -0.7106319 
0.12094737 -0.8291761 -0.54574615 
0.66091156 -0.71338004 -0.23299135 
0.12928106 -0.837557 -0.5308339 
-0.15962903 -0.7070817 -0.6888789 
0.069399305 -0.77502024 -0.62811416 
0.2453212 -0.9566466 -0.15698655 
-0.70426804 -0.5654274 0.4292998 
-0.8297958 -0.37360397 -0.41455883 
-0.31780538 -0.8355643 -0.4481431 
-0.34742925 -0.8844187 -0.31160322 
-0.37408456 -0.9197028 -0.119195804 
-0.16103524 -0.9196447 -0.35821944 
-0.0191157 -0.90272593 -0.4297912 
-0.18373445 0.0027870093 -0.98297197 
-0.66667837 -0.4139942 -0.61979735 
-0.036942076 -0.25563923 -0.96606624 
0.78651357 -0.50202674 -0.3596743 
0.19915734 -0.26975816 -0.9421077 
0.73189056 0.21111797 -0.6478932 
0.5020835 -0.50464416 -0.70231515 
0.1627966 -0.8127866 -0.5593527 
0.5358553 -0.621828 0.5711296 
-0.40683594 -0.89330524 0.19102451 
-0.3509493 -0.78530675 0.5100274 
-0.34620193 -0.9355665 0.06971054 
-0.2641396 -0.9485093 -0.17481567 
-0.61446476 -0.7188729 -0.32504585 
-0.64423496 -0.5423257 -0.5392998 
-0.9530309 -0.23186168 -0.19486518 
0.18085967 -0.11915861 -0.9762638 
0.050432436 -0.6468535 -0.760945 
0.19496614 -0.9740243 0.1151739 
0.3734944 -0.92298174 -0.09277207 
0.35311344 -0.52831614 0.7721353 
0.21423917 -0.22018218 0.95164144 
-0.49197316 0.10967305 0.8636749 
-0.24350017 -0.23447204 0.9411326 
-0.6138099 -0.46262166 0.63970196 
-0.26976746 -0.7187743 0.64077216 
-0.20044994 -0.95975024 0.19672126 
-0.6493493 -0.5348002 -0.5406796 
-0.8121209 -0.57281893 -0.11107676 
-0.9465609 0.05260403 -0.31820643 
-0.5886766 -0.739253 -0.32705492 
0.010105566 -0.19956891 -0.9798317 
-0.29656178 -0.9371728 -0.18373485 
-0.43492705 -0.8982956 0.062478997 
-0.34817535 -0.50785744 -0.7879434 
-0.5131074 -0.07592174 -0.85496014 
0.30533314 -0.34442177 -0.8877755 
0.6818993 -0.6582047 -0.31902984 
0.27114308 -0.28389242 -0.9197209 
-0.1507467 -0.95068014 -0.2710769 
0.030290958 -0.9886714 -0.1470077 
0.44243607 -0.7632199 -0.47089893 
0.82059216 -0.19420111 -0.5375078 
0.24996273 -0.9179241 -0.30811363 
0.004944249 -0.8829474 -0.4694461 
-0.038484387 -0.8994507 -0.43532455 
-0.61172175 -0.120905735 -0.78177905 
0.17193964 -0.32284036 -0.93070453 
0.222964 -0.5536109 -0.8023729 
0.42947096 -0.14856583 -0.89077663 
0.07862941 -0.7141276 -0.69558555 
-0.14404568 -0.8581293 -0.49281353 
-0.1896008 -0.6467538 -0.7387565 
-0.5207091 0.11349394 -0.8461568 
0.17406136 -0.3776045 -0.90946007 
0.55325353 0.43167505 -0.7124375 
0.7947726 -0.43287563 0.42538854 
0.77740663 -0.57048464 0.26492703 
0.71988153 -0.69397134 -0.01320911 
0.15542084 -0.9859228 0.061650142 
0.5093745 -0.84119654 -0.1814555 
0.21506128 -0.9703882 0.10998012 
0.14917237 -0.98778236 0.0450979 
0.42148098 -0.86325616 -0.27774557 
0.41174513 -0.77512825 -0.4792098 
-0.058631983 -0.9344443 -0.35124955 
-0.104344405 -0.9782206 -0.17943498 
-0.10907814 -0.3256166 -0.93918896 
-0.09962732 -0.48797566 -0.867153 
-0.5234543 -0.8107532 -0.26205873 
-0.27240488 -0.8235745 -0.49751446 
-0.23600866 -0.4718928 -0.84948045 
-0.6890239 0.03769969 -0.7237575 
-0.60145265 0.0125336265 -0.79881024 
-0.7956378 0.4065325 -0.44910136 
-0.4293281 0.3656293 -0.8258285 
-0.7640526 -0.24068943 -0.5985752 
-0.48524222 -0.83571374 -0.25714323 
-0.5562811 -0.7810155 -0.28384164 
-0.97571295 -0.15027909 -0.15937527 
-0.9036426 -0.42110243 -0.078120835 
-0.36509895 0.28359395 -0.88672274 
-0.037984338 -0.29174277 -0.9557423 
-0.2751973 -0.5333987 -0.79984516 
-0.59635437 0.14529684 -0.78946203 
-0.19784325 0.35253587 -0.9146456 
-0.44163415 0.2872304 -0.8499754 
-0.40307334 -0.49709594 -0.7683928 
-0.45653373 -0.6847386 -0.5680758 
0.08295763 -0.38312462 -0.9199639 
0.5820028 -0.65909725 -0.47630188 
0.67743695 -0.70059615 0.2241522 
0.5956137 -0.5770309 0.55882 
0.95914406 -0.26828623 -0.08980645 
0.7602375 -0.5899508 -0.2720238 
0.66548014 -0.7449608 -0.0465808 
0.6666368 -0.7453137 0.010147924 
-0.4419722 -0.8955098 0.05218107 
-0.16564538 -0.8706893 -0.46310014 
-0.203554 -0.9458179 -0.2529708 
0.18352485 -0.7808362 -0.5971713 
0.27027538 -0.71412826 0.6457337 
-0.10518301 -0.44909257 0.88727254 
-0.43751946 -0.63768584 0.6339823 
0.22787195 -0.97107095 -0.07138384 
-0.4173661 -0.51206845 -0.75072736 
0.12605748 -0.584008 -0.80190045 
-0.56949395 -0.62648207 -0.5321626 
0.15113595 -0.627125 -0.7641153 
-0.060078487 -0.12601064 -0.9902081 
0.5617853 0.30654755 -0.7683918 
0.9370028 0.30990288 -0.16120173 
0.21624012 -0.09503965 -0.97170347 
0.112738155 -0.112116404 -0.9872792 
-0.1810034 -0.04743904 -0.9823377 
0.6700732 -0.27632475 -0.68894595 
0.8291932 -0.25233608 -0.49876365 
0.042117335 -0.92816335 -0.3697824 
0.2668272 -0.9198293 -0.28760624 
0.33945933 -0.35618648 -0.87057376 
0.15795183 -0.5353535 -0.82972765 
-0.9091014 -0.34627536 0.23157741 
-0.86004543 -0.37337843 0.347722 
-0.68063456 -0.28563833 -0.67464614 
-0.64757365 -0.45160976 -0.6137565 
-0.42636865 -0.26609996 -0.8645233 
-0.23909591 -0.07123499 -0.96837944 
0.21288614 -0.27318263 -0.9381103 
-0.59335065 0.23933852 -0.7685391 
-0.5185053 0.49215958 -0.6992363 
0.056208726 0.035895485 -0.99777365 
0.5377557 0.20242932 -0.81843823 
0.57261795 -0.49263847 0.6552985 
0.29847103 -0.19314581 0.9346709 
-0.092830636 -0.8086359 0.5809395 
0.48187146 -0.34835884 0.80401874 
0.12192881 -0.87583435 0.46695575 
0.48435915 -0.6867978 0.54194564 
0.3176145 -0.85901713 -0.40151036 
-0.30693913 -0.6999175 -0.64490616 
-0.058508355 -0.96866304 -0.2413894 
0.3044597 -0.9480413 -0.092314616 
-0.6279418 -0.38885584 -0.6741515 
-0.50245106 -0.5371997 -0.6774655 
-0.32010266 -0.94682574 0.03248722 
-0.7819429 -0.6214226 -0.048983283 
-0.8086439 -0.29262182 -0.51036036 
-0.28236666 0.08489508 -0.9555428 
0.0668637 -0.726057 -0.68437606 
-0.48438248 -0.8087348 -0.33364937 
-0.60865587 -0.7780653 -0.15541095 
-0.22621162 -0.95240957 -0.20431449 
0.081975274 -0.8832355 -0.46170896 
0.6871008 -0.67222476 0.2756925 
0.38169974 -0.8052607 0.45371863 
-0.38522992 -0.8870811 0.25433287 
-0.43722662 -0.7181355 -0.54140043 
-0.8508756 -0.37715802 -0.36573583 
-0.7426361 -0.38834524 -0.54560024 
-0.5319184 -0.7438932 -0.40458095 
-0.17910881 -0.436255 -0.8818173 
0.15265125 -0.30689305 -0.9394223 
-0.025456514 0.18297845 -0.9827874 
0.31866634 0.19859764 -0.9268283 
0.33776 -0.8382159 -0.42815003 
0.4788953 -0.81389344 -0.32899368 
-0.2162529 -0.9367565 -0.27517626 
-0.8032051 -0.58652496 0.10416411 
-0.9397028 0.26178962 -0.22005664 
-0.7300092 -0.32081172 -0.60346204 
-0.37283272 -0.6195781 -0.69073784 
0.23424791 -0.20158581 -0.95104736 
0.73589724 0.11169521 -0.667817 
-0.14295302 -0.13185865 -0.98090667 
0.034597512 -0.521867 -0.8523251 
-0.23024024 -0.49336517 -0.838797 
-0.0400665 0.5094907 -0.8595429 
-0.04970737 0.56047183 -0.82668054 
0.49047583 0.3201249 -0.8105268 
0.6474925 0.015813474 -0.76190776 
0.7793788 -0.32811943 -0.5337663 
-0.019443832 -0.7863083 -0.6175283 
-0.096679956 -0.26677647 -0.95889693 
0.53587043 0.30877623 -0.7858118 
0.046416607 0.06641442 -0.99671197 
0.0473504 -0.5836589 -0.8106173 
0.16074844 -0.2189318 -0.9624079 
0.7223409 -0.4443649 -0.52987134 
0.5437373 -0.3454465 0.7648638 
-0.15503176 -0.83307457 0.53099144 
0.09915808 -0.4554473 0.8847235 
-0.43951264 -0.85410243 -0.2780969 
-0.84202355 -0.43670157 -0.31668308 
-0.63526094 -0.57916814 -0.51088923 
-0.27354756 -0.62880844 -0.72785425 
-0.7095974 -0.70102954 0.070915885 
-0.366181 -0.15041728 -0.9183062 
0.49024445 -0.038474042 -0.8707354 
-0.112382956 0.7375593 -0.66586506 
0.5609152 0.7459008 -0.35917443 
0.6556133 0.699069 -0.28543597 
0.6443402 0.33111405 -0.68933964 
-0.4668905 0.24287808 -0.85030794 
-0.64978737 0.10241247 -0.7531853 
0.21062253 0.37857938 -0.90128577 
-0.25429934 0.7299739 -0.63440526 
0.25629002 0.46338508 -0.84828633 
0.4482632 -0.23172751 -0.86334383 
0.11734001 -0.8744163 -0.47077328 
0.5134246 -0.846529 0.14065512 
-0.0554909 -0.9970092 -0.05379004 
0.59763277 -0.5672027 -0.5666712 
0.015798897 -0.80476695 -0.59338063 
-0.0660429 -0.28969854 -0.9548367 
0.4413352 -0.6428071 -0.62611693 
0.16574028 -0.84012294 -0.516453 
-0.71539026 -0.4115367 -0.5646719 
-0.34326452 -0.5394733 -0.7688551 
0.16675027 -0.27673498 -0.9463679 
-0.23515981 -0.16286446 -0.9582146 
0.51617056 -0.34891367 -0.78219384 
0.649492 -0.44575372 -0.6160064 
0.6124927 -0.58439904 -0.53228796 
0.098978795 -0.18999742 -0.9767826 
0.028363891 -0.9672919 -0.25207534 
0.41770613 -0.18678744 -0.8891749 
0.6774811 0.0008844116 -0.7355396 
-0.1149696 -0.55483633 -0.82397735 
-0.055697396 -0.39576024 -0.91666335 
0.124239825 -0.25697264 -0.95839953 
-0.45341524 0.48882478 -0.7452952 
-0.1196395 -0.22901583 -0.9660426 
0.5149528 -0.34931457 -0.78281736 
0.086233236 -0.30033916 -0.9499265 
0.22000007 -0.083107434 -0.97195333 
0.3957696 -0.59884524 -0.6962406 
-0.5169408 -0.63712806 -0.57169944 
-0.58843553 -0.8060855 -0.06300592 
-0.3677544 -0.54388607 -0.7542842 
0.45193684 -0.28320342 -0.84590125 
0.29528844 -0.94882566 -0.11195799 
-0.5338129 -0.5562191 -0.63691777 
-0.56433177 -0.49418122 -0.6612977 
0.012148692 -0.36809796 -0.92970765 
-0.06440514 -0.62368983 -0.7790142 
0.29333255 -0.955697 -0.024483914 
0.11604668 -0.20140763 -0.972609 
0.68381685 -0.72894263 0.0322056 
0.6438473 -0.74857485 0.15841837 
-0.2760537 -0.84713954 -0.45403636 
-0.57177466 -0.66763973 -0.4767925 
-0.32423842 -0.94547415 0.030791141 
-0.48965508 -0.8158465 -0.30762404 
-0.36826605 -0.8405219 -0.3973703 
-0.515359 -0.72528464 -0.4564728 
0.01162112 -0.4397841 -0.8980283 
0.12864807 -0.77084446 -0.6238979 
-0.018640837 -0.6185157 -0.7855513 
0.20699537 -0.63637596 -0.74308723 
0.7516471 -0.28346393 -0.59554595 
0.7934934 0.36219645 -0.4890624 
0.5852989 -0.18785867 -0.78875506 
0.67501783 -0.65025055 -0.34860462 
0.5288416 -0.8458586 0.06964161 
0.22469887 -0.92269146 -0.3132905 
-0.44989505 -0.8847534 -0.121680014 
-0.45555964 -0.5479528 -0.7015791 
-0.4937226 -0.7945172 -0.35352567 
-0.62668794 -0.77913976 0.014271824 
-0.42951086 -0.9024461 -0.033338595 
-0.39049926 -0.4439829 -0.8064674 
0.11923978 -0.9639497 -0.23787142 
0.32831597 -0.07367404 -0.94169044 
0.27399263 -0.060602125 -0.95982057 
0.2322157 -0.9724849 -0.018682558 
0.50763303 -0.85992116 0.05333474 
0.23353922 -0.89616066 0.3773005 
0.00828961 -0.8911692 0.4535956 
-0.2774405 -0.56997055 0.7734084 
-0.04378037 -0.6518212 0.757108 
-0.5630994 -0.7502822 0.34640402 
-0.8245576 -0.56561446 -0.0136009585 
0.034206208 -0.994552 -0.098469704 
-0.17117159 -0.81314445 0.5563242 
-0.83131933 -0.5396346 0.1330516 
-0.7778423 -0.57862973 -0.24525324 
-0.5422603 -0.75220424 0.37435642 
-0.66980165 -0.709202 -0.2199961 
-0.8584254 -0.45520613 0.23641786 
-0.1921861 -0.59053946 -0.78379065 
-0.053562723 0.024599217 -0.99826145 
-0.33319974 0.31974617 -0.88698393 
-0.68661773 0.4850579 -0.5415488 
-0.30734283 -0.43446818 -0.84662735 
-0.35043046 -0.4383768 -0.827662 
-0.22898139 -0.81241435 -0.53623736 
-0.15640876 -0.6879062 -0.7087463 
0.3223695 -0.55014855 -0.770334 
0.17377368 0.2662176 -0.9481197 
-0.020172862 0.1697601 -0.98527896 
0.24817826 -0.06068524 -0.9668118 
-0.223075 -0.07178997 -0.97215426 
-0.18169723 0.021234117 -0.98312527 
-0.50172526 0.016067429 -0.8648779 
-0.02786809 -0.42635855 -0.90412486 
0.011743851 0.018027937 -0.9997686 
0.59773433 -0.39591846 -0.69711 
-0.003710689 0.068410344 -0.99765044 
0.3666655 -0.031223744 -0.9298287 
0.0100130625 -0.1400059 -0.9901001 
0.059369378 -0.28048965 -0.9580192 
-0.26435107 -0.54226553 -0.7975378 
0.35713646 -0.5293254 -0.7695896 
0.5004182 -0.8318128 -0.24014428 
0.094097294 -0.9831863 0.15649411 
0.8363919 -0.5238722 -0.16126512 
0.25492805 -0.41608596 -0.87285984 
0.25651205 -0.58035034 -0.77291346 
0.07171938 -0.9033765 -0.42280874 
0.07875823 -0.66235244 -0.7450413 
0.57556534 -0.7163233 -0.3944687 
-0.22903892 -0.7097184 -0.666214 
-0.16363013 -0.9398611 -0.29981038 
-0.59911346 -0.2983089 -0.7430175 
-0.6136918 -0.2826086 -0.73723453 
-0.57599264 0.34740797 -0.7399596 
0.07320078 -0.5820475 -0.80985326 
-0.8905386 -0.4547862 -0.010511052 
-0.23529465 0.858687 -0.45529464 
-0.4654054 0.25154284 -0.8486012 
-0.19534954 0.536175 -0.82119125 
-0.20369455 -0.4453975 -0.87185407 
-0.5876836 0.268198 -0.76334643 
-0.40894917 -0.09607918 -0.90748525 
-0.77605426 0.08557943 -0.62483287 
-0.794721 -0.07623216 -0.6021688 
-0.7770709 -0.3888583 -0.49492428 
-0.3190272 -0.40271723 -0.85792816 
0.319941 -0.025975045 -0.9470813 
0.24113496 -0.24629013 -0.93872 
-0.6317222 -0.26853222 -0.7271984 
0.009528966 -0.04499242 -0.99894196 
0.25586405 0.22723803 -0.93962574 
0.230714 -0.9321619 -0.27900755 
0.12602049 -0.41414893 -0.901443 
0.5694314 -0.06496193 -0.81946796 
0.22556375 -0.71633625 -0.66029036 
0.94139767 -0.114077166 -0.31742233 
0.8511341 -0.52415353 -0.028874824 
0.81000423 -0.45353317 0.3717537 
0.46328717 -0.70100987 -0.5421717 
0.38424176 -0.59391147 -0.70684344 
0.22821833 -0.97193336 0.057114616 
-0.11522288 -0.9021856 -0.41567394 
-0.43882352 -0.890581 0.11958053 
-0.16568153 -0.62607116 -0.76196104 
-0.10304122 -0.26679036 -0.9582304 
-0.23609549 -0.61069787 -0.7558486 
-0.4415672 -0.8607283 0.2533086 
-0.49761555 -0.78113174 0.37710994 
-0.26643118 -0.96257806 -0.04957789 
0.4382303 -0.74680275 -0.50023985 
0.577831 -0.29265812 -0.761881 
0.40571678 0.19634458 -0.89266044 
0.3390048 0.024699893 -0.9404603 
0.887152 -0.18314214 -0.4235803 
0.9336657 -0.00916383 -0.35802877 
0.41307658 0.20749699 -0.88674283 
0.49549058 -0.30455673 -0.81347066 
0.7185435 -0.23307241 -0.6552653 
0.36990744 0.4191905 -0.8291247 
0.37864152 -0.16724348 -0.91030777 
0.7231063 -0.46533257 -0.5104733 
0.20288272 -0.64431983 -0.73735374 
0.12901257 -0.36509413 -0.9219881 
0.3125276 -0.7994168 -0.51308805 
-0.2369341 -0.13784844 -0.9616965 
-0.36683837 0.05564609 -0.928619 
-0.5133826 -0.6562917 -0.5529191 
-0.24186562 -0.70504856 -0.66663903 
0.13631506 -0.9199048 -0.3676867 
0.22834852 0.50053614 -0.8350573 
-0.2785113 0.52681345 -0.8030562 
0.1865473 0.4849705 -0.85440266 
0.20702696 0.7590743 -0.6172084 
-0.037864886 0.42090794 -0.9063128 
-0.41322917 0.4172907 -0.80938876 
-0.3203511 -0.48044986 -0.8164209 
0.24812312 -0.6769832 -0.6929133 
0.061186273 -0.97920895 0.19340707 
0.2446234 -0.8184926 0.5198359 
-0.43551743 -0.87322426 0.21864122 
-0.4977516 -0.4827078 0.7205807 
-0.30109897 -0.9478244 -0.10472998 
-0.44645697 -0.7625001 -0.46826267 
0.51177865 -0.395056 -0.7628981 
0.1609885 -0.6631233 -0.7309926 
0.06732331 -0.38762075 -0.91935736 
0.040861372 -0.59247386 -0.8045528 
0.28076118 -0.37004375 -0.88557374 
-0.87848663 -0.34102076 -0.33461332 
-0.56879 -0.82039374 -0.0585834 
-0.7661567 -0.10644184 -0.6337776 
-0.4359448 0.28176767 -0.8547276 
-0.088216625 -0.39086762 -0.9162098 
0.15169565 -0.88452846 -0.44113234 
-0.3235604 -0.6112596 -0.72226757 
0.43586743 -0.36858577 -0.82107496 
0.0816252 -0.9803875 -0.17938165 
0.44700506 -0.8715268 -0.20156255 
0.39319512 -0.8885373 -0.23642968 
0.46391952 -0.79729354 -0.38613713 
0.122270666 -0.98397523 0.12977967 
-0.4839726 -0.75105965 -0.44908807 