# OOMMF: rectangular mesh v1.0
# Segment count: 1
# Begin: Segment
# Begin: Header
# Desc: Time (s) :  5.950000000000011e-07
# Title: m
# meshtype: rectangular
# meshunit: m
# xbase: 2e-09
# ybase: 2e-09
# zbase: 5e-10
# xstepsize: 4e-09
# ystepsize: 4e-09
# zstepsize: 1e-09
# xmin: 0
# ymin: 0
# zmin: 0
# xmax: 1.024e-06
# ymax: 1.024e-06
# zmax: 1e-09
# xnodes: 256
# ynodes: 256
# znodes: 1
# ValueRangeMinMag: 1e-08
# ValueRangeMaxMag: 1
# valueunit: 
# valuemultiplier: 1
# End: Header
# Begin: Data Text
-0.7349115 -0.45028648 -0.50709695 
-0.9913445 0.061177246 -0.11616176 
-0.8108864 -0.5692367 -0.13576755 
-0.7251603 -0.19874397 -0.659275 
-0.39002565 0.19349226 -0.90024483 
0.0060588317 -0.30862343 -0.951165 
0.72876775 0.17349698 -0.6624171 
0.23441714 -0.894867 -0.3798181 
0.58049685 -0.5045881 -0.6390731 
0.6833683 -0.11406093 -0.72110885 
0.586497 0.111879416 -0.80218726 
0.36869392 -0.51978695 -0.7706402 
0.446861 -0.55427307 -0.7022084 
0.502819 -0.46930364 -0.7258975 
0.39483795 -0.69597954 0.599763 
0.1854151 0.13813514 0.97290283 
0.8371518 -0.24976712 0.48661402 
0.63614774 -0.7269398 0.25860143 
-0.09741766 -0.74672264 0.6579629 
0.13906705 -0.87287265 0.46771112 
0.58753955 -0.5115542 0.62698454 
0.04009188 -0.6936333 -0.71921176 
0.05258973 -0.7333443 -0.67782044 
-0.6883512 -0.4005246 -0.6047749 
-0.9258059 -0.31799126 0.20436513 
-0.8964708 -0.2838755 0.34022766 
-0.6982868 -0.51043725 -0.501846 
-0.6921666 -0.24073975 -0.6804041 
-0.3499572 -0.3511932 -0.8684431 
-0.34935546 -0.6063347 0.71435916 
-0.4966991 -0.7788247 -0.3830433 
0.21261322 -0.22939506 -0.94982815 
0.34617952 -0.4942949 -0.797391 
0.4682267 -0.6442508 -0.6047352 
0.05546198 -0.68716145 -0.72438467 
-0.002151764 -0.33135703 -0.9435031 
0.71396315 -0.44910002 -0.53718334 
0.94393545 -0.28242967 -0.17093705 
0.5949321 -0.6917573 0.40930155 
0.6036718 -0.3823284 0.69957525 
0.9666127 -0.23957315 0.0909096 
0.76744914 -0.09085368 -0.6346397 
0.616126 -0.64850825 -0.44701898 
0.5744048 -0.6729098 0.4661027 
0.23786947 -0.40488458 0.8828855 
0.72465694 -0.6806785 -0.107466735 
0.16287845 -0.8895683 -0.4267773 
-0.17378202 -0.8087417 -0.56190455 
0.7377143 -0.67500633 -0.012002724 
-0.41298184 -0.73349154 -0.53984845 
-0.13632768 -0.5857519 -0.79894274 
0.15433522 -0.77682847 -0.6105064 
-0.30055332 -0.9178106 -0.2594059 
-0.40518677 -0.36657897 -0.8375224 
-0.42004323 -0.21996765 -0.880442 
-0.49388763 -0.15836744 -0.8549823 
-0.43414328 -0.088101394 -0.89652544 
0.29339877 -0.5516437 -0.7807729 
-0.046119194 -0.45537722 -0.8891033 
-0.20994996 -0.90206945 -0.37708342 
-0.30286652 -0.84602696 -0.4387599 
-0.041548498 -0.9237035 -0.38084877 
-0.468475 -0.19608115 -0.86144257 
-0.1547289 -0.6372088 -0.75499934 
-0.4915424 -0.47177953 -0.7319905 
0.53161055 -0.74737847 -0.39851692 
0.7269397 0.042849135 -0.6853632 
0.48174468 -0.61863506 -0.6206551 
-0.43565008 -0.6719425 -0.5989177 
-0.33629462 -0.72358733 -0.60276634 
-0.5284316 -0.6051274 -0.5954671 
0.1393778 0.5848325 -0.79909 
0.7052104 0.098886035 -0.7020683 
0.53988224 -0.8402114 -0.050716747 
0.6761874 -0.476473 -0.5619112 
0.41598934 -0.8776659 0.23802419 
-0.24746034 -0.7967919 0.5512587 
0.705874 -0.6003039 0.37600148 
0.4921149 -0.5319207 0.6891178 
-0.46809816 -0.41459337 0.7803823 
-0.727346 -0.6656474 0.166977 
-0.41274053 -0.75636876 -0.5074956 
-0.21145652 -0.85426414 -0.47488835 
0.54311335 -0.43719757 -0.7168586 
0.28685758 -0.8806127 -0.37713933 
0.40926373 -0.897192 -0.16598126 
0.20304106 -0.96129054 0.18626568 
0.49843124 -0.7201724 -0.4826158 
0.13630618 -0.9657355 -0.22085202 
-0.62296176 -0.78215927 -0.012062473 
-0.8089025 -0.58777934 -0.013863637 
-0.4647875 -0.4435599 0.76630753 
-0.5810757 0.32094163 0.7478954 
0.18100424 -0.85687804 0.48269838 
-0.21440119 -0.9111147 -0.35199726 
-0.2390367 -0.601701 -0.7621137 
-0.94236284 -0.18502855 -0.27877733 
-0.8190941 0.2662099 -0.5081509 
-0.90617484 -0.3350346 -0.25806773 
-0.7584215 -0.23119013 -0.60938346 
0.11965177 -0.52323925 -0.84374416 
0.18250932 -0.20490128 -0.96161634 
0.66534746 -0.15464899 -0.73034 
-0.4920708 -0.8571402 -0.15224014 
-0.008335497 -0.44487247 -0.89555514 
0.54760534 -0.38266984 -0.744105 
0.295532 -0.8326354 -0.4683792 
0.7960738 -0.48149508 -0.36664563 
0.9143518 -0.35444963 -0.19577113 
0.665857 -0.7289458 -0.15897372 
-0.30050507 -0.9026911 0.30797017 
0.14153528 -0.98990643 -0.0072955536 
0.21732365 -0.9725454 -0.08322344 
-0.22532609 -0.9737127 -0.033344623 
-0.81770545 -0.57249796 -0.06003344 
-0.0875736 -0.99082065 0.10298294 
0.62061864 -0.42396805 -0.65960866 
0.21014768 -0.943198 -0.2573238 
0.008542621 -0.67847776 -0.73457134 
-0.5288405 -0.5823859 -0.61737704 
0.8887092 0.004652282 -0.4584477 
0.7291371 -0.54530096 0.41352865 
0.16042109 -0.8594136 0.48546204 
-0.11707993 -0.7941971 -0.59627455 
-0.5872176 -0.8070596 0.06188936 
-0.20497033 -0.94264346 0.2634589 
-0.2983553 -0.94207925 0.15320246 
0.06556012 -0.72303945 0.6876889 
-0.61472875 -0.14776403 0.7747738 
-0.2291669 -0.8268907 -0.51355076 
-0.100625254 -0.3045703 -0.94715977 
0.3441134 -0.08550863 -0.93502635 
0.4387966 -0.6847725 -0.5818455 
-0.017144967 -0.91327775 -0.40697634 
-0.7329068 -0.18179123 -0.65559113 
0.43145978 -0.607254 -0.6671469 
0.25481787 -0.45137274 0.85517865 
-0.39470407 -0.32383105 0.85985017 
-0.1764971 -0.51400614 0.83943224 
-0.21021493 -0.7165148 0.66514385 
-0.59007406 -0.7372534 0.3290443 
-0.9489143 -0.28784782 0.12924916 
-0.80051845 0.5580907 -0.21841502 
-0.972179 -0.14964816 -0.18020438 
-0.7141932 -0.26095787 -0.6494838 
-0.15708718 -0.85844004 -0.48826683 
-0.28242153 -0.8828775 0.37518728 
0.24660783 -0.92699975 -0.2825881 
-0.079858586 -0.4332165 -0.897745 
-0.7673476 -0.39558786 -0.50466627 
-0.39574346 -0.7797657 -0.48513156 
-0.4767997 -0.8330119 -0.2806303 
0.2928388 -0.81388617 -0.5018316 
0.58247924 -0.6433447 -0.49681535 
-0.6076888 -0.19962911 -0.76867586 
0.40502644 -0.34625548 -0.8462038 
-0.35567278 -0.7985181 -0.48566008 
0.5866651 -0.65731585 -0.47303283 
-0.06663786 -0.5053138 -0.8603589 
0.27875268 -0.67476267 -0.6833684 
0.6389212 -0.5075392 0.57808626 
0.1006429 0.38691518 0.91660666 
0.3461652 0.33845967 0.87499416 
0.60945237 -0.066725925 0.7900098 
-0.13489752 -0.4480407 0.88377726 
0.07415086 -0.48108804 0.8735308 
0.21806878 0.6452216 0.7322125 
0.4572954 0.26426396 0.84914404 
0.66292465 0.6027048 0.4441598 
0.18027556 -0.42595634 0.8866013 
-0.28257474 -0.8970972 0.33965907 
-0.08707385 -0.7724701 0.6290533 
-0.33390307 -0.40063614 0.8532288 
-0.8463982 0.22807641 0.4812395 
-0.5900424 -0.7420879 -0.31804976 
-0.27503222 -0.13172895 -0.952368 
0.028228197 0.2817028 -0.9590865 
-0.48343772 -0.87427264 -0.043992825 
-0.16202866 0.20419738 -0.96542746 
-0.36629918 0.005744813 -0.9304794 
0.22050212 -0.83491504 -0.5042776 
0.145481 -0.9893299 -0.0078528505 
-0.52800363 -0.8463798 0.069667354 
0.36013213 -0.90244675 0.23642085 
-0.73969555 -0.3097778 -0.59740126 
-0.9603788 -0.27040672 -0.067474574 
-0.8397571 -0.33883727 -0.424261 
-0.016382659 -0.55027854 -0.8348205 
0.18065256 -0.562752 -0.8066442 
0.04293401 0.03088999 -0.99860036 
0.6809111 0.5150299 -0.52067685 
0.51958454 0.043450914 -0.8533136 
0.8848814 -0.15211815 -0.4402785 
0.6957447 -0.35267368 -0.6257481 
0.56727374 0.099747695 0.8174662 
0.24251051 -0.27711383 0.9297294 
-0.432811 -0.7345331 0.522624 
-0.37454018 -0.7903071 0.48490644 
-0.2951935 -0.83704805 0.46066403 
-0.33640173 -0.8119615 0.47702476 
0.14435408 -0.42907122 -0.89166135 
-0.724626 -0.055060845 -0.68693924 
-0.23227891 -0.74119645 -0.62982094 
0.41184068 -0.16698042 -0.8958264 
-0.016654767 -0.80029196 -0.59937924 
-0.10023144 -0.6610042 -0.743658 
-0.1736339 -0.9583445 0.22677572 
-0.583262 -0.69741154 -0.41644043 
0.044191517 -0.43458867 -0.8995442 
-0.40314293 -0.08224606 -0.9114337 
0.18268198 -0.8812318 0.43595642 
0.7480381 -0.60815835 -0.26567373 
0.41921937 -0.5452328 -0.7259314 
0.14507194 -0.951786 -0.27029178 
-0.30432576 -0.50545746 -0.8074025 
-0.35210976 -0.62914264 -0.6929634 
0.08619518 -0.55419374 -0.8279129 
0.041634362 -0.34938103 -0.9360553 
-0.21927547 -0.46129933 -0.8597216 
-0.4087377 -0.2594981 -0.8749825 
-0.32345936 -0.55445635 -0.7667805 
-0.27734253 -0.6548436 -0.703037 
-0.21513103 -0.61869514 -0.7556024 
-0.553021 -0.20288871 -0.8080867 
0.14336991 -0.46236318 -0.8750231 
-0.6414347 -0.51031536 -0.57283485 
-0.5597383 -0.25638768 -0.7880093 
-0.2831068 -0.5200237 -0.8058697 
-0.3775662 -0.48435062 -0.78920746 
-0.7023216 -0.32057786 -0.6355897 
-0.5630947 -0.27189395 -0.7803834 
0.0014219718 -0.776047 -0.6306735 
-0.39696693 -0.8203594 -0.41161594 
-0.27140605 -0.95010906 -0.15372595 
-0.6453177 -0.6590287 0.38632405 
-0.9341281 -0.35208407 0.058664355 
-0.21820314 -0.85036737 -0.4788139 
-0.9757963 -0.059655003 -0.21038777 
-0.47863942 0.047562897 -0.87672234 
-0.14916427 -0.4561728 -0.8773006 
0.04912923 -0.6966655 -0.7157119 
0.09333576 0.4113927 -0.90666676 
-0.17001085 -0.28352827 -0.9437733 
0.1789423 -0.25905752 -0.9491412 
0.9915608 -0.1285832 0.016538925 
0.8377213 -0.5160443 0.17866553 
0.6370207 -0.71981025 -0.27582207 
0.37271917 -0.64919204 -0.6630461 
0.38446814 -0.559274 -0.7344365 
0.4490323 -0.6703007 -0.59081894 
0.49577478 -0.8264131 0.2669249 
0.48628625 -0.70387775 0.5177662 
0.62260914 -0.68187284 0.38393655 
0.9176645 -0.19712585 0.3450121 
0.45092937 -0.8660104 0.21607569 
0.689146 0.34368765 0.6379315 
-0.6847352 -0.4383591 -0.58221906 
-0.6444488 0.11600454 -0.7557967 
-0.654892 -0.7076213 -0.26530856 
-0.6213521 -0.27442828 -0.7339011 
0.29163772 -0.26960257 -0.9177484 
0.51819825 0.035125665 -0.8545389 
-0.051368557 -0.04964444 -0.9974451 
0.2605117 -0.5715676 -0.778103 
0.47652197 -0.8144638 -0.3310219 
0.7081229 -0.39933187 -0.5823196 
0.6220368 0.28866622 -0.72783387 
0.02446587 0.046221193 -0.99863166 
0.09835232 -0.22375132 -0.9696712 
0.97372043 0.2270211 -0.01816771 
0.095599 -0.62472093 0.774974 
-0.19846655 -0.25629345 0.9460046 
0.56429935 -0.618457 0.54687953 
0.2803853 -0.6372171 0.71787083 
-0.18922515 -0.7234588 0.66392857 
-0.19823347 -0.88720423 -0.41661993 
-0.20484032 -0.46586695 -0.86081845 
-0.18011495 -0.38519004 -0.90508974 
0.73607546 -0.59197766 -0.32826117 
-0.38998914 -0.8224722 -0.4140628 
-0.95338875 -0.12631334 0.27403423 
-0.9567779 -0.2676905 -0.11365732 
-0.616871 -0.5499008 -0.56309795 
-0.63392514 -0.59225726 -0.49736342 
-0.7207717 -0.6926434 -0.027082302 
-0.3691546 -0.8506838 0.37424862 
-0.46081764 -0.86567897 -0.19556865 
-0.25035173 -0.8522107 -0.45941365 
0.2865825 -0.39458725 -0.8730243 
-0.0036137155 -0.6765831 -0.73635745 
0.53078127 -0.4710708 -0.7045308 
0.17499246 -0.7902317 -0.58729166 
0.6473506 -0.45365894 -0.6124792 
0.45743814 -0.5519146 -0.69723797 
0.26919612 -0.38663003 -0.88207185 
0.8075562 -0.25028488 -0.53405094 
0.71877736 -0.5894738 0.3686188 
0.41344693 -0.52493995 -0.7439757 
-0.08435828 -0.44776374 -0.8901636 
0.3880254 -0.68981314 -0.6112236 
0.10024597 -0.61247677 0.78410643 
0.2503249 -0.95370823 -0.16666725 
0.6477561 -0.7083442 -0.28046486 
-0.30304286 -0.88851875 -0.34452808 
-0.33164328 -0.8325387 -0.44372535 
0.08662148 -0.90826434 -0.40933192 
-0.18415123 -0.7103318 -0.67935055 
0.18703043 -0.7425607 -0.6431355 
0.1016157 -0.61465657 -0.7822223 
0.635721 -0.47784495 -0.60623676 
0.29590923 -0.74203646 -0.6015146 
0.08157473 -0.99593997 -0.03806878 
-0.450994 -0.46285355 -0.7631324 
-0.77603203 -0.21121658 -0.5942743 
-0.49078944 -0.33995813 -0.8022184 
-0.31778052 -0.4655514 -0.82600087 
0.48054197 -0.5501613 -0.6829364 
-0.4682285 -0.700108 -0.5390834 
-0.7068634 -0.7068442 0.026748428 
0.23108444 -0.72034544 -0.6539897 
0.07194877 -0.6480817 -0.75816464 
0.76948714 -0.16874488 -0.61596656 
-0.5039637 -0.16189563 -0.8484165 
0.23815483 -0.21246217 -0.9477036 
0.047822706 -0.011769754 -0.99878657 
0.027906673 -0.67748284 -0.7350091 
-0.092017286 -0.4931166 -0.8650832 
0.15260927 -0.03337494 -0.98772293 
0.0022196858 0.34984115 -0.9368065 
-0.12157023 -0.1201579 -0.9852831 
0.49641958 0.24768747 -0.8319967 
0.60616326 -0.7742716 -0.18185076 
0.31466722 -0.9424462 0.11304807 
0.84361017 -0.2757361 -0.46075112 
0.4024141 -0.84245646 0.35823178 
-0.18765323 -0.8195649 0.5413869 
-0.062900215 -0.9753404 0.21155286 
-0.1585945 -0.8611242 -0.48302472 
0.6005226 -0.21464087 -0.770261 
0.66897845 -0.3111524 -0.6750201 
0.33528993 -0.89844203 -0.2835183 
0.27531096 -0.84673 -0.45524973 
-0.6079598 -0.7824241 0.13489777 
-0.22551465 -0.55640537 0.7997226 
-0.5044291 -0.8380338 -0.207968 
-0.3704298 -0.721617 -0.5848511 
-0.928784 -0.29462415 -0.22484836 
-0.7778568 -0.41151372 0.4749687 
-0.75439215 -0.045185644 0.65486705 
-0.15169625 -0.6666518 0.7297696 
-0.48406258 -0.49738875 -0.7199221 
-0.78263676 -0.19451438 -0.59130687 
-0.81125927 -0.50977576 -0.2863341 
-0.60192 -0.111344405 -0.79075587 
-0.74016774 -0.06479757 -0.6692929 
-0.64636374 -0.20404802 -0.73524034 
0.006033079 -0.44936392 -0.89332837 
0.8560757 -0.19071378 -0.48037764 
0.38256857 -0.09757275 -0.9187605 
-0.2507198 -0.27781212 -0.9273403 
0.037473172 0.5727503 -0.818873 
0.2524368 -0.027791297 -0.9672143 
0.015660757 -0.3840512 -0.9231791 
0.75611 -0.1958283 -0.6244589 
0.85667884 -0.5063176 -0.09871129 
0.3629937 -0.82841426 -0.42657402 
0.22001867 0.13650544 -0.9658976 
-0.08201053 -0.45910358 -0.8845893 
0.035397902 -0.3571578 -0.9333731 
0.46332714 -0.63290215 -0.62029254 
-0.21519524 -0.84071887 -0.49687314 
-0.26340142 -0.958165 0.111980535 
-0.4302451 -0.76522416 -0.47887483 
-0.24783131 0.010565493 -0.96874565 
0.58327276 -0.19338427 -0.78892046 
0.4080095 0.24731031 -0.8788435 
0.6925649 0.35789457 -0.6263109 
0.96135753 -0.26376602 0.07886126 
0.29944375 -0.79352224 -0.52976966 
0.036584843 -0.82649314 -0.56175685 
0.35814604 -0.822271 -0.44226903 
0.55488336 -0.8214502 -0.13162115 
0.47051156 -0.8292566 0.30158338 
-0.10816099 -0.89503455 0.43268293 
-0.73906493 -0.39190823 0.5478969 
-0.4749411 -0.7487039 -0.46246466 
-0.4030555 -0.5601055 -0.7237597 
-0.110165894 -0.5503876 -0.8276093 
-0.15039542 0.12752645 -0.9803664 
0.3896602 -0.24254179 -0.8884472 
-0.04583684 -0.97787416 -0.20411094 
0.6052292 -0.6347315 -0.48043066 
0.8293557 -0.43800548 0.3468724 
0.17325288 -0.98487055 -0.003688347 
-0.06800068 -0.93114823 0.3582442 
-0.22659114 -0.8694617 0.43896803 
-0.7456115 -0.38929674 -0.5408435 
-0.74372137 -0.3420744 -0.5743376 
-0.8749306 0.011723286 -0.4841063 
-0.9994278 0.0068679983 -0.03312078 
-0.81396097 -0.2999849 0.49747032 
-0.9743975 -0.21418817 -0.06835883 
-0.6711061 -0.68439764 -0.28498507 
-0.44621325 -0.8308881 -0.3324435 
-0.32173866 -0.3486356 -0.8803054 
-0.4304472 -0.5292331 -0.7311823 
-0.011262782 -0.9067924 -0.42142704 
-0.4833966 -0.87238526 -0.0726074 
-0.0068525523 -0.8965131 -0.44296417 
-0.31457832 -0.503864 -0.8044635 
-0.16496849 -0.69370955 -0.70110804 
0.0447232 -0.87697524 -0.47845003 
0.51462156 -0.5223948 -0.67990327 
0.6266784 -0.08141141 -0.7750139 
-0.02992892 -0.99753803 0.06342179 
-0.079811685 -0.86675507 0.4923068 
0.6306585 -0.7713162 -0.085682176 
0.55685025 -0.5674067 0.60660326 
0.50453955 -0.099721715 0.8576103 
0.7839609 -0.0806652 0.6155473 
0.4766747 -0.18220006 0.8599909 
0.2162872 -0.9543593 0.20595723 
-0.07354374 -0.5019063 0.86178964 
0.06564385 -0.7446242 0.6642483 
0.17109314 0.33867082 0.92521846 
-0.1826179 -0.43098265 0.8836882 
-0.18081143 -0.5688337 0.8023312 
-0.5303222 -0.30155686 0.79235214 
-0.6512961 -0.7088113 0.27092445 
-0.6349633 -0.7725027 0.00782942 
-0.61089784 -0.7315223 -0.30278525 
-0.21497065 -0.6798729 -0.70111376 
-0.18221717 -0.059521906 -0.9814551 
-0.73603344 0.1530248 -0.6594227 
-0.4383784 0.022971647 -0.898497 
-0.45850933 -0.549982 -0.6980609 
-0.8485463 -0.21374823 -0.48402575 
-0.08933956 -0.92796236 -0.36180717 
-0.05782538 -0.8812422 -0.46911475 
-0.79311436 -0.2881253 -0.536613 
-0.5930797 -0.066276036 -0.80241144 
-0.50056607 -0.06556154 -0.8632123 
-0.5602997 0.12466069 -0.81885535 
0.12122395 0.005310101 -0.992611 
-0.085445635 -0.6060646 -0.79081273 
0.3513368 0.04214837 -0.9353 
0.4278898 -0.075250834 -0.90069294 
0.4778318 -0.094366044 -0.8733681 
0.8668515 -0.3765758 -0.3267405 
0.8060843 -0.37096223 -0.46110237 
0.38481858 -0.75790644 0.5267756 
-0.3305107 -0.1686894 0.9286047 
-0.6297174 -0.10565757 0.76960546 
-0.23196307 -0.88826615 0.39645505 
-0.63007575 -0.54390186 -0.55423397 
-0.16077095 -0.7233367 -0.67151827 
0.12257499 0.06088951 -0.9905897 
0.41378325 -0.59416234 -0.6897497 
0.20637242 -0.2249173 -0.9522724 
0.66187793 -0.31141174 -0.68186533 
0.07255674 -0.7869802 -0.61269706 
-0.99242103 0.118094526 -0.033975117 
-0.10251132 -0.8100554 -0.57732284 
-0.73053133 -0.539423 -0.41874444 
0.06971923 -0.7710276 -0.6329738 
-0.5268347 -0.766782 -0.36672953 
-0.049733274 -0.50208366 -0.8633879 
0.34881514 -0.62347543 -0.6997189 
-0.3219849 -0.85297793 -0.41079724 
-0.21629299 -0.45267558 -0.86504465 
-0.44418487 -0.0445305 -0.8948279 
-0.730518 -0.058727875 -0.68036354 
-0.040531628 0.24051006 -0.96980006 
0.2256741 0.2149976 -0.95018274 
-0.44270316 -0.3337847 -0.83222693 
-0.4668721 -0.7118896 -0.5246368 
-0.17937067 -0.9794096 -0.0926447 
-0.6161273 -0.2073954 -0.7598516 
-0.63144577 0.16795154 -0.7570129 
-0.31547675 0.1954342 -0.92859036 
-0.5828768 -0.6538136 -0.48247534 
0.12595879 -0.21601214 -0.968232 
-0.35676736 -0.6712919 -0.6496802 
-0.6603016 0.17084615 -0.73130935 
0.21189745 -0.0820584 -0.9738409 
-0.31281772 -0.804852 -0.5043396 
-0.4670626 -0.8275281 -0.31152812 
-0.15440463 -0.8217064 -0.5485962 
-0.91400325 -0.34527245 -0.21303765 
-0.19908865 -0.3806635 -0.9030277 
0.22300386 -0.97176427 -0.07709498 
-0.79962087 -0.5263368 -0.28909558 
-0.3165791 -0.34989694 -0.8816745 
-0.39429003 -0.03955588 -0.9181344 
0.2517541 -0.06604501 -0.9655351 
0.5043697 0.20444384 -0.8389362 
0.385976 0.37516287 -0.84277844 
-0.31491837 0.32131225 -0.89307606 
0.33487204 -0.062900156 -0.9401618 
0.31023315 -0.1883625 -0.9318127 
0.4285485 -0.70985293 -0.5589768 
0.9131523 0.041328706 -0.40551823 
0.94556487 -0.048967686 -0.32172865 
0.15775096 -0.7115358 -0.68471277 
0.66534734 -0.31344074 -0.6775454 
0.12453193 -0.8070615 -0.5771859 
0.36099267 -0.9324239 0.016434979 
0.40792397 -0.91301084 0.0030466758 
0.57021266 -0.8039339 -0.168961 
0.14453357 -0.98943424 -0.011405367 
0.16065277 -0.9404033 -0.29972067 
0.15963504 -0.37845477 0.9117504 
-0.72222936 -0.3785979 -0.57883364 
-0.4735934 -0.3046423 -0.8263791 
-0.82238907 0.24314672 -0.51434994 
-0.15039514 -0.28789783 -0.94577813 
0.5150104 -0.20829698 -0.8314907 
0.80867916 0.107231095 -0.5783938 
0.16186771 -0.81701475 -0.5534309 
-0.16900109 -0.64686257 -0.7436447 
0.5383427 0.05159096 -0.8411454 
0.5903259 -0.2120215 -0.7788212 
0.5429171 0.14811905 -0.8266207 
0.72736484 -0.5560806 -0.40213773 
0.37718466 0.26692078 -0.88684 
0.85674196 0.50948864 -0.08009083 
0.60382116 -0.4662923 0.64650726 
-0.19448179 -0.16985415 0.96608824 
-0.34597126 -0.47839746 0.8071181 
-0.5513047 -0.36073616 0.752285 
-0.6533888 -0.5769694 0.49009135 
-0.6402096 -0.7290254 -0.24218522 
-0.38668168 -0.7144867 -0.5830832 
0.0009910244 -0.49770555 -0.86734545 
0.027279789 -0.899218 -0.43664968 
-0.0885481 -0.98241967 0.16434997 
-0.35350084 -0.9339722 -0.052279674 
-0.3645713 -0.64198714 -0.67449266 
-0.26531777 -0.1445479 -0.95326406 
-0.7205568 -0.55065596 -0.42139772 
-0.950403 -0.30329758 0.06888277 
-0.97161055 -0.23305301 0.040733602 
-0.25056583 -0.05646125 -0.96645176 
-0.57520676 -0.2843096 -0.7670107 
0.17871724 0.75679433 -0.6287468 
0.69348973 0.12987792 -0.70866346 
0.43878826 0.5212336 -0.73197025 
0.7931482 -0.47259304 -0.3841508 
0.5938665 -0.34418967 -0.72722495 
0.62511224 -0.32991615 -0.7073825 
0.5856687 -0.610318 -0.5333893 
0.4089038 -0.7305051 -0.5469552 
-0.24658163 -0.88190424 -0.40179884 
0.12769455 -0.4845075 -0.865417 
0.1968054 -0.431311 -0.8804763 
0.18514273 -0.4115656 -0.8923766 
0.0067131603 -0.122431256 -0.9924543 
0.46086287 -0.5493101 -0.6970394 
0.34328508 -0.8229902 -0.4525953 
0.15987432 -0.61650234 -0.7709508 
0.8854891 -0.13162847 -0.4456264 
0.58354306 -0.5734917 -0.5749652 
-0.100180596 -0.86173314 -0.4973729 
-0.34921396 -0.528456 -0.77381134 
0.06579229 -0.5711353 -0.81821513 
0.49160716 -0.090252355 -0.86612755 
-0.02429086 -0.17683369 -0.98394096 
0.021927165 -0.845882 -0.53291935 
-0.18025021 -0.67990005 -0.7108065 
0.35717657 -0.2889492 -0.88821924 
-0.05547953 -0.33075008 -0.9420862 
-0.26542357 -0.14136697 -0.9537115 
-0.30822664 -0.8876207 -0.3422367 
-0.39026505 -0.76778877 -0.5081277 
-0.30000716 -0.8978953 -0.3221487 
0.0020782992 -0.8138201 -0.5811132 
0.20295434 -0.39583033 -0.89561605 
0.23789081 -0.79391825 -0.5595551 
0.3208112 -0.17704777 -0.9304484 
0.78482753 0.10624582 -0.6105387 
-0.25825632 0.41314292 -0.87327933 
0.5305226 0.29463914 -0.7948168 
0.08307349 -0.0819494 -0.9931683 
0.87132615 -0.37694916 -0.3141658 
0.6063219 0.10562984 -0.7881728 
0.12636194 0.47922155 -0.86855024 
0.007120741 0.09443195 -0.9955059 
0.20077261 -0.8064589 -0.5561605 
0.60165703 -0.7893883 0.12196305 
0.45949823 -0.8854116 -0.07005495 
0.49561414 -0.6370146 -0.5904059 
0.29738465 -0.8608653 -0.41288412 
0.43091026 -0.89542145 -0.111967824 
0.08681266 -0.60802734 -0.78915554 
0.67216814 0.13447157 -0.7280848 
0.81181914 -0.5545023 -0.18296722 
0.41149688 -0.5994941 -0.68649626 
0.55770785 -0.76430106 -0.32373753 
-0.30762288 -0.9399355 -0.14795086 
-0.04279843 -0.98477876 0.16846085 
-0.32470846 -0.91579664 0.23639199 
-0.36445236 -0.9086146 -0.20394649 
-0.8385529 -0.5268826 -0.13865057 
-0.47392002 -0.87747306 0.073763736 
-0.48014346 -0.8232646 -0.3028162 
-0.50436294 -0.8498242 -0.1530262 
-0.62170094 -0.06535687 -0.7805233 
-0.5182758 0.33653122 -0.78621686 
-0.66778165 -0.46669224 -0.5798845 
-0.565133 0.05213463 -0.823351 
0.563177 -0.42693084 -0.7075039 
0.31434605 0.38368127 -0.8683175 
0.44287184 -0.025716083 -0.89621603 
0.9134878 -0.29925326 -0.27565867 
0.8989984 -0.43547437 -0.046519138 
-0.06695438 -0.84563845 -0.52954006 
-0.016997745 -0.1789559 -0.9837102 
0.41993302 0.13057712 -0.8981124 
0.18652631 -0.033933748 -0.9818638 
-0.045036726 -0.2670683 -0.96262467 
0.75634116 -0.29183248 -0.5854758 
0.4795489 -0.43213478 -0.7637359 
0.77190405 0.009551247 -0.6356673 
0.5571644 0.6059421 -0.56780475 
0.8724343 0.13263002 -0.47039092 
-0.4102685 -0.71608865 -0.56470954 
-0.08660467 -0.7643935 -0.63890713 
-0.69203836 -0.6331502 -0.3467041 
-0.00750366 -0.44372016 -0.896134 
-0.32263988 -0.16189449 -0.93257374 
0.5897498 0.47930196 -0.649973 
0.20646314 -0.39134824 -0.8967829 
0.42356786 0.059588782 -0.90390235 
0.5274925 -0.52625287 -0.66694057 
0.27466586 -0.7976589 -0.5369349 
0.43033195 -0.4494919 -0.7827973 
0.57181805 -0.8203676 -0.0046012863 
0.55194217 -0.79723704 -0.24448504 
0.4968499 -0.79200023 -0.35479003 
-0.14297087 -0.97836757 -0.14951982 
0.1975948 -0.95801795 0.20774503 
-0.26905078 -0.8433845 -0.4650959 
0.09171888 -0.42226765 -0.90181917 
0.50426 -0.06626395 -0.86100584 
0.5671388 0.052966822 -0.8219173 
-0.2144183 0.7853176 -0.5807762 
-0.068637624 0.15747762 -0.98513436 
0.3941933 -0.62194383 -0.67660743 
0.44659486 -0.6498603 -0.6150079 
0.16336763 -0.96635205 -0.19868243 
0.11310927 -0.98063534 -0.15987706 
-0.30862918 -0.951158 0.006830573 
-0.11647087 -0.8314101 -0.54331553 
-0.14384396 -0.9394847 -0.31092986 
-0.14435677 -0.9707111 -0.19204451 
0.014971053 -0.9846524 -0.17388362 
-0.7626827 -0.6439223 0.060655627 
-0.8267631 -0.39326802 -0.40224755 
-0.39321545 -0.37648615 -0.8388324 
-0.35445604 -0.59934133 -0.71774024 
-0.23029813 -0.0566942 -0.9714672 
0.14747374 -0.19653498 -0.9693429 
-0.0052168784 -0.74008006 -0.6724986 
0.07891675 -0.8694457 -0.48768464 
0.3689245 -0.8461274 -0.38465998 
-0.2598662 -0.5903353 -0.7641819 
-0.33612767 -0.93744874 -0.090598844 
-0.029110633 -0.77731127 -0.62844247 
0.2641771 -0.7040454 -0.6591894 
0.41628006 -0.459313 -0.78469265 
0.15570514 -0.87997323 -0.44877943 
0.63436204 -0.75475365 -0.16712826 
0.68836606 -0.28684694 -0.6662366 
0.83196634 -0.5340339 0.15046547 
0.46018076 -0.5507271 0.69637156 
0.7120355 0.112917654 0.6930044 
0.7588877 -0.58186716 0.29243812 
0.24464919 -0.8994755 0.36206445 
-0.2178357 -0.94721967 0.23520726 
0.13113856 -0.94284064 0.30635643 
-0.79578185 -0.41574562 0.440326 
-0.7173683 -0.27744877 0.6390657 
-0.7534559 -0.647135 -0.11627839 
-0.30385703 -0.8205649 -0.484091 
-0.1612004 -0.70236933 -0.69331944 
0.05423485 -0.96172523 -0.26859474 
-0.30486313 -0.7159096 -0.6281178 
-0.7033615 0.297717 -0.6454822 
-0.51528233 -0.10605332 -0.8504333 
-0.9607343 -0.0521035 -0.27253407 
-0.30966222 -0.22729222 -0.92328095 
-0.32120278 -0.57959706 -0.74893 
-0.46351424 -0.8634805 -0.1988868 
-0.17229979 -0.35218957 -0.91993225 
-0.519909 0.13587533 -0.8433461 
-0.72942567 0.08147177 -0.6791912 
-0.70205384 -0.28404942 -0.65302104 
-0.6437517 0.05475202 -0.76327336 
-0.7592021 -0.3275009 -0.56245476 
-0.36359164 -0.5155329 -0.77590394 
-0.053510763 -0.42723212 -0.90255713 
0.8260943 0.2610415 -0.4994252 
0.918207 -0.3082646 -0.24873438 
0.9313529 0.023185432 -0.363379 
0.936092 -0.21551895 -0.27799892 
0.7501391 -0.6125959 0.24903326 
0.44294262 -0.82122177 0.35971743 
-0.77786607 -0.4442729 0.44446135 
-0.71730155 -0.67353165 0.17841993 
-0.017702393 -0.80683553 -0.59051085 
0.2415773 -0.8302221 -0.50236624 
0.23822635 -0.37882176 -0.8942832 
0.29402846 -0.1427771 -0.94507253 
0.6051412 -0.4028555 -0.68666697 
0.012123984 -0.5163416 -0.8562969 
-0.54828584 -0.07176312 -0.8332064 
0.20584008 -0.61305445 -0.7627543 
0.064164884 -0.9123265 -0.4044048 
-0.65774953 -0.5017413 -0.5618019 
-0.09823047 -0.8991091 -0.42656022 
-0.22013396 -0.90996003 -0.35144517 
0.04570082 -0.5343882 -0.84400284 
-0.0024610637 -0.5860883 -0.8102434 
-0.08671976 -0.25079772 -0.9641474 
0.17030805 -0.39143223 -0.9043097 
-0.22339478 -0.19095205 -0.95584106 
-0.5301056 -0.5608872 -0.63591963 
-0.5420291 0.045913417 -0.83910465 
0.07273451 0.5394913 -0.8388439 
0.23549455 -0.43432057 -0.86942977 
0.5535442 -0.45682684 -0.6963463 
-0.27376866 -0.7238418 -0.63332766 
-0.20529085 -0.8714243 -0.44550583 
-0.26898345 -0.47085756 -0.840203 
0.35540053 -0.42534453 -0.83232963 
0.13448828 -0.37268332 -0.91816133 
0.036967766 -0.26051348 -0.9647623 
0.31857118 0.29053804 -0.902275 
-0.28458992 -0.71559805 -0.6379092 
-0.30829358 -0.8168617 -0.48753682 
-0.019853396 -0.6483464 -0.7610866 
-0.55006623 -0.5153084 -0.65717924 
-0.61685675 -0.71627283 -0.32625324 
-0.13651286 -0.79804784 -0.58692765 
-0.22122306 -0.89747 -0.38158622 
0.13926582 -0.9849777 -0.102097206 
-0.689151 -0.5314254 -0.4926033 
-0.73009104 -0.54034024 -0.41832954 
-0.48959443 -0.097348034 -0.86649907 
-0.45559487 -0.056179564 -0.8884128 
0.14460032 -0.3888181 -0.9098964 
0.27867517 0.06742471 -0.9580157 
0.37014088 0.52046615 -0.7694874 
0.3814718 0.72875994 -0.56867236 
0.5804503 0.5270706 -0.6207046 
0.4858499 -0.20739037 -0.8490814 
-0.0957161 -0.33780575 -0.93633634 
0.4639276 -0.3282959 -0.82279587 
0.42225084 0.270405 -0.8652084 
0.0122250775 -0.8123798 -0.58300054 
0.5189877 -0.69903624 -0.4919352 
-0.0690127 -0.18600038 -0.980123 
0.6040401 -0.7502912 -0.26869854 
0.0073659536 -0.99849665 -0.054316606 
-0.23252615 -0.8860081 -0.40114996 
0.17533246 -0.8785645 -0.44427815 
-0.38553065 -0.89088666 -0.24018139 
0.6953794 -0.64966244 0.30722347 
-0.08453479 -0.58545756 -0.80628365 
-0.76571965 -0.25593778 -0.5900587 
-0.9159046 0.066124104 -0.39591232 
-0.57485294 -0.592505 -0.5643421 
0.33829182 -0.2597197 -0.9044912 
-0.30583072 -0.5940911 -0.7439915 
0.648665 -0.4135566 -0.6389089 
0.76728827 -0.22577329 -0.6002459 
-0.37314913 0.39108258 -0.84131694 
0.748167 -0.08552014 -0.65797615 
0.6715899 0.27503294 -0.68798536 
0.19304363 -0.4015262 -0.8952714 
0.6467724 -0.14156237 -0.7494302 
0.989195 0.13171706 0.06437297 
0.28879228 -0.7793839 0.5560214 
-0.06272929 -0.51938486 0.85223496 
0.105304115 -0.75936157 0.6420911 
-0.6721475 -0.7002422 0.2405798 
-0.7510956 -0.6288757 -0.20092517 
-0.74926716 -0.6065739 -0.2658324 
-0.57321167 0.122211784 -0.8102425 
-0.3487824 -0.90187955 -0.2548809 
-0.3109555 -0.64175135 -0.7010434 
-0.3316401 -0.78377306 -0.5250855 
-0.08521348 -0.025522457 -0.9960358 
-0.16885528 -0.55799717 -0.8124822 
-0.4320897 -0.74550813 -0.5074606 
-0.7292121 -0.57825494 -0.3658839 
-0.85678655 -0.49946094 -0.12827969 
-0.8404647 -0.49338913 0.22402315 
-0.7972473 -0.39514685 -0.45635045 
-0.61000615 0.3818073 -0.6943456 
-0.39948526 0.055177134 -0.9150777 
-0.4054542 -0.040157735 -0.913233 
0.53868127 -0.7421735 -0.3987494 
0.26749927 -0.93812287 -0.21993095 
0.055292405 -0.9121991 -0.40599948 
0.1685447 -0.058681853 -0.9839457 
0.503594 -0.7699429 -0.39189422 
0.3991443 -0.9144471 0.066860214 
0.5430109 -0.44559193 -0.7117493 
0.48396775 -0.04471219 -0.8739429 
0.42800972 -0.742849 -0.5147652 
0.3053 -0.82517284 -0.47527027 
-0.06912853 -0.42666107 -0.9017659 
-0.017395442 -0.5166185 -0.85603905 
0.42504942 -0.50275916 -0.752706 
0.29420775 -0.5901369 -0.75178474 
0.5928727 -0.78576356 -0.17628883 
0.2081106 -0.7347424 -0.6456343 
-0.5864131 -0.80103713 -0.12024641 
-0.17392631 -0.3563911 -0.918006 
-0.041775484 0.25434926 -0.96620977 
0.20663995 0.7384248 -0.6418948 
0.28288382 -0.6189173 -0.7327471 
0.063148856 -0.62530535 -0.77782094 
-0.654506 -0.03199859 -0.75537944 
0.12214017 -0.38138407 -0.9163123 
-0.8223294 -0.44090635 -0.3596887 
-0.5449533 -0.3024523 -0.78201574 
-0.17780761 -0.67635745 -0.7147903 
-0.6516848 -0.07589212 -0.7546836 
-0.5133503 -0.81895006 -0.2565 
-0.3993598 -0.60714847 -0.6869371 
-0.5139558 -0.72062254 -0.46535233 
-0.5915467 -0.6250692 -0.50927514 
-0.021944027 -0.17738253 -0.9838974 
0.31903553 0.1725076 -0.9319107 
0.11467801 0.6708882 -0.73263776 
0.25848234 0.19327137 -0.9464846 
0.015346993 0.460606 -0.8874721 
0.5653523 -0.09902991 -0.8188833 
0.37619868 -0.1263045 -0.9178899 
0.7190959 -0.36569792 -0.5909029 
0.2517221 0.24667342 -0.9358356 