# OOMMF: rectangular mesh v1.0
# Segment count: 1
# Begin: Segment
# Begin: Header
# Desc: Time (s) :  6.010000000000011e-07
# Title: m
# meshtype: rectangular
# meshunit: m
# xbase: 2e-09
# ybase: 2e-09
# zbase: 5e-10
# xstepsize: 4e-09
# ystepsize: 4e-09
# zstepsize: 1e-09
# xmin: 0
# ymin: 0
# zmin: 0
# xmax: 1.024e-06
# ymax: 1.024e-06
# zmax: 1e-09
# xnodes: 256
# ynodes: 256
# znodes: 1
# ValueRangeMinMag: 1e-08
# ValueRangeMaxMag: 1
# valueunit: 
# valuemultiplier: 1
# End: Header
# Begin: Data Text
-0.69732004 0.08878251 0.71124005 
-0.5588976 -0.809294 0.18076696 
-0.64474535 -0.75120413 0.14140649 
-0.53068763 -0.7960202 0.2910714 
-0.47128835 -0.81671387 0.33296522 
0.100423075 0.45688048 0.88384134 
-0.29975575 0.11298794 0.9473016 
0.1466909 -0.73959035 0.65687746 
-0.07685367 -0.25311595 0.9643785 
-0.31529462 -0.8828816 0.34800777 
-0.50917834 -0.7555992 -0.41207692 
-0.717852 -0.33345962 -0.61114097 
-0.60286975 -0.34585196 -0.71898156 
-0.5378304 -0.11483517 -0.83519536 
0.38935882 0.20899256 -0.8970629 
-0.18538187 0.6523941 -0.7348575 
0.35976496 -0.5262192 -0.770495 
0.3950611 -0.39008307 -0.8317222 
0.31724662 -0.20467183 -0.9259935 
0.4371415 0.39997792 -0.80555886 
0.26529577 -0.17672701 -0.94783217 
0.4884304 -0.38447636 -0.783335 
0.1870202 -0.9784643 -0.08735614 
0.080560364 -0.2791654 -0.9568578 
0.53794605 -0.74057156 -0.40270075 
0.6000857 -0.7487473 -0.28155774 
-0.25703964 -0.93699074 -0.23659891 
-0.6970273 -0.71543044 -0.04808547 
-0.5627957 -0.82571477 -0.03815849 
-0.4698143 -0.597133 -0.65015906 
-0.74391204 -0.6109659 -0.27076858 
-0.4248009 0.340649 -0.8387506 
-0.83531797 -0.14213215 -0.53107655 
0.22308615 -0.23868185 -0.9451263 
0.5321459 -0.56972593 -0.6262853 
-0.03763729 -0.19066401 -0.98093367 
0.32087702 -0.10350039 -0.9414487 
0.2086035 -0.16428323 -0.9641035 
-0.30461866 0.09513662 -0.9477113 
0.15719226 -0.7006722 -0.69595194 
-0.23968786 -0.48792967 -0.8393298 
0.3713809 -0.50146705 -0.7814135 
0.051884238 -0.68998146 -0.7219652 
0.25459647 -0.06580679 -0.96480584 
-0.54422116 -0.5575462 -0.6268698 
-0.78184754 -0.0612786 -0.6204509 
0.13621569 -0.44875115 -0.88321453 
0.56252044 0.55070686 -0.61667883 
0.7120268 -0.16621724 -0.6821948 
0.46350107 -0.118144676 -0.8781848 
0.20184056 -0.28777516 -0.93618685 
0.7675252 -0.63268614 0.10302161 
0.097052045 -0.99444926 0.040641624 
0.44583955 -0.7968718 -0.4077038 
-0.07240408 -0.98405933 0.16243449 
-0.67558 -0.60483867 0.42161807 
0.18728472 -0.92415017 0.332973 
0.13289922 -0.9866048 0.094598845 
0.29598033 -0.95264715 0.06970787 
0.5938671 -0.7951569 0.12266883 
0.4510019 -0.7126787 0.53729546 
0.12438237 -0.8608714 0.4933859 
-0.30373663 -0.5525533 0.7761629 
0.15027076 -0.9770369 0.15105483 
-0.13420826 -0.856145 0.49900287 
0.06302018 -0.70488626 0.70651525 
-0.38204265 -0.6870799 0.61803293 
0.011198794 -0.8347329 0.5505412 
-0.72381526 -0.5099053 0.46485275 
-0.6335684 -0.47368327 -0.6117314 
-0.73720646 -0.6746593 -0.036898825 
0.51293576 -0.7473809 -0.42227808 
0.28510967 -0.9181167 0.2752714 
-0.2573635 -0.8875952 0.3820194 
0.69294715 -0.6695266 0.26750425 
0.23030429 -0.9595549 -0.16190885 
-0.030093173 -0.98813474 -0.15061319 
-0.23553911 -0.7122273 -0.6612516 
0.44302368 -0.5501323 -0.70787334 
0.39999226 -0.87317705 0.27851036 
0.4894366 -0.5853027 0.6464306 
-0.20118408 -0.9713169 0.12676218 
-0.111175045 -0.7037796 0.7016655 
-0.7036785 -0.4189696 0.57384765 
-0.8747708 -0.42265415 -0.23693806 
-0.29128057 -0.2036632 -0.93470687 
-0.3184633 -0.30509016 -0.8974972 
-0.2828748 -0.61267316 -0.73797935 
-0.40141952 -0.046886746 -0.9146934 
-0.10508705 -0.16638911 -0.98044455 
0.5398748 -0.112192675 -0.834235 
0.70524967 0.51694757 -0.48516816 
0.60439825 -0.02547088 -0.7962751 
0.953672 0.23523879 -0.1875433 
0.56960934 0.7218006 -0.39312744 
-0.32664022 0.57715094 -0.74846715 
-0.19670671 0.12783839 -0.9720925 
-0.5493314 0.67033863 -0.49888 
-0.26959977 0.53832656 -0.79844886 
-0.6125396 0.32965627 -0.71841633 
-0.2637742 0.559328 -0.78585964 
0.17351298 0.61862063 -0.766291 
0.025195822 0.32264614 -0.94618434 
0.273036 -0.001138213 -0.9620031 
-0.5625781 -0.45959806 -0.68722314 
-0.56443816 -0.16668718 -0.8084708 
-0.1417735 -0.5753994 -0.80549103 
-0.32690105 -0.28485033 -0.9011083 
-0.13461974 -0.63473505 -0.7609134 
0.051271554 -0.5008932 -0.8639892 
0.6319293 -0.6630306 -0.40131754 
0.84790367 -0.5279067 -0.048723713 
0.20776829 -0.8363049 0.5073721 
0.061803136 -0.99070376 0.12118796 
0.21213262 -0.805955 0.5526631 
-0.33300704 -0.91724837 0.2185445 
-0.22048864 -0.4534211 -0.8635937 
0.5857101 -0.24056813 -0.77399653 
-0.28801632 0.68273956 -0.67150086 
-0.025249667 0.54153395 -0.8402996 
-0.27823728 0.47163767 -0.8367448 
0.38778335 -0.5579934 -0.7336672 
0.6970136 -0.29720503 -0.6525652 
0.4863455 -0.86916524 -0.089553945 
0.8852204 -0.25477538 0.38919714 
0.57897377 -0.41763368 0.70026535 
-0.52610165 0.44481584 0.7248144 
-0.63298506 -0.48808807 0.600916 
-0.78576493 -0.5819951 -0.20941623 
-0.8269495 -0.081016265 0.55640906 
-0.47948092 -0.21256405 0.85141927 
-0.33523527 -0.9362885 -0.10479164 
-0.03400672 -0.93339175 -0.35724437 
-0.0036698843 -0.92244506 -0.38611108 
-0.19353776 -0.7001822 -0.68723214 
0.0009644792 0.23510586 -0.9719693 
-0.24225208 0.7656063 -0.5959538 
0.40154523 -0.4756798 -0.78261757 
0.4455509 -0.89443123 -0.038433943 
0.54891074 -0.63399845 0.5447412 
0.51947606 -0.39823246 0.756013 
0.36945283 -0.876268 0.30928782 
0.32415935 -0.9457177 -0.023210332 
-0.23597804 -0.65127105 -0.7212215 
-0.11824711 -0.0757033 -0.9900943 
0.3250206 -0.90631014 -0.2701179 
-0.19935723 -0.93305624 0.29943734 
-0.74507755 -0.62862116 -0.22292349 
-0.3711074 -0.8580333 -0.3550468 
0.15031986 -0.9347634 -0.32190293 
-0.007897162 -0.4692803 -0.883014 
0.25884655 -0.8140754 -0.5198844 
0.32423946 -0.9453413 -0.03462208 
0.6551755 -0.6320551 -0.4138255 
0.23805648 -0.925386 -0.29494083 
0.057480395 -0.9037298 -0.42422715 
-0.30437165 -0.7954343 -0.52406317 
-0.6335355 -0.77306414 -0.031697754 
0.12899779 -0.6918969 -0.710379 
0.08658272 -0.890214 -0.44723853 
0.4361923 -0.8805636 -0.18532138 
0.8123194 -0.55481833 -0.17976019 
-0.42437968 0.07186854 0.90262777 
-0.916044 0.18632424 0.35517153 
-0.31597325 -0.47313505 -0.8223772 
0.011950264 -0.4715039 -0.88178307 
0.3213224 -0.21306139 -0.92269003 
0.25115293 -0.25913247 -0.93261606 
0.3936597 -0.20607026 -0.89586115 
-0.0049267495 -0.3052813 -0.95224947 
0.5037268 -0.504036 -0.7015747 
0.08953241 -0.40732813 -0.90888274 
0.14075866 -0.5297924 -0.83636534 
-0.11028676 -0.79749084 -0.5931655 
-0.14107388 -0.19923739 -0.96974367 
-0.17145532 -0.39056522 -0.9044678 
-0.716941 0.25222138 -0.64990765 
0.49126074 0.06654407 -0.86846703 
0.07621994 -0.39275345 -0.9164799 
-0.2949526 -0.8162827 -0.4966745 
-0.08148445 -0.8967954 -0.43487746 
0.6870534 -0.5363109 -0.49023297 
0.42407075 0.1442378 -0.894069 
0.8393043 0.1293025 -0.5280618 
-0.32645592 0.13946927 -0.9348663 
-0.015320889 0.3001399 -0.95377225 
0.3679835 0.2900987 -0.88342 
0.66526544 0.22596778 -0.7115901 
0.8730846 -0.0444258 -0.4855405 
-0.14049432 -0.7911426 -0.59527713 
-0.9652277 -0.23966534 -0.10438422 
-0.7535941 -0.53134435 0.38700023 
-0.7960396 -0.17680666 -0.57884413 
-0.699123 0.7148251 0.015879486 
-0.8445406 0.3740199 -0.38322377 
-0.5901872 -0.106985144 -0.80014575 
-0.83154726 -0.05030581 -0.55317146 
-0.44249278 -0.34270293 -0.82870674 
-0.3787342 -0.8063001 -0.45435748 
-0.16393498 -0.9281426 -0.3341805 
-0.11777515 -0.9929005 0.016662113 
0.39191255 -0.70228934 -0.5943015 
-0.28605235 -0.7560422 -0.5887057 
0.081330486 -0.453278 -0.887651 
0.40063968 -0.6444219 -0.65131277 
0.6339507 -0.28113824 -0.72046363 
0.19487207 -0.14555289 -0.9699687 
0.75414366 -0.64369863 -0.13007551 
0.92486435 -0.2725124 -0.26526025 
0.5383058 -0.30312186 -0.7863485 
0.33759242 0.21513237 -0.9163785 
0.6361161 -0.31534243 -0.7042128 
0.6140288 -0.75033367 -0.24488378 
0.5781033 -0.71130496 -0.3998024 
-0.058461025 -0.9939244 0.0932565 
-0.3222915 -0.2977325 -0.8986009 
0.2835816 -0.9191548 -0.27337897 
0.27039975 -0.64498955 -0.7147535 
0.14208002 -0.62006915 -0.77157474 
-0.1373157 -0.7113544 -0.689289 
0.25592092 -0.96236926 -0.09137724 
0.63574684 -0.7687908 0.069186375 
0.6803042 0.18043 -0.71037406 
0.28223383 -0.29742244 -0.9120767 
0.51061964 -0.78766155 -0.3447562 
0.6955498 -0.674788 0.24672177 
0.083202384 -0.99653226 0.000898901 
-0.4317869 -0.75040525 0.5004519 
-0.7677488 -0.5218772 0.37176067 
-0.9371296 0.10388283 -0.33316138 
-0.8510816 -0.1483497 -0.5036392 
-0.53989995 -0.21590723 -0.8135676 
-0.041849766 -0.26449385 -0.9634789 
-0.19006534 0.52230227 -0.8313095 
0.9538216 -0.17693791 0.24272907 
0.93501145 0.18057002 -0.30520183 
0.83489627 -0.33307675 0.43818736 
0.80374223 0.20187537 0.55968285 
-0.50986266 -0.27654815 0.81459266 
-0.743316 -0.55442417 0.37429303 
-0.87569135 -0.40362805 0.26504564 
-0.71114844 -0.70001143 -0.06520692 
0.24817352 -0.78498274 0.5676373 
-0.94292957 -0.19603096 -0.2691763 
-0.35284877 -0.5531281 -0.7546835 
0.26016814 -0.8472317 -0.46315348 
0.5169806 -0.82857215 -0.21493995 
0.54623085 0.14392802 0.82517666 
0.5000212 -0.16168448 0.85078603 
0.50733227 0.16018753 0.84673136 
0.083516926 0.06912283 0.9941062 
-0.17594174 -0.93709373 -0.30149624 
-0.6767968 -0.7344465 -0.050343584 
-0.70523536 -0.12079117 -0.6986077 
-0.21730922 -0.022993984 -0.9758319 
0.5548087 -0.17431481 -0.81351197 
-0.59132063 -0.7733527 -0.22861655 
-0.5832965 -0.6039028 -0.5432004 
-0.5254052 -0.68961304 -0.49838078 
-0.4614485 -0.68355757 -0.5655214 
-0.65440834 -0.6429609 -0.39793345 
-0.41860753 -0.5270623 0.73957634 
0.22319517 -0.96263593 -0.15334979 
-0.10362817 -0.90810066 0.4057271 
-0.08853273 -0.6918772 0.7165668 
-0.42401344 -0.3795421 0.8222898 
-0.70991725 -0.67136705 -0.2128001 
-0.50425816 -0.6046712 -0.61651975 
-0.27370092 -0.3868591 -0.8805838 
-0.55166173 -0.30976695 -0.774412 
0.7913584 0.024349585 -0.61086756 
0.33815253 -0.077725254 -0.9378762 
0.40319973 0.31199422 -0.8602847 
0.5263895 -0.16798452 -0.83348393 
0.85989875 -0.22915742 -0.45613706 
0.63269526 0.42743152 -0.6457546 
0.6763555 -0.076027185 -0.7326413 
0.62423694 -0.13709141 -0.7691126 
0.22519884 -0.76559544 -0.60261846 
0.6632658 -0.117841125 -0.73904806 
0.8210808 -0.46677312 -0.32855603 
-0.030487984 -0.9995039 0.007912862 
-0.5306843 -0.84667283 -0.038978327 
-0.17732295 -0.91151214 -0.37108266 
-0.5054271 -0.59010494 -0.6295393 
-0.11854386 -0.9886798 -0.09197596 
-0.9462929 -0.3064449 -0.103060395 
-0.73352736 -0.45068827 -0.5087414 
-0.5550514 -0.52393895 -0.6460697 
-0.10706702 -0.26268497 -0.95892304 
-0.25403124 0.09004506 -0.9629954 
-0.06779878 0.29980263 -0.9515891 
-0.39159125 -0.84980047 -0.3528391 
-0.62008613 0.058315735 -0.7823635 
0.14738517 0.20012502 -0.96862155 
-0.33333334 0.08193216 -0.9392423 
-0.24706651 -0.28113064 -0.9273207 
-0.32888442 -0.3982096 -0.8563084 
-0.72361934 -0.53845644 -0.43178666 
-0.071814924 -0.05760273 -0.9957533 
-0.43828493 -0.22073413 -0.87131107 
-0.2998329 -0.16370048 -0.9398417 
0.7279919 0.19461666 -0.65738285 
0.91274697 0.010616203 -0.40838748 
0.20342115 0.07217279 -0.9764277 
0.6520695 0.23660627 -0.72029364 
0.29978088 0.10337847 -0.9483905 
0.6354835 -0.7215492 -0.27482283 
0.36396 -0.69313395 -0.6221724 
0.69258213 -0.6568974 -0.29801983 
0.1528328 -0.97794056 0.14238851 
0.24508297 -0.9663076 -0.07863869 
-0.3337782 -0.9419359 0.036727704 
0.08170999 -0.92030525 -0.3825725 
-0.120946705 -0.93779695 -0.3254363 
0.20637663 -0.54967725 -0.8094835 
0.61608326 -0.6486173 0.4469196 
0.7193914 -0.68594104 -0.109366536 
-0.16053663 -0.9575447 0.23944996 
0.34969738 -0.757938 -0.5506741 
0.19091326 -0.97800314 -0.0840364 
0.6099517 -0.7833841 0.1194504 
-0.43313795 -0.8893726 -0.14631492 
-0.29888523 -0.9087188 0.29137215 
-0.072022445 -0.61096746 -0.7883727 
-0.21995664 -0.63708305 -0.73874515 
0.2610653 -0.11894229 -0.9579654 
0.33499506 -0.6116642 -0.7166905 
0.14287372 -0.59865606 -0.7881613 
0.5336704 -0.75883234 -0.37332228 
0.52864504 -0.8483263 0.029610721 
0.40480012 -0.9100812 -0.08882145 
0.04167639 -0.315682 -0.9479494 
0.2982313 -0.41927132 -0.8574786 
0.30032918 -0.9038882 -0.30461195 
0.81064504 -0.57017046 0.13326725 
0.37392163 -0.4835542 0.7914278 
0.013272737 -0.55214715 0.8336411 
0.16427952 -0.8215124 0.54601264 
-0.68800837 -0.65873104 0.30449617 
-0.5721493 -0.81957024 0.030820547 
-0.86671126 -0.2836563 -0.41030577 
-0.6506105 -0.62637204 -0.42937648 
-0.75712806 -0.3079736 -0.57611585 
-0.63393164 -0.23482196 -0.73687816 
-0.5898621 0.2667126 -0.76218575 
0.09850927 0.46866086 -0.8778685 
0.6383331 0.34513596 -0.68804955 
0.66121846 0.19222513 -0.7251481 
0.68426704 0.7266669 0.061104488 
0.02374391 0.9430046 0.33193147 
-0.9720621 0.18723997 0.14155075 
-0.9530102 0.26570138 0.14551401 
-0.9883488 -0.13720314 0.0658937 
-0.32179478 0.60206896 -0.7307264 
-0.8042422 -0.029289754 -0.59357965 
-0.19239353 -0.5190593 -0.8328039 
-0.3223124 0.17683454 -0.9299701 
-0.40371412 0.62366503 -0.6693705 
-0.60767263 0.04640836 -0.7928306 
-0.50587887 -0.60109335 -0.6186869 
-0.7928812 0.10764503 -0.59979326 
-0.63704574 0.059322376 -0.7685399 
0.19345576 -0.17841274 -0.96475065 
0.16132663 -0.76778555 -0.6200637 
0.07310525 -0.41281036 -0.9078784 
0.5131165 -0.5704501 -0.6413253 
0.6705466 -0.706244 -0.22712712 
0.95881474 -0.28353813 -0.016747916 
0.102718756 -0.8790001 -0.4656261 
0.20467234 -0.87158537 -0.44547528 
-0.082552105 -0.9964701 0.01524911 
-0.3481251 -0.43452084 -0.83066285 
0.10743441 0.18996206 -0.97589564 
-0.6643751 0.6339254 -0.3959095 
0.32996184 0.49000022 -0.8068612 
0.31793052 0.34286067 -0.8839495 
0.24787106 -0.76438636 -0.59520876 
0.70746374 -0.0065674502 -0.7067192 
0.5818491 -0.768559 -0.26602408 
0.24055794 -0.83037305 0.50260574 
0.057656247 -0.45687997 0.8876579 
-0.25013223 0.16194029 0.9545728 
-0.21377471 0.009334251 0.97683847 
-0.718426 -0.69001853 0.087969534 
-0.9339876 -0.1708893 -0.3137897 
-0.6910175 -0.70419246 0.16311945 
-0.28395805 -0.9109864 0.29911837 
0.47115257 -0.72924656 -0.49620038 
0.08495402 -0.78593147 -0.61244977 
0.27086905 -0.08407599 -0.9589376 
-0.08132938 0.18467927 -0.979428 
-0.111550964 0.51210773 -0.85164666 
0.27598935 -0.23660198 -0.9315844 
0.780103 -0.5944713 -0.19504665 
0.6761925 -0.09294299 -0.7308388 
0.8316915 0.13371323 -0.5388972 
0.75480944 -0.51607007 -0.4048882 
-0.076564856 -0.9049922 -0.4184816 
-0.1316576 -0.9756199 -0.17559075 
-0.37474626 -0.5237611 -0.7650096 
0.008187435 -0.8046362 -0.5937116 
-0.4281827 -0.7707168 -0.47186375 
0.2572893 -0.38454273 0.8865265 
-0.114051886 -0.8261988 -0.5517136 
-0.09255878 -0.6070226 -0.78927594 
-0.27172345 -0.21995823 -0.9369017 
0.29059824 -0.9034507 -0.31516594 
0.5610156 -0.63100564 -0.5358111 
0.41632918 -0.9090728 -0.016020242 
0.53525436 -0.81064165 0.23740868 
0.078761384 -0.99073744 0.11061667 
-0.44285613 -0.8364642 -0.3228095 
-0.42829537 -0.8596359 -0.2785487 
-0.09364394 -0.8258157 -0.55611086 
0.13476731 -0.93806195 -0.31918254 
0.030005187 -0.8558175 -0.516407 
-0.16125101 -0.9811929 -0.10610741 
-0.2710281 -0.84603244 0.45910034 
-0.9301706 -0.33246437 0.15572445 
-0.44583523 -0.3685484 -0.8157224 
-0.060282465 -0.66191673 -0.74714947 
0.24267331 -0.25403813 -0.9362555 
-0.58326644 -0.17789192 -0.79256207 
0.35151485 -0.013099822 -0.9360907 
0.48467407 -0.27380037 -0.83073735 
0.47856605 -0.8375874 -0.26348042 
-0.104447015 -0.15709534 -0.9820448 
0.54197276 0.11535502 -0.8324415 
-0.22304098 0.2127008 -0.9513207 
-0.06077705 0.36661035 -0.92838734 
-0.5302889 0.00030642154 -0.847817 
-0.41903508 -0.1596861 -0.8938177 
0.21488935 0.14810489 -0.9653433 
0.5658002 -0.26694638 -0.7801345 
0.07045268 -0.75013894 -0.65751654 
0.44242498 -0.852421 -0.27863747 
0.57210916 -0.0925802 -0.8149357 
0.88252556 -0.19677567 -0.42711583 
0.67112666 -0.23103023 -0.7044247 
0.38434282 0.25977576 -0.8858878 
0.5227025 -0.15600526 -0.83811957 
0.41835582 0.3244443 -0.8483599 
0.6784475 0.106782906 -0.726847 
0.28571153 -0.17505577 -0.94219136 
-0.92026454 -0.19961339 -0.33655262 
-0.9816324 0.07050567 0.17727634 
-0.7663083 -0.6330161 0.10982768 
-0.98861057 -0.10007961 -0.11239767 
-0.9660866 0.11749577 -0.22993815 
-0.66960347 0.23577206 -0.7043031 
-0.45049554 0.49217615 -0.74486005 
-0.81947166 0.24521671 -0.5180107 
-0.67350316 -0.25260985 -0.6946811 
-0.015661238 -0.60478777 -0.7962328 
-0.4844101 -0.30615026 -0.8195236 
-0.80126625 -0.5781579 -0.15396714 
-0.11378818 -0.7367341 -0.66653967 
-0.17440426 -0.82676464 -0.5348303 
0.17740314 -0.39675495 -0.9006185 
-0.09445913 -0.54966897 -0.830025 
0.1926544 -0.73735523 -0.64745015 
0.40219104 -0.6082176 -0.6843346 
0.34030902 -0.5519352 -0.7612867 
-0.1480878 -0.21286838 -0.96579355 
-0.40581638 -0.6363163 -0.65606004 
0.20893511 -0.37096858 -0.90483624 
0.1921767 -0.5934614 -0.7815829 
-0.07500161 -0.819588 -0.5680231 
0.23039128 -0.36431256 -0.90232825 
0.55275077 -0.544534 -0.63083225 
0.17878336 -0.4431404 -0.87844366 
-0.04572216 -0.8226904 -0.5666481 
0.15046276 -0.9333995 -0.3257705 
-0.20240375 -0.95352596 -0.2232064 
-0.39762864 -0.87948763 -0.2615209 
-0.58820635 -0.5796003 -0.56398296 
0.30198306 -0.89678854 -0.32338285 
0.119094 -0.15627679 -0.98050714 
0.4746242 -0.5484778 -0.6884068 
0.18519004 -0.7830243 -0.5937826 
0.64199626 -0.6189531 -0.45247975 
0.2669455 -0.85448706 0.44563657 
-0.11034373 -0.9150789 -0.3878853 
-0.88282037 -0.4474055 -0.14302672 
-0.8755413 -0.46729812 0.122719176 
-0.2578193 -0.5265135 -0.81013143 
-0.043914203 -0.6005668 -0.79836774 
0.10319826 -0.56325877 -0.81981075 
0.7544433 0.17333469 -0.6330644 
0.97348017 -0.1178296 0.1960937 
0.8949324 -0.35847214 -0.2656948 
0.8323541 -0.3391498 0.43836534 
0.4376351 -0.6348006 0.63679177 
-0.046751305 -0.8684168 0.49362606 
-0.6644264 -0.66065395 0.3493909 
-0.07776143 -0.996509 0.030380374 
-0.5992447 -0.76438624 -0.23794846 
-0.40064842 -0.6469969 -0.6487495 
-0.67444444 -0.60839105 -0.4183122 
-0.16341342 -0.914686 -0.3696559 
0.25784728 0.19979551 -0.94530237 
0.25558755 -0.21335603 -0.94294983 
0.90570325 -0.35985565 -0.22406629 
0.24969047 -0.7890101 0.56135345 
-0.29633495 -0.94525355 -0.13667938 
-0.09661823 -0.96388006 -0.24819395 
-0.2830613 -0.6496322 -0.705588 
-0.23832658 -0.780743 -0.57761645 
-0.5424005 -0.24615256 -0.8032502 
-0.3114173 -0.6212698 -0.7190571 
0.05072845 -0.7443023 -0.6659136 
-0.89495224 -0.4370191 -0.08986036 
-0.6174759 -0.099674866 -0.78024906 
-0.27723327 -0.2710157 -0.92178756 
-0.2906153 -0.15046784 -0.944935 
0.04515717 -0.92518395 -0.37682304 
-0.37232074 -0.5897276 -0.71665806 
0.004278896 -0.7454168 -0.666585 
0.18385555 -0.979073 -0.08725484 
-0.74748665 -0.62572765 0.22299936 
-0.04576082 -0.8185831 0.57256246 
-0.72955763 -0.13885333 -0.66967565 
-0.6358576 -0.22209634 -0.73916066 
-0.2147363 -0.5787746 -0.78670734 
0.15518036 -0.49065483 -0.85742456 
0.4504424 -0.007985625 -0.8927699 
0.83849734 0.2795001 -0.4677626 
0.9722519 -0.1626233 -0.16816668 
0.77902573 -0.14314385 -0.61043334 
0.7778655 -0.49937513 -0.38151005 
0.6246758 -0.21770954 -0.7499218 
0.5526875 -0.3464368 -0.75796974 
0.85358226 -0.46345493 -0.23792201 
0.76827455 -0.1518616 -0.62184596 
0.45524043 -0.5914329 -0.6655549 
0.46599028 -0.7477006 0.47307178 
0.18232347 -0.9416166 -0.28304842 
-0.14539766 -0.956404 0.25328082 
0.053552814 -0.9940458 -0.09489564 
-0.35194823 -0.93289226 -0.07645001 
0.13286881 -0.95514345 0.264664 
-0.44976085 -0.72223777 0.52544063 
-0.7297296 -0.6362589 -0.25033852 
0.40162188 -0.09558447 -0.91080374 
-0.29868862 -0.874664 -0.38176942 
-0.4842327 -0.084320776 -0.8708668 
0.10835553 0.056360178 -0.9925133 
0.14487058 -0.5144654 -0.84518516 
-0.6142415 0.15651453 -0.7734408 
-0.38328373 -0.15211944 -0.9110178 
-0.596569 -0.48439425 -0.63989663 
-0.6685411 -0.39203212 -0.6319523 
-0.8933362 -0.0818094 -0.44187975 
-0.8733534 -0.1395192 -0.46667784 
-0.49474856 -0.31837142 -0.80861837 
-0.5404933 -0.27716675 -0.79438376 
-0.46105948 -0.551268 -0.6953616 
0.69675606 0.017903656 -0.71708477 
0.31263697 0.31091377 -0.8975471 
0.14005418 0.3483575 -0.92683977 
0.32756367 -0.031267162 -0.9443116 
0.17468075 -0.31642565 -0.9323955 
0.26597056 -0.65040225 -0.7115031 
0.21880941 -0.7797324 -0.5866343 
0.29685736 -0.88688105 -0.35400248 
0.30883566 -0.6415874 -0.7021298 
0.18110909 -0.8919915 -0.41418678 
0.19201054 -0.85755736 -0.477208 
0.51162386 -0.52399355 -0.6809346 
0.016526788 -0.8781991 -0.47800988 
-0.4097009 -0.4087826 -0.8155011 
0.20727308 -0.9776903 -0.034054425 
-0.12754105 -0.99037975 0.053676724 
0.24525535 -0.6425608 -0.72592396 
0.40572324 -0.78167725 -0.47367653 
0.582699 -0.6379646 -0.5034512 
0.38810226 -0.7707743 0.505256 
-0.029091027 -0.608414 -0.7930865 
0.03908089 -0.9883622 -0.14701319 
-0.6296181 -0.6488036 -0.42735818 
-0.007657471 0.0054543344 -0.99995583 
0.4004266 0.38065335 -0.8335237 
0.3072909 0.10769083 -0.9455025 
0.18792312 0.085832894 -0.9784261 
0.50137717 -0.19372982 -0.8432615 
0.98962784 -0.14326414 -0.010597342 
0.4652419 -0.62192225 -0.6298911 
-0.46046367 -0.36771914 -0.8079331 
-0.6259005 -0.73978686 -0.24690911 
0.40498167 -0.6132446 -0.6781748 
-0.003877138 -0.9581638 -0.28619432 
0.51424265 -0.6205645 -0.5919917 
-0.17352474 -0.8951101 -0.41069117 
-0.8968942 -0.29397804 -0.3303902 
-0.28601938 -0.93371105 -0.2153523 
-0.6342316 -0.75316983 -0.17460112 
-0.5345351 -0.5125811 -0.67196196 
0.10351675 -0.6019993 -0.79175824 
-0.00989549 0.63258815 -0.7744251 
-0.4240515 0.46714556 -0.77585775 
-0.20531626 0.31786335 -0.9256393 
-0.17428425 0.7075539 -0.68483025 
0.3365507 0.34911653 -0.8745578 
0.005556015 0.99797255 -0.063404255 
0.24527225 0.8169493 0.5219535 
-0.030774882 0.83620685 0.5475499 
-0.85990745 0.15963998 0.4848447 
-0.95367014 -0.17821315 0.2423909 
-0.93593353 -0.016296877 0.35179964 
-0.86085033 -0.13923591 -0.48943856 
-0.42854667 -0.0076205344 -0.90348756 
-0.62138104 -0.07497079 -0.7799135 
0.1808865 0.04684736 -0.98238766 
-0.70144236 0.5325141 -0.4737165 
-0.5861275 -0.25366452 -0.7694862 
-0.45896673 -0.3097264 -0.832718 
0.5050788 -0.7503774 -0.4264144 
-0.060881592 -0.5164214 -0.8541677 
0.16114356 -0.69954467 -0.69618255 
0.039526865 -0.8611113 -0.50687766 
0.35519177 -0.32932076 -0.8748638 
0.6259669 -0.28814155 -0.7246654 
0.48937336 -0.77099246 -0.40753442 
0.059984326 -0.52081406 -0.85156006 
-0.27820072 -0.8894749 -0.36254466 
-0.11085987 -0.9058725 -0.4087849 
-0.48407942 -0.8378356 -0.25238577 
-0.8215532 -0.20545518 -0.53182584 
-0.42930004 0.06563915 -0.90077364 
0.1615466 0.9410564 -0.29717946 
0.25154635 0.5285132 -0.81080097 
0.21913649 0.3711521 -0.9023444 
0.41212872 -0.04477626 -0.9100247 
0.8749029 0.21895477 -0.43197644 
0.5937765 -0.54831064 -0.5888846 
0.38858014 -0.5928242 0.7053828 
0.15674008 -0.121107966 0.9801864 
-0.32925183 -0.06929802 0.9416959 
-0.4918617 -0.25724977 0.8318021 
-0.26416835 -0.47544894 0.8391444 
-0.2910968 -0.7806302 0.5530636 
-0.48565534 -0.8728567 0.047540374 
-0.3244105 -0.9448382 0.045150526 
0.54162145 -0.7432609 -0.3926951 
-0.1930066 -0.5909258 -0.78329766 
0.36451226 0.33823195 -0.86760014 
-0.46009117 0.33873188 -0.8207172 
0.017970901 0.052269578 -0.9984714 
0.43241566 -0.89053285 -0.14130858 
0.318034 -0.8260546 -0.46528295 
0.6774608 -0.68472165 -0.2687067 
0.4977894 -0.4883892 -0.716716 
0.4786614 -0.27166033 -0.83491564 
-0.24838418 -0.9062982 -0.34194875 
-0.35066554 -0.7424416 -0.57080144 
-0.49066645 -0.3538381 -0.7962696 
0.63288486 -0.3941099 -0.66643393 
0.046142004 -0.35119832 -0.93516344 
-0.023514269 -0.9465449 -0.32171416 
0.05409448 -0.90987974 -0.41133058 
0.15022698 -0.07711874 -0.9856392 
-0.28054804 -0.24106236 -0.92907584 
0.3317276 -0.2622233 -0.9061985 
0.2564947 -0.9381208 0.23268004 
-0.038562804 -0.99518585 0.090100594 
-0.0140937315 -0.98743135 0.15741912 
-0.18424158 -0.82991135 -0.5265949 
-0.12296196 -0.9840277 -0.12872493 
-0.47324014 -0.85337865 -0.21860659 
-0.095478855 -0.7857551 -0.61112416 
0.24237832 -0.69868636 -0.6731197 
0.38580525 -0.8817516 -0.27141953 
-0.05345686 -0.9485572 -0.3120603 
-0.68594795 -0.6948397 0.21603972 
-0.91652805 0.107904516 -0.38514006 
-0.01969811 -0.23302852 -0.9722704 
0.34425092 -0.5262035 -0.777561 
-0.059566688 -0.34227753 -0.9377089 
-0.17311014 -0.8071708 -0.56436527 
-0.6457113 -0.24601759 -0.722864 
0.43829244 -0.13150887 -0.88915986 
-0.3379667 -0.41145608 -0.8464528 
-0.18121877 0.030651942 -0.9829651 
-0.16291383 -0.22785181 -0.9599702 
0.12550317 -0.4548415 -0.88168484 
-0.4286951 0.3063887 -0.8499098 
0.34056786 -0.50502145 -0.7930743 
-0.2178509 0.11628119 -0.9690304 
0.36416647 -0.15315405 -0.9186548 
0.35374928 -0.2614366 -0.8980604 
0.10555941 -0.5463387 -0.8308859 
0.48404956 -0.6229098 -0.61455643 
0.55885816 -0.088638104 -0.8245126 
0.5996221 0.27670014 -0.75092643 
0.32702073 -0.041210216 -0.9441182 
0.10343169 0.6798984 -0.7259753 
0.10614989 0.3256989 -0.93949586 
0.5022006 0.710665 -0.49269664 
0.3702484 0.8319543 -0.41324112 
-0.14232972 0.9136285 0.38082185 
-0.6994416 -0.0046125343 0.71467495 
-0.6140327 -0.16725892 0.771355 
-0.9862304 -0.12385354 -0.109590635 
-0.9495629 0.22791214 -0.21537524 
-0.88004917 0.37557104 -0.2906198 
-0.89853066 0.10780628 -0.42546517 
-0.1107783 0.6028287 -0.7901429 
-0.4132926 -0.16266482 -0.89595175 
-0.62100625 -0.2489268 -0.74322724 
-0.5218672 -0.39540637 -0.75584954 
-0.53504294 -0.5837671 -0.6106923 
-0.89242744 -0.2756134 -0.35722622 
-0.67521936 -0.41852352 -0.6073854 
-0.026949812 -0.6375812 -0.76991165 
0.49221843 -0.41482756 -0.7652707 
0.48256 -0.49907452 -0.7197642 
0.5110247 0.116837084 -0.85158837 
0.33005622 -0.46974456 -0.8187814 
-0.0516925 -0.101247154 -0.9935175 
-0.32887435 -0.3388575 -0.8814858 
-0.14441518 -0.099069305 -0.9845454 
0.5998794 -0.25718436 -0.75762856 
0.5242397 -0.5100298 -0.68194026 
-0.24956578 -0.80519205 -0.53794324 
0.66861993 -0.4615316 -0.5830403 
0.517758 -0.45374963 -0.72528476 
0.09912918 -0.43040645 -0.8971755 
0.23793454 -0.14836659 -0.9598826 
0.36100742 -0.460306 -0.81104386 
0.05081137 -0.94257313 0.33011228 
-0.11661861 -0.9836305 0.13737294 
-0.46239918 -0.87102205 0.1658548 
-0.15511347 -0.80870837 -0.5673894 
0.08761105 -0.16913617 -0.98169106 
-0.18999192 -0.17912471 -0.96530694 
-0.22410013 -0.731156 -0.64435244 
0.1591358 -0.77089405 -0.6167643 
0.35206994 -0.9181773 -0.18165141 
0.0605779 -0.9135278 -0.4022405 
-0.592036 -0.73251665 -0.3360249 
-0.7677811 -0.24375518 -0.59253335 
-0.35900217 0.56427956 -0.74344206 
0.60389894 -0.14958149 -0.7828994 
0.011229611 -0.60521257 -0.79598475 
0.19399647 -0.852679 -0.48508143 
0.94204307 0.2575881 0.2149496 
0.81295717 -0.32308382 -0.48447666 
0.4651496 -0.6567041 -0.59361225 
0.5130083 -0.81948996 0.25545767 
-0.14774263 -0.98848504 -0.032703016 
-0.46771932 -0.70578325 0.5320796 
-0.48898274 -0.867043 0.09556389 
-0.8395651 -0.17588544 -0.5139989 
-0.26772285 -0.65835935 -0.7034824 
-0.62762386 -0.6039324 -0.49127793 
0.03868033 -0.13649438 -0.98988545 
0.034866337 -0.8039375 -0.59369093 
0.20386967 0.3257636 -0.92320925 
0.593178 -0.09016688 -0.8000062 
-0.5804832 -0.7780195 -0.24026032 
0.11803115 -0.98017097 -0.15916507 
0.36870444 -0.3816988 -0.847563 
-0.0045153853 -0.8038567 -0.59480584 
0.028755987 -0.5232975 -0.85166484 
-0.76875687 -0.45080888 -0.4536344 
-0.09384172 -0.5405516 -0.83606094 
-0.13905916 -0.09910681 -0.98531234 
-0.9587313 -0.26192966 -0.11057672 
-0.9525417 -0.17864434 -0.24647652 
-0.3166327 -0.6324765 -0.7069068 
-0.15782483 -0.1885502 -0.96929884 
-0.19569074 -0.8224949 -0.5340481 
0.15546231 -0.36282626 -0.91879743 
0.11952753 -0.85292834 -0.50815994 
-0.23936251 -0.96743953 -0.08225755 
-0.7348148 -0.58680195 -0.34016293 
-0.20961097 -0.5010335 -0.83965987 
-0.44267192 0.072568245 -0.89374244 
-0.4219914 0.234868 -0.8756486 
0.4246687 -0.52749264 -0.73580444 
0.5279293 -0.47191426 -0.7061073 
0.233136 -0.8828578 -0.4076883 
0.45334923 -0.7900681 -0.41263407 
0.89509195 -0.41724285 -0.15722276 
0.4847712 -0.8069399 -0.33740914 
0.66237384 -0.73533034 0.1433539 
0.4480422 -0.5002088 -0.7409787 
0.5367316 -0.83976877 0.081899665 
0.6350443 -0.6872832 0.35264793 
0.6507875 -0.5191103 -0.554076 
0.73459315 -0.67734176 0.039763764 
0.012787627 -0.98188555 -0.18904303 
-0.43057206 -0.87839246 -0.2074478 
-0.16412541 -0.8691576 -0.4665062 
0.12771757 -0.959224 -0.25214598 
-0.5320514 -0.84558696 -0.043635532 
-0.09145898 -0.8838762 0.45869178 
-0.04203383 -0.73898363 0.6724109 
-0.56484747 -0.54775745 -0.61717844 
0.3468144 -0.6230218 -0.70111597 
-0.5683339 -0.14790477 -0.8093953 
-0.44009545 -0.20244823 -0.87483186 
-0.21705055 0.46344832 -0.85913026 
-0.57272017 0.07486514 -0.81632525 
-0.22726277 0.38266537 -0.8954993 
-0.22178885 -0.18040204 -0.9582614 
-0.5154425 -0.55252695 -0.65500623 
-0.9873744 -0.14735663 0.058119677 
-0.8699653 -0.049757168 -0.49059615 
-0.48299593 -0.6057408 0.6322919 
-0.38082242 -0.9078933 0.17522591 
-0.5507253 -0.6418631 -0.5335855 
-0.15963833 0.65004444 -0.74293876 
0.16850083 0.13973616 -0.9757465 
0.24577852 0.56540054 -0.7873469 
0.21034946 0.44606343 -0.8699314 
-0.031075876 0.06797476 -0.99720293 
-0.28078517 0.5647261 -0.7760439 
0.39819616 0.26640788 -0.8777624 
0.064265914 -0.736502 -0.6733757 
0.041438524 -0.55770785 -0.8290024 
-0.09134823 -0.6011175 -0.79392284 
-0.36961418 -0.7832034 -0.49997783 
0.34445146 -0.79596394 -0.4977899 
0.35203204 0.006241039 -0.93596715 
-0.23756225 0.22269873 -0.94549966 
-0.3786333 -0.5715768 -0.7279676 
0.22325309 -0.8303404 -0.51058114 
-0.47300962 -0.80327016 -0.3619655 
-0.3839523 -0.7666863 -0.5145608 
-0.15195625 -0.55769956 -0.816015 
-0.2614559 -0.9502256 -0.1694467 
0.13859934 -0.7906707 -0.5963474 
0.4356973 -0.31297183 -0.8439293 
0.026159454 -0.29852727 -0.95404255 
0.20732376 -0.5179401 -0.8299127 
0.06448356 -0.14618693 -0.9871531 
-0.16918978 0.09200851 -0.98127943 
-0.2949384 -0.20518681 -0.9332255 
0.21046667 -0.043716438 -0.97662306 