# OOMMF: rectangular mesh v1.0
# Segment count: 1
# Begin: Segment
# Begin: Header
# Desc: Time (s) :  6.100000000000011e-07
# Title: m
# meshtype: rectangular
# meshunit: m
# xbase: 2e-09
# ybase: 2e-09
# zbase: 5e-10
# xstepsize: 4e-09
# ystepsize: 4e-09
# zstepsize: 1e-09
# xmin: 0
# ymin: 0
# zmin: 0
# xmax: 1.024e-06
# ymax: 1.024e-06
# zmax: 1e-09
# xnodes: 256
# ynodes: 256
# znodes: 1
# ValueRangeMinMag: 1e-08
# ValueRangeMaxMag: 1
# valueunit: 
# valuemultiplier: 1
# End: Header
# Begin: Data Text
-0.6879413 -0.55547816 0.46709824 
-0.93273896 -0.07058635 0.35357553 
-0.90717584 -0.10886105 -0.4064249 
-0.88817376 -0.24766928 -0.38704944 
-0.38836342 -0.5959075 0.7028998 
-0.6961692 -0.4194445 0.5825932 
-0.6266929 -0.6339287 0.45320022 
0.35548678 -0.8838246 -0.3041108 
0.5990563 -0.553969 -0.57814354 
-0.87321484 -0.455812 -0.1724281 
-0.56392574 -0.6761251 -0.47417584 
0.056112412 -0.88457394 -0.4630123 
0.34098879 -0.5285077 -0.7774358 
-0.41479713 -0.867382 -0.27493984 
0.67820305 -0.5199206 -0.5193488 
0.31568077 -0.6644621 -0.6773743 
-0.28091323 -0.5817172 -0.7633432 
-0.20178117 -0.8357776 -0.51064694 
0.41070825 -0.49184063 -0.76773155 
-0.6019241 -0.23711276 -0.76253855 
-0.41917363 0.22394058 -0.8798547 
-0.013698787 -0.24137188 -0.9703361 
-0.20452967 -0.5203476 -0.82909954 
0.38839427 -0.49292576 -0.77857196 
0.36751342 -0.29943612 -0.88049525 
0.6862274 0.46174693 -0.5620337 
0.85374564 0.18508951 -0.48668283 
0.13102892 -0.99137855 -0.00030155777 
0.039608993 -0.9992132 0.0020620332 
0.42361563 -0.5549189 0.71597135 
-0.12638581 0.12252399 0.98438543 
-0.5243526 -0.16839728 0.83468366 
-0.56564885 -0.6325973 0.52902 
-0.5536154 -0.6414056 -0.5311392 
-0.33599418 -0.2101452 -0.91812146 
-0.5980837 -0.01611895 -0.80127156 
0.5806179 -0.64570194 -0.4959355 
0.62159365 -0.018838013 -0.7831134 
0.42264584 -0.5728863 -0.7022619 
-0.4888621 -0.8557689 0.16933218 
-0.45027456 -0.7929369 -0.41049215 
-0.3347043 -0.50444454 -0.79593265 
-0.031390775 -0.76264495 -0.6460552 
0.45628157 -0.14352551 -0.8781843 
0.11462703 -0.6770966 -0.72691184 
-0.039425503 -0.6028584 -0.79687357 
0.24163699 -0.9043095 -0.35190344 
0.112107 -0.893376 -0.43509936 
-0.036189854 -0.9320289 -0.36057237 
0.24394377 -0.78107876 -0.5748109 
0.32567504 -0.93652475 -0.12983511 
0.8526543 -0.514391 0.09155682 
0.44841653 0.09370083 0.88889974 
0.74622595 -0.56769115 0.34766892 
0.7019609 -0.6727051 -0.23392037 
0.38296667 0.15003082 -0.91149724 
0.45092678 -0.19792594 -0.8703392 
0.46676627 -0.6236306 -0.62706804 
0.7419369 -0.438368 -0.50730973 
0.39067188 -0.80052376 -0.45446354 
0.040702954 -0.8226358 0.56711006 
0.0028477234 -0.99987835 0.015335785 
-0.33242467 -0.3931623 -0.8572731 
-0.5927946 0.046763826 -0.8039949 
0.7330424 -0.16602036 -0.6596106 
-0.08405056 -0.9875984 -0.13260786 
-0.044269037 -0.19441824 -0.9799194 
-0.06677185 -0.3774957 -0.9236009 
-0.060538903 -0.3475986 -0.9356871 
0.47900638 -0.34214658 -0.80838645 
0.1783965 -0.8794329 -0.44133046 
-0.61343443 -0.7579485 0.2218384 
0.24813844 -0.96586275 0.074408606 
0.07838014 -0.96910685 0.23385566 
-0.5748622 -0.81179833 -0.10255222 
-0.42635596 -0.7422117 -0.51705176 
0.38935167 -0.89539546 0.2160377 
-0.172623 -0.8868227 -0.42865697 
0.52390784 -0.84017587 -0.14008972 
-0.36504278 -0.8762647 0.31449026 
0.30860102 -0.7269697 0.61341715 
-0.15343522 -0.9810893 -0.11798967 
0.1727191 -0.67113274 -0.72093624 
0.3613643 -0.9304346 -0.06088755 
-0.4446203 -0.80961096 0.38320097 
-0.11552505 -0.85783553 0.50077164 
0.9031985 -0.42911896 -0.00946368 
0.91480774 -0.3932724 0.091998 
0.16645472 -0.2639296 0.9500706 
-0.3287913 -0.6009586 0.7285226 
-0.18262576 -0.8486922 -0.49635637 
0.41558453 -0.5112086 -0.75229996 
0.14526868 -0.93141115 -0.33372197 
0.51357734 0.27836466 -0.811635 
0.37615904 0.69425815 -0.6136042 
-0.71047527 -0.53248835 -0.4600882 
-0.302959 -0.27969596 -0.9110358 
0.060546685 -0.38132706 -0.9224554 
0.78431576 -0.4853032 -0.38643202 
0.54040635 -0.80272305 -0.25218377 
-0.36504528 -0.7367925 -0.56910354 
0.044511456 -0.59277725 -0.80413556 
-0.3361353 -0.78126097 -0.5259698 
0.25725418 -0.5765127 -0.77553433 
0.622693 -0.14439575 -0.7690276 
0.7059429 -0.6501613 -0.2809534 
0.5926655 -0.16684937 -0.7879778 
0.7796206 -0.38140744 -0.49670935 
0.22692758 -0.9011835 -0.36928627 
-0.34660974 -0.9367647 0.048308402 
-0.794677 -0.00030743628 -0.6070324 
-0.7079869 0.669608 -0.2244542 
0.2774507 0.79914576 -0.5332797 
0.35391134 0.20585713 -0.91234297 
0.545969 0.23630542 -0.8037896 
0.7633787 -0.544522 -0.34748954 
0.050286874 -0.9884387 -0.14303944 
-0.32313818 -0.37963647 -0.8668667 
-0.05576049 -0.89545935 -0.44163698 
-0.34565482 -0.9141048 -0.21197969 
-0.8319073 0.22406916 -0.5076645 
-0.8013014 0.038930442 -0.5969928 
-0.9767934 0.15347642 -0.14939769 
-0.12740442 -0.23376398 -0.9639101 
-0.0035248857 -0.76310134 -0.6462694 
-0.07812144 -0.9776999 0.19493599 
0.47356033 -0.87035507 -0.13499112 
-0.03518748 -0.98924834 -0.14194971 
-0.8881098 -0.09834732 -0.4489865 
-0.29849815 -0.87735754 0.37568977 
-0.15081114 -0.95301694 -0.26270697 
0.17262559 -0.9413389 -0.2899684 
0.4905619 -0.24621649 -0.83589864 
0.44400865 -0.894806 -0.046676673 
0.6904493 -0.5827615 -0.42856598 
-0.23926377 -0.92935634 0.28115782 
-0.70590985 -0.6759075 -0.21175562 
-0.36949268 -0.797566 -0.47682676 
-0.3367918 -0.54286575 -0.7693296 
-0.41226393 -0.68349206 -0.6023928 
0.4316437 -0.47002742 -0.7699078 
0.50182277 -0.33012536 -0.7994944 
0.20943633 0.008620903 -0.97778434 
-0.29070455 -0.6095969 -0.737484 
0.90325594 -0.28144464 -0.3239101 
0.22299722 -0.8773319 0.42492488 
0.04073028 -0.9545276 -0.29532713 
0.649368 -0.719015 -0.2476666 
0.16620232 -0.58859086 0.79116225 
0.10412567 -0.85870254 0.5017847 
-0.5696142 -0.6493688 0.50384504 
-0.7557887 -0.20990837 0.62025964 
-0.5510361 -0.53452694 0.6408122 
0.37211114 0.0742956 -0.92521 
-0.27593705 -0.4417496 -0.8536486 
-0.6099414 -0.30305767 -0.73220736 
-0.48821792 -0.15201747 -0.85938007 
0.07957481 -0.6691434 -0.73886067 
-0.5560776 -0.44490147 -0.70202595 
-0.4491817 -0.69218 -0.5649096 
-0.5124481 -0.71070516 -0.4819702 
-0.94833755 -0.09191244 -0.30365777 
-0.22830765 -0.5839975 -0.77898824 
0.43003416 -0.5469616 -0.71826434 
0.16526595 -0.80318314 -0.57234967 
-0.47396216 -0.8602083 0.18815355 
0.70982826 -0.66161 0.24169418 
0.5041096 -0.851415 0.14479686 
0.69897884 -0.6359512 -0.32710055 
0.43493143 -0.87306094 -0.22045258 
0.2684955 -0.8156966 0.5123956 
-0.19490412 -0.84825814 -0.49241287 
0.06489545 -0.96432877 -0.2566293 
-0.23510917 -0.71846163 -0.65462714 
-0.39984062 -0.1331874 -0.9068565 
-0.046191726 -0.45417315 -0.88971525 
-0.19532369 0.09381921 -0.9762411 
-0.3047844 -0.2362772 -0.9226482 
0.064324565 -0.79007024 -0.6096322 
0.39813355 -0.643421 -0.6538342 
0.59492606 -0.47757134 -0.6465205 
-0.40005195 -0.8744015 -0.2745548 
-0.13038874 -0.93003565 -0.3435587 
0.7015937 -0.707421 -0.08556742 
0.81469125 -0.5203131 -0.2560323 
0.33705014 -0.78832275 -0.5147276 
0.25618425 -0.7768179 -0.5752596 
-0.0977834 -0.0007646342 -0.9952075 
-0.35283133 0.13955182 -0.9252218 
-0.33343643 0.15115507 -0.9305763 
0.08861311 0.016595697 -0.9959279 
-0.72694683 -0.5520471 -0.40840226 
-0.69086903 -0.6773962 -0.2526548 
-0.23895259 0.2535973 -0.9373313 
0.23520204 -0.29464984 -0.9262082 
-0.011381367 -0.81055 0.58555883 
0.21801999 -0.87920725 -0.42362967 
0.6247739 -0.72184676 -0.297649 
0.5488223 -0.72834593 -0.4102517 
0.7711641 -0.6176746 0.1542206 
0.3030772 -0.95255274 -0.028062927 
0.9332916 -0.33793718 -0.1215127 
0.74797684 -0.65957403 -0.074113324 
0.40918723 -0.9120888 0.025686942 
-0.8599133 -0.3444481 -0.37670222 
-0.51169664 -0.37538677 -0.7728204 
-0.32892445 -0.8656497 -0.37743783 
0.1592445 -0.35292318 -0.9220013 
-0.2612184 -0.87515455 -0.40727073 
0.1954984 -0.98045087 0.022283288 
-0.08705909 -0.95984435 -0.26668265 
-0.89439976 -0.44511747 0.04381451 
0.033381604 -0.72500896 -0.68793005 
-0.27717063 -0.8917318 0.35775802 
0.07629525 -0.9924933 0.0955835 
0.1450961 -0.9889676 0.029839037 
-0.14821897 -0.9574143 -0.24776831 
0.39050743 -0.7844789 -0.48176417 
0.015294628 -0.9496791 0.31285107 
0.7140659 -0.6169435 -0.33089378 
0.12243269 -0.88095385 -0.45708913 
0.40309197 -0.5814898 -0.70667285 
-0.69481003 -0.29386643 -0.6564157 
-0.3382537 -0.5386205 -0.7716686 
-0.39234352 -0.6573377 -0.6434079 
-0.32117042 -0.42087027 -0.8483619 
0.0070220307 -0.24976562 -0.9682809 
0.06274679 -0.80093485 -0.59545463 
0.2837386 -0.16528308 -0.9445496 
0.61754364 -0.52693266 -0.5839365 
0.48353964 -0.7893264 -0.378356 
0.36468995 -0.585041 -0.7243814 
0.86192656 -0.4562258 -0.22122556 
0.6781949 -0.64379126 -0.3543793 
0.8210749 0.4162846 0.39056775 
-0.29361343 -0.8678175 -0.40085402 
-0.4589873 -0.8533376 -0.24727628 
0.12403702 -0.9768554 -0.17426546 
-0.45354903 -0.821004 -0.34676483 
-0.541765 -0.6126791 -0.57542604 
-0.11119357 0.4326812 -0.8946636 
0.32829928 -0.016469471 -0.9444302 
-0.66271096 -0.26585168 -0.7000979 
-0.82802427 -0.32195053 -0.4590466 
-0.17931162 0.17860527 -0.9674438 
0.23220928 -0.576822 -0.78317 
-0.14786384 -0.6710529 -0.72651523 
-0.2819743 -0.32529944 -0.9025911 
0.12060624 -0.85205656 -0.50936615 
-0.50167066 -0.5774448 -0.6441151 
0.40779233 -0.9129041 0.017655216 
0.63293266 -0.77079 -0.072658144 
0.2763873 -0.7940591 0.5413691 
0.2868045 -0.19655621 -0.9376081 
0.2179999 -0.97489625 0.045313377 
0.32231256 0.31849915 -0.89144427 
-0.9142551 0.037545785 -0.40339568 
-0.002468501 -0.5853361 0.81078714 
-0.8706069 -0.2535326 0.42162162 
-0.8196354 -0.4717245 -0.32507524 
-0.7109041 -0.6925799 0.122263595 
-0.8460826 -0.3517324 0.40053535 
-0.22246468 -0.9666125 0.12715979 
-0.081763014 -0.85456467 -0.51286834 
-0.03564684 -0.6908086 -0.72215843 
-0.008213508 -0.46781757 -0.8837869 
-0.3011488 -0.14734325 -0.9421249 
-0.27515593 -0.80635947 -0.5235206 
-0.008051584 -0.6738451 -0.73882884 
0.0051953117 -0.33224618 -0.9431784 
0.38550973 -0.1679009 -0.90729904 
0.029228263 -0.48901495 -0.87178564 
0.17916135 -0.5561833 -0.8115179 
-0.19343646 -0.45837292 -0.86745405 
0.17703757 -0.11185087 -0.9778278 
-0.16027176 -0.41028193 -0.8977649 
0.24628468 0.43335536 -0.8669181 
-0.2886897 0.2527507 -0.9234584 
-0.11952106 0.2736297 -0.9543802 
0.3043901 0.1387109 -0.9423938 
0.7209604 -0.38818118 -0.57404846 
0.7511463 -0.5947332 -0.2864816 
0.8260726 -0.54241365 -0.15294296 
0.38599893 -0.9222407 -0.021843305 
0.4762832 -0.85082793 -0.22191516 
-0.32584575 -0.72805643 0.60312384 
-0.38924888 -0.45834255 0.79900396 
-0.9143652 0.4047602 0.010273901 
-0.7190878 0.6046097 -0.34257844 
-0.6738462 -0.26950103 -0.6879685 
-0.5949646 0.16887757 -0.78581005 
-0.5542507 -0.14854984 -0.81898665 
-0.10257476 -0.2608758 -0.9599075 
-0.067742005 -0.22369984 -0.9723012 
0.49636576 -0.43277612 -0.7525463 
-0.26863444 -0.70136887 -0.6602403 
-0.13989982 -0.112167165 -0.98379195 
0.3909271 -0.5521492 -0.73641515 
0.08996075 0.16851638 -0.9815851 
-0.09435195 -0.07767689 -0.992504 
-0.21727432 -0.7002987 -0.67998064 
-0.17325677 0.2792808 -0.94444925 
-0.18321145 -0.44898468 -0.874555 
0.28176048 -0.6723399 -0.68452185 
0.35619497 -0.4903254 -0.7954284 
0.17365883 -0.8785624 -0.4449392 
0.1255025 -0.93326515 -0.336549 
0.81535715 -0.36745137 0.44740608 
0.7722713 -0.34349304 0.53442454 
0.11705031 -0.9635351 0.2406231 
0.8231669 -0.5525862 -0.13055523 
0.17357618 -0.7944976 -0.5819322 
0.07573603 -0.10020107 -0.99208057 
0.019339293 0.07686148 -0.9968542 
0.76672655 -0.5445325 -0.34002185 
-0.30399212 -0.645135 -0.700992 
-0.18833531 -0.9590049 0.21175352 
-0.28927487 -0.942682 0.16634502 
-0.860869 -0.15989196 -0.48305202 
-0.1611961 -0.37993753 -0.91085863 
0.37426335 -0.44116244 -0.81566095 
0.42540547 -0.6568536 -0.62255406 
0.8099875 -0.37784556 -0.4485009 
0.7135222 0.07936524 -0.696123 
0.15415807 0.3385162 -0.92824686 
0.30470833 -0.6931565 -0.6532128 
-0.18467198 -0.32415086 -0.9278052 
0.39818817 -0.5625451 -0.72456145 
0.14314498 -0.8642504 -0.4822664 
0.62649965 -0.6826914 -0.3760727 
-0.52743834 -0.71193695 -0.46363208 
-0.13350591 -0.4791806 -0.8675034 
-0.07636239 -0.83826786 -0.5398851 
0.09030723 -0.26812008 -0.9591435 
0.5034076 -0.5243473 -0.686761 
0.42818865 -0.2920705 -0.8551897 
0.11179869 -0.68862355 -0.7164487 
0.36953655 -0.37335217 -0.85091186 
0.32559133 -0.4081042 -0.8529017 
0.2784016 -0.9601123 0.026019242 
0.005325023 -0.9955061 -0.09454774 
-0.4969296 -0.8047744 -0.32465234 
0.50600886 -0.84414107 -0.17714688 
0.8244562 -0.51784647 0.2282695 
-0.65910274 -0.72830033 0.18751606 
-0.8822346 -0.4436008 -0.15773582 
-0.3009655 -0.93090606 -0.20696308 
-0.0028905289 -0.85418385 -0.519963 
0.4196184 -0.6569414 -0.6263772 
-0.27610525 0.28690827 -0.9173056 
-0.18548505 0.8929675 -0.41012725 
-0.29131073 0.15533784 -0.9439324 
-0.5222582 -0.18645634 -0.83215415 
-0.39689618 -0.4436068 -0.8035463 
0.0615153 -0.8608289 -0.5051629 
0.86989766 -0.41612843 -0.26479307 
0.9547245 -0.11296533 0.2752092 
0.030332953 -0.9986397 0.04241034 
-0.19742653 -0.6789242 -0.70716673 
0.023077974 0.019444581 -0.99954456 
-0.21698546 0.5290927 -0.82035255 
0.0016916188 0.31291977 -0.9497781 
0.3158325 -0.33390528 -0.88812 
0.33939967 -0.86707425 -0.36467832 
0.11782329 -0.6148249 -0.7798129 
0.26717916 -0.5532026 -0.7890388 
0.46518466 -0.48957008 -0.7375123 
-0.54069 0.026770439 -0.8407959 
0.39089122 -0.1487427 -0.90833896 
0.2402348 -0.2088378 -0.9479842 
0.032838043 -0.21366483 -0.97635496 
0.10243562 -0.3606929 -0.9270424 
0.10942323 -0.5525767 -0.8262479 
-0.06461658 0.4468331 -0.89228076 
-0.45928755 0.5205306 -0.7197937 
-0.33848315 0.18208578 -0.9231869 
-0.33411497 -0.36956152 -0.8670591 
0.09480513 -0.31301093 -0.94500595 
-0.18539779 -0.074494965 -0.97983587 
-0.6334166 0.6328616 -0.44527498 
-0.048170067 -0.18968238 -0.9806632 
0.57558304 -0.74060863 -0.34670314 
-0.28288126 -0.45212057 -0.84591097 
-0.7442841 -0.3120079 -0.5905018 
-0.53969914 -0.5086923 -0.67078835 
-0.22310129 -0.83824193 -0.49757048 
-0.27828935 -0.40339592 -0.87168056 
0.54925 -0.5791414 -0.6024282 
0.9167525 -0.22837532 -0.32773396 
0.77262104 -0.13273282 -0.62083715 
0.63490283 -0.7251731 0.26650032 
0.6970351 -0.6348804 0.3332703 
0.22641495 -0.7800536 -0.58331174 
0.028946716 -0.28360137 -0.95850533 
0.10948966 -0.568138 -0.81561714 
-0.3100709 -0.29787716 -0.9028429 
-0.23397353 -0.21920712 -0.9472089 
-0.34024513 -0.019405892 -0.94013655 
0.31842825 -0.41829696 -0.8506651 
0.0025216008 -0.5618045 -0.8272663 
-0.22020175 -0.924012 -0.31259102 
-0.15650325 -0.9626226 0.22105305 
0.43776536 -0.8870167 -0.146843 
0.42911687 -0.9030356 -0.019635698 
0.33375397 -0.8741656 0.35276467 
-0.0021731078 -0.9733126 0.22947295 
-0.446153 -0.6816585 0.57990456 
-0.4285439 -0.89252794 -0.14051354 
-0.15195602 -0.5964182 -0.7881592 
-0.40719038 -0.5360958 -0.7394575 
-0.051016685 -0.6192695 -0.7835194 
-0.28263146 0.5839278 -0.7610176 
0.39753813 0.33362436 -0.8547855 
0.3586112 0.30570647 -0.88201004 
0.5015522 -0.22475281 -0.835423 
-0.19550599 -0.7793597 -0.59529483 
-0.3218274 -0.5205117 -0.79088223 
-0.49904394 -0.33332664 -0.7999054 
0.0012730994 -0.89168876 -0.45264718 
0.22727296 -0.9393908 -0.2566945 
0.30989668 -0.94173086 -0.13079411 
-0.029856445 -0.9857232 -0.1657057 
0.37690538 -0.66662234 -0.64308405 
0.56271255 -0.76424545 -0.31509277 
0.6144102 -0.027951317 -0.7884915 
-0.16302094 -0.6521344 -0.7403681 
-0.79249966 -0.5518652 -0.2595943 
-0.34513187 -0.36292607 -0.8655453 
0.11230826 -0.7955013 -0.59545344 
-0.15379027 -0.6607998 -0.73463744 
0.02512735 -0.42796823 -0.90344447 
0.4828676 -0.27568352 -0.8311663 
0.23380877 -0.2502662 -0.9395214 
-0.14460751 -0.5414918 -0.828176 
-0.46122494 -0.43318447 -0.77435327 
0.27017838 -0.4796639 -0.83482105 
0.4885797 -0.41253132 -0.76883537 
0.4883157 -0.7278148 -0.4814909 
0.2593212 -0.95800567 -0.12238289 
-0.120807655 -0.8898785 -0.43991116 
0.40434223 -0.910911 0.08214982 
-0.21382567 -0.9704556 -0.1117791 
-0.47539636 -0.46989253 -0.7437737 
-0.6723247 -0.4974922 -0.5481615 
0.030088192 0.3203684 -0.94681513 
0.074619696 -0.41688105 -0.90589297 
0.29369003 -0.44189352 -0.84762985 
0.10519203 -0.69207287 -0.7141217 
-0.7775233 -0.009809076 -0.62877774 
-0.0425143 0.0032320023 -0.9990907 
0.725633 -0.44736588 -0.5228006 
0.19356002 -0.7455749 -0.6376932 
0.62668526 -0.47097307 -0.62084615 
-0.085473664 -0.71261156 -0.6963326 
-0.048280194 -0.41434136 -0.9088401 
0.7975051 -0.5972345 -0.08542019 
0.107477374 -0.25050977 -0.9621297 
0.25850922 -0.3847044 -0.88610125 
-0.26140472 -0.5962993 -0.7590092 
0.08125034 -0.9811833 -0.17515072 
-0.77761275 -0.6016975 -0.18242465 
-0.456537 -0.29465657 -0.83949476 
-0.2636474 -0.37797642 -0.88748175 
0.010183202 -0.77332 -0.6339342 
0.24941914 -0.76885253 -0.58877504 
0.14192975 -0.6717855 -0.72702146 
-0.072263025 -0.5873199 -0.8061225 
-0.04624967 -0.7623245 -0.6455403 
0.14034863 -0.50800085 -0.84984547 
-0.83291 -0.5315605 -0.15396236 
-0.27002242 -0.94340247 -0.19256127 
0.25367302 -0.95289236 -0.16627146 
-0.17012633 -0.87741166 -0.44855976 
0.2890146 -0.94412154 0.15844588 
0.7309833 -0.67393684 -0.10710979 
0.62919873 -0.26813996 -0.7295273 
0.27354848 -0.35551775 -0.89374405 
0.6158337 -0.103150204 -0.7810948 
-0.17439479 -0.61066335 -0.7724485 
-0.2731584 -0.36313885 -0.8907944 
-0.3174885 0.25575712 -0.9131207 
0.13637152 -0.13384993 -0.98157376 
-0.19081008 -0.015841184 -0.9814992 
0.71812296 -0.16520129 -0.6760237 
0.3544406 -0.57731813 -0.7355785 
0.4358278 -0.034366313 -0.8993737 
0.70557207 0.04318005 -0.70732147 
0.6945475 -0.34944156 -0.62888354 
0.59764904 -0.6880703 -0.41155177 
0.42446944 -0.74076355 0.52066797 
0.41679975 -0.06816078 0.90643924 
-0.35547683 -0.79633 -0.48938206 
0.41195235 -0.89166725 -0.18768266 
-0.17669176 -0.7168147 -0.6745049 
-0.01077109 -0.87571186 -0.48271388 
-0.008792025 -0.36528742 -0.93085325 
-0.46773332 -0.16832967 -0.86769277 
-0.51039815 -0.7568962 -0.4081689 
-0.7168311 -0.5195496 -0.46499613 
-0.24189675 0.022886228 -0.97003216 
-0.29044798 0.432066 -0.853791 
-0.055559516 -0.40422124 -0.9129723 
-0.4521753 -0.319189 -0.8328601 
-0.11049346 -0.48192698 -0.86921674 
0.07296803 -0.50318974 -0.8610898 
-0.35365847 -0.59561527 -0.72122693 
0.3760234 -0.55167335 -0.7444884 
0.12031854 -0.97805685 -0.17008314 
0.21236956 -0.97695744 -0.021292364 
-0.14109462 -0.6934438 -0.70656073 
-0.04203152 -0.42088035 -0.90614194 
-0.08048077 0.29055917 -0.9534665 
-0.8774076 0.34574547 -0.3325901 
-0.84646976 -0.48977897 0.20881961 
-0.99314696 0.1168653 0.0013416901 
-0.99881977 0.0064003402 -0.0481477 
-0.45472378 -0.77519494 -0.4385191 
-0.30671203 -0.8770059 -0.36984912 
-0.7506977 -0.6598289 -0.03284744 
-0.8143991 -0.2988003 -0.4974661 
-0.08683222 -0.37594604 -0.9225642 
-0.35300696 -0.19651268 -0.9147508 
-0.60939634 0.36001313 -0.7064182 
-0.3997945 0.04548264 -0.9154757 
-0.41680256 -0.29274082 -0.86056876 
0.36669686 -0.7569062 -0.54094964 
0.478325 -0.84473324 -0.24006425 
-0.36133456 0.15280251 -0.91983086 
0.0896441 -0.7020658 -0.7064472 
-0.021613404 -0.35904732 -0.93306905 
0.4827283 -0.020897718 -0.8755209 
0.24907063 0.11208811 -0.9619772 
0.30781442 -0.516857 -0.79881746 
0.49198973 -0.4196436 -0.7627879 
0.046549585 -0.5539132 -0.8312722 
0.25240535 -0.34921658 -0.9024075 
0.5885835 0.26534998 -0.76364845 
0.35996515 -0.7240081 -0.58841944 
0.39044607 -0.7946961 0.46476886 
0.47821492 -0.8765425 -0.054624576 
0.15104699 -0.9884736 0.010244906 
-0.054037515 -0.9957691 0.07432343 
-0.11111566 -0.9890049 0.097583905 
-0.79359114 -0.30791304 -0.5247883 
-0.79600936 -0.12662598 0.59189093 
-0.90579516 -0.30085918 -0.2983604 
-0.52130705 0.3729715 -0.76754886 
-0.34836975 0.24049515 -0.90598047 
-0.49573606 -0.22764327 -0.8381076 
-0.60391974 0.45006743 -0.6578148 
-0.09776223 0.34551555 -0.9333069 
0.5107813 -0.14220306 -0.84786844 
-0.24824901 0.26238513 -0.93248403 
-0.38561153 -0.35904422 -0.8499359 
-0.27246082 0.51354605 -0.8136557 
-0.0675917 -0.14835492 -0.9866217 
-0.34754017 -0.68417543 -0.6411863 
0.28587663 0.46181098 -0.839646 
-0.20426022 -0.7683632 -0.6065441 
-0.67829955 -0.60565776 -0.41603905 
0.56012243 -0.6315933 -0.536053 
0.45383927 -0.8898248 0.047347177 
-0.060126234 -0.716664 -0.69482195 
0.5482602 -0.8232506 -0.14720514 
0.30170944 -0.9389234 -0.16551253 
0.6870122 -0.7262617 0.023626553 
0.5265793 -0.84683573 0.074724175 
-0.2613475 -0.95977837 0.10258213 
-0.2988506 -0.94995874 -0.09092237 
-0.42646247 -0.49252653 -0.75864846 
0.6751329 -0.036405902 -0.7367974 
0.32717773 -0.6582723 -0.67796195 
0.064312615 -0.8689404 -0.49072057 
0.7230205 -0.45737988 -0.5177308 
-0.10530226 -0.33894473 -0.9348947 
-0.09114937 0.10155171 -0.9906458 
-0.37063342 -0.58212996 -0.7237097 
-0.15833442 -0.80077934 -0.57765275 
-0.4551519 -0.49591503 -0.7395304 
0.30747035 -0.34098217 -0.8883655 
0.33581176 -0.65810925 -0.67388624 
0.02913739 -0.5373757 -0.84283954 
-0.32730922 -0.49346256 -0.80583096 
-0.043540545 -0.92194396 -0.38486838 
-0.036618445 -0.48628128 -0.87303483 
0.05171875 -0.40472105 -0.91297656 
-0.27068004 -0.81115085 -0.5184272 
0.0794827 -0.8648303 -0.4957328 
0.40442806 -0.84146667 -0.35829046 
-0.2787045 -0.9207032 -0.27318376 
-0.12658955 -0.9081734 -0.39899412 
0.041048884 -0.19357963 -0.9802255 
0.4319633 -0.2877742 -0.8547478 
0.6738746 -0.4450582 -0.5897596 
0.84767544 -0.5197689 -0.106238775 
0.90828353 -0.41753715 0.026148826 
0.40292424 -0.73493594 -0.5454551 
-0.32977173 -0.31953782 -0.8883391 
0.46272066 -0.26277265 -0.84666413 
0.15650292 -0.87866825 -0.45105338 
-0.16537851 -0.28378195 -0.94451994 
-0.24548206 -0.46401092 -0.8511359 
-0.3928278 -0.5920845 -0.7036492 
-0.71990645 -0.026821598 -0.69355273 
0.29710767 0.23646899 -0.92509973 
0.4943027 -0.15422425 -0.85549974 
0.19698031 0.5790672 -0.7911257 
0.39069065 0.50299615 -0.77094483 
0.31161037 -0.14752127 -0.93868876 
-0.27974662 0.5098962 -0.8134788 
0.3653706 -0.25285035 -0.8958633 
0.7409291 -0.39361566 -0.5441423 
0.86394787 -0.30741468 -0.39886138 
0.5073531 -0.8186116 -0.26919863 
0.60408694 -0.14314538 -0.7839569 
0.028189247 -0.38925534 -0.9206984 
0.52290654 -0.21299465 -0.82534975 
0.7580973 0.14432806 -0.63597006 
0.62502587 -0.06591569 -0.7778162 
0.33899972 -0.7350209 -0.58721685 
0.6869648 -0.38520944 -0.61619246 
0.5995027 -0.27766415 -0.7506658 
0.3727133 0.2536541 -0.89260536 
0.05809055 0.3564642 -0.93250144 
-0.1547017 0.31341556 -0.9369301 
-0.28999484 0.09586702 -0.9522146 
-0.3354959 -0.3997261 -0.85303086 
-0.31647724 -0.1196243 -0.94102716 
-0.025463475 -0.76251596 -0.64646816 
-0.3700042 -0.058119494 -0.9272104 
-0.6273038 -0.06380591 -0.7761564 
-0.4250882 0.058186848 -0.9032797 
-0.7428163 0.012581897 -0.669377 
-0.35552034 -0.12884498 -0.9257453 
-0.35581097 -0.3814251 -0.85317844 
-0.73490286 0.13546237 -0.66450566 
-0.0008758272 -0.15693755 -0.9876082 
-0.09921054 -0.47221336 -0.87588346 
-0.58416474 0.29100046 -0.75767434 
-0.78501344 -0.35622078 -0.50681436 
-0.6690083 0.2752367 -0.69041485 
-0.3952751 0.13500996 -0.90858674 
-0.17824912 0.2907324 -0.94005424 
-0.3242473 -0.43441096 -0.8403278 
0.6337292 -0.41588518 -0.6522475 
0.4463063 -0.7372799 -0.5071777 
0.96652585 -0.101393305 -0.23568477 
0.8744544 0.31372252 -0.3700106 
0.6332062 -0.5544835 -0.53999823 
-0.2268358 -0.5895998 -0.77518886 
-0.41688508 -0.5986266 -0.6839978 
-0.3863329 -0.588244 -0.71043366 
-0.87262833 0.18295364 -0.4528222 
-0.055401832 0.1447718 -0.9879129 
0.5474453 -0.100690044 -0.8307618 
0.71399486 -0.4475629 -0.53842264 
0.6902334 -0.5452825 -0.47565222 
0.39948368 -0.80516064 -0.43832555 
0.6120165 -0.7179188 -0.33170548 
0.5498362 -0.7510478 -0.3655233 
0.50148726 -0.85080653 -0.15696825 
0.71387273 -0.6413681 -0.2811277 
0.43258062 -0.8521063 -0.29459983 
-0.12884438 -0.50262994 -0.8548464 
-0.49864638 -0.38326722 -0.7774689 
-0.49286512 -0.5862828 -0.6429281 
-0.32199162 0.25236946 -0.9124862 
-0.29630974 0.42212 -0.85674703 
-0.03924246 0.017745381 -0.99907213 
0.24818829 -0.05624768 -0.9670775 
0.5928805 -0.17029698 -0.787078 
0.35336292 -0.63324046 -0.68857914 
-0.016433844 -0.60825884 -0.7935686 
-0.010601721 -0.59699893 -0.802172 
-0.7766532 -0.62944365 -0.024710845 
-0.24941565 -0.6829498 -0.68656504 
0.41103753 -0.9018091 0.13337395 
0.66437936 -0.7339879 0.14093207 
-0.12537271 -0.7884309 -0.60221136 
0.07270506 -0.43043834 -0.8996871 
-0.6734212 -0.044553246 -0.73791534 
0.17420526 -0.43837282 -0.8817493 
-0.4914931 -0.77199006 -0.40307072 
-0.5489082 0.043384068 -0.8347561 
-0.9487812 -0.17826281 -0.26083845 
0.043695655 -0.23128496 -0.97190434 
0.7132993 -0.48001105 -0.5106796 
0.7070046 -0.24336413 -0.6640169 
-0.33584327 -0.3972533 -0.8540487 
-0.054638244 -0.44988942 -0.89141136 
-0.0192032 -0.6412166 -0.7671197 
0.42229798 -0.83971125 -0.3413935 
0.51567554 -0.68178254 -0.51889443 
0.05034765 -0.59614223 -0.8012988 
0.78090334 -0.4526921 -0.43041825 
0.6522974 -0.751253 -0.10063383 
-0.09688663 -0.90913916 -0.40506673 
-0.14981021 -0.8874116 -0.43595603 
-0.752861 -0.4160807 -0.5099777 
-0.9999316 0.011604491 -0.0014931528 
-0.08424954 -0.10397126 -0.9910056 
-0.2194335 -0.018264137 -0.97545654 
0.22023681 -0.25271925 -0.9421405 
-0.18526687 -0.28528538 -0.94036615 
0.019569585 0.083297856 -0.9963325 
-0.12185935 -0.88385236 -0.45161402 
0.24859169 -0.6738307 -0.69581205 
0.25727618 -0.8170835 -0.51593 
0.20791475 -0.42119437 -0.88281757 
0.66158015 -0.446517 -0.6024403 
-0.032395527 0.052342605 -0.9981037 
0.5313597 -0.36235368 -0.7657394 
0.013768615 -0.039589837 -0.9991212 
-0.016087314 -0.28013104 -0.95982695 
-0.40755388 -0.79446167 -0.45025617 
-0.0008766464 -0.46111915 -0.88733774 
-0.35705152 -0.53544164 -0.7653865 
-0.6410492 -0.45469552 -0.61831063 
-0.37385872 -0.5849509 -0.71976537 
-0.2966585 -0.46786225 -0.83252555 
0.09571256 -0.8208339 -0.56309044 
0.12098914 -0.8119885 -0.5709961 
-0.3120928 -0.74467105 -0.58996886 
-0.22105356 -0.6767184 -0.7022732 
-0.15269004 -0.942458 -0.29742008 
-0.31207618 -0.7977158 -0.516002 
0.012692528 -0.9338008 -0.35756832 
0.58977157 -0.6949594 -0.41134045 
0.7088839 -0.6591594 -0.25098342 
-0.054811195 -0.9518984 -0.30147195 
-0.12850939 -0.97117764 -0.20074716 
-0.22301713 -0.6921801 -0.6864038 
0.25678834 -0.6429428 -0.7215846 
0.20214678 -0.6103219 -0.7659268 
-0.32511705 -0.15229963 -0.93332934 
-0.28434926 -0.4708745 -0.8351184 
-0.60694045 -0.6068448 -0.5131888 
-0.8709361 0.10226051 -0.4806382 
-0.31312907 0.3319437 -0.889811 
0.17702514 0.48973078 -0.85371304 
0.49192116 -0.14397362 -0.8586532 
0.56059754 -0.424584 -0.71095634 
0.42566088 -0.15264937 -0.8919143 
0.58123004 -0.47207835 -0.6628075 
0.7375404 -0.36522475 -0.5680186 
0.8312895 -0.4720924 -0.2934052 
0.5145166 -0.67946994 0.52306145 
0.50543964 -0.8593852 -0.07738256 
0.26344472 -0.9645232 0.01708973 
-0.71219414 -0.54507774 -0.4423457 
0.17268308 -0.3970053 -0.9014252 
0.1345651 -0.9719275 -0.19300023 
-0.70214254 -0.29528266 -0.64792293 
0.006465923 -0.745724 -0.66622365 
-0.058595207 -0.1359804 -0.9889773 
0.18420953 0.16233338 -0.9693889 
0.44981885 0.14393568 -0.8814452 
-0.4202403 -0.33444732 -0.8435301 
-0.3949775 -0.5304474 -0.750079 
-0.2639275 -0.38722804 -0.8834008 
-0.22093382 -0.57476443 -0.7879303 
0.24378113 -0.6725411 -0.69875556 
0.6369026 -0.17387363 -0.7510812 
0.016799217 -0.53423846 -0.845167 
0.18610194 -0.5341881 -0.82462674 
0.12540665 -0.4563733 -0.8809067 
-0.11549491 0.2908771 -0.94976395 
-0.5925366 0.12402425 -0.79593873 
-0.89679766 0.15317194 -0.4150812 
-0.93894726 -0.29188466 -0.18215798 
-0.8659446 -0.32144344 -0.38316333 
-0.84434944 -0.073314376 -0.5307533 
-0.098272786 -0.9001346 -0.42438197 
-0.39489645 -0.42910358 -0.81235886 
-0.4152092 -0.5623861 -0.71506876 
-0.55335057 -0.20353734 -0.8076977 
-0.009119308 0.2964567 -0.9550027 
0.22459975 -0.2521995 -0.9412494 
-0.55746186 0.10756913 -0.8232042 
-0.33330005 -0.1784978 -0.9257698 
0.49783558 -0.43570098 -0.749883 
0.27221286 -0.58041453 -0.76747596 
0.07586152 -0.47121263 -0.87875134 
0.33278313 0.12091025 -0.9352198 
0.119807586 0.092072815 -0.98851854 
0.2375914 -0.1613694 -0.95786756 
0.27120894 0.17691272 -0.9461224 
0.49507636 -0.08751544 -0.86443084 
0.08716405 0.4041691 -0.9105217 
0.09271226 -0.2507835 -0.9635933 
-0.10515613 0.14344436 -0.9840559 
0.492384 -0.21389833 -0.8436857 
0.55000454 -0.50855446 -0.66247076 
0.6737475 -0.45619267 -0.58133703 
0.37225917 -0.511036 0.77476805 
-0.010887142 -0.78117937 0.62421167 
-0.092019215 -0.9131984 0.39698994 
-0.50621676 -0.65078866 -0.5658788 
-0.6292988 -0.7735531 0.07482433 
-0.86733407 -0.46187124 0.18549061 
-0.95979327 0.017860252 0.28013906 
-0.7822413 -0.6188922 0.07121119 
-0.79446644 0.09949558 -0.5991024 
-0.67764986 0.2613361 -0.68738216 
-0.55891246 -0.1546844 -0.81467146 
-0.3740572 0.11365647 -0.9204148 
-0.7049078 -0.036195222 -0.70837486 
-0.48040628 -0.0062435726 -0.87702394 
-0.0069710603 0.45031267 -0.8928438 
-0.36697915 0.17247406 -0.91410017 
-0.68793535 0.26260328 -0.67659783 
-0.5986105 0.056857664 -0.79901993 
-0.30790508 0.029755633 -0.95095176 
-0.29174432 -0.9300396 -0.22340924 
0.40809894 -0.5821938 -0.70321107 
0.8675026 -0.31056398 -0.38857347 
0.3347072 -0.9273657 0.16722439 
-0.20783971 -0.95173126 0.22585481 
-0.0030781075 -0.9763961 -0.21596585 
0.7375628 -0.6611684 0.13732256 
0.1821291 -0.94699544 0.2646292 
0.30334076 -0.93051255 -0.20525825 
0.29810593 -0.9349234 -0.19248696 
-0.6905114 -0.53818196 -0.4832746 
-0.4957172 -0.543456 -0.67743635 
-0.5376093 -0.39158726 -0.7467501 
0.31084436 -0.9499141 -0.032234654 
-0.23507975 -0.95016915 -0.2047345 
-0.3619274 -0.8133885 -0.4554203 
0.13761394 -0.41098365 -0.90119636 
-0.4601645 -0.28239888 -0.8417241 
0.021443922 -0.25144213 -0.9676348 
-0.081008956 -0.42840856 -0.89994645 
0.41401476 -0.5814891 -0.7003301 
0.18865158 -0.2195897 -0.9571787 
0.17626888 -0.4798454 -0.8594637 
-0.050153725 -0.38223228 -0.92270434 
0.008812059 -0.7685658 -0.6397101 
0.097481005 -0.79950166 -0.5927012 