# OOMMF: rectangular mesh v1.0
# Segment count: 1
# Begin: Segment
# Begin: Header
# Desc: Time (s) :  6.310000000000012e-07
# Title: m
# meshtype: rectangular
# meshunit: m
# xbase: 2e-09
# ybase: 2e-09
# zbase: 5e-10
# xstepsize: 4e-09
# ystepsize: 4e-09
# zstepsize: 1e-09
# xmin: 0
# ymin: 0
# zmin: 0
# xmax: 1.024e-06
# ymax: 1.024e-06
# zmax: 1e-09
# xnodes: 256
# ynodes: 256
# znodes: 1
# ValueRangeMinMag: 1e-08
# ValueRangeMaxMag: 1
# valueunit: 
# valuemultiplier: 1
# End: Header
# Begin: Data Text
-0.043050043 0.17682807 -0.98329985 
-0.096571766 0.22534968 -0.96948004 
-0.3445316 -0.11496628 -0.9317085 
-0.1398205 -0.2732896 -0.9517158 
-0.267225 0.0062382473 -0.96361405 
0.030622924 -0.33310404 -0.9423927 
-0.2857694 -0.17588319 -0.94201964 
-0.49371958 -0.34815553 -0.796887 
-0.449058 -0.6146154 -0.6485329 
-0.28252742 -0.8555721 -0.43379095 
-0.25097865 -0.59912616 -0.7603011 
-0.61073 -0.6786152 -0.4080322 
-0.83487153 -0.11685792 -0.53789765 
-0.66554254 -0.22728963 -0.7109097 
-0.35843673 -0.67711234 -0.6426835 
-0.47972897 -0.45954362 -0.74744886 
-0.4929934 -0.8515856 -0.17821169 
-0.31643915 -0.59200376 -0.74121374 
-0.40384716 -0.30393153 -0.8628633 
-0.5731769 -0.12939733 -0.8091505 
-0.5854204 -0.40004423 -0.7051579 
-0.16685615 0.054420885 -0.9844783 
0.07106768 -0.06734514 -0.99519557 
-0.067927964 -0.47339687 -0.8782263 
-0.46896294 0.14972407 -0.87043464 
-0.20940667 -0.35440728 -0.9113421 
0.39115676 0.0350419 -0.9196567 
-0.082909256 -0.904174 -0.41904113 
-0.49469328 -0.7270558 -0.4760972 
0.0956957 0.0032443884 -0.9954054 
0.84835577 -0.04768914 -0.5272744 
0.24588847 -0.13025801 -0.960506 
0.75405735 -0.11682142 -0.6463361 
0.79671574 -0.60127586 -0.060921397 
0.4608701 -0.8685906 0.18206926 
0.23170169 -0.9428664 0.23941045 
0.8181026 -0.49016467 -0.30074388 
0.18609947 -0.9374722 -0.29413068 
-0.3067809 -0.8741506 -0.37649202 
-0.47684073 -0.28438932 -0.8317125 
-0.4684215 -0.8461597 -0.25415608 
0.17966539 -0.83255655 -0.52399427 
0.06812072 -0.9944553 -0.080113545 
0.26130402 -0.85680187 0.44453445 
0.6125464 -0.44368345 0.654165 
0.29856318 -0.36148813 -0.8832817 
0.020638924 -0.74987835 -0.6612538 
-0.38210693 -0.76071453 -0.5246979 
-0.47968066 -0.5780903 -0.6600895 
-0.65595096 -0.525974 -0.5413684 
-0.9585986 -0.16058397 -0.23516257 
-0.7725155 -0.51376194 -0.37318715 
-0.9173711 0.012745213 -0.39782903 
-0.8701696 -0.1559418 -0.467426 
-0.79066867 -0.17720911 -0.58603764 
-0.35462105 -0.6005771 -0.71662486 
-0.13137475 -0.26411235 -0.9555027 
0.19348693 -0.29281455 -0.9363881 
0.4594582 -0.5912255 -0.66283524 
0.6102826 0.26491547 -0.74657553 
0.98917115 0.14328495 -0.031780176 
0.47003117 -0.7052802 -0.5307076 
0.65394026 -0.72700495 -0.20934676 
0.40671256 -0.9091262 -0.08985887 
0.112720005 -0.5291568 0.8410038 
0.40878323 -0.51465875 0.75367284 
0.37950385 -0.6095038 0.6960474 
-0.9874128 0.09335299 -0.1276768 
-0.6257794 0.20266931 -0.75321 
-0.49186423 0.2751495 -0.82605237 
-0.3974838 0.3680809 -0.8405493 
-0.78404975 0.27065673 -0.55857944 
-0.207986 -0.33421582 -0.9192615 
-0.2062903 -0.9025579 -0.3779333 
-0.1768356 -0.6672722 0.72351706 
-0.88427806 -0.22115791 0.4112681 
-0.31455997 -0.61809695 -0.72042227 
-0.18491715 -0.7263859 -0.66194355 
0.32633734 -0.1298052 -0.93629843 
0.034014616 -0.27386352 -0.9611669 
0.6516273 -0.4545539 -0.60725826 
0.3649605 -0.31358808 -0.87662214 
0.21023926 -0.95144385 0.2248425 
-0.5447255 -0.7775803 0.31407467 
-0.52208865 -0.62537265 -0.5799419 
-0.8745791 0.083531365 0.47763363 
-0.6647642 0.070024155 -0.7437642 
-0.8532859 -0.19189085 -0.48485166 
-0.21764742 -0.32471183 -0.9204303 
0.40191737 0.0024017822 -0.9156728 
0.91871184 -0.3943041 0.022204282 
0.9932061 0.10302451 0.05410803 
0.58735305 -0.8069779 -0.061668146 
0.22972956 -0.3243174 -0.9176289 
0.20013586 0.19539078 -0.9600876 
-0.05868234 -0.079899564 -0.99507415 
-0.5892951 -0.075408384 -0.80439097 
-0.14053816 -0.55587876 -0.81929713 
0.04840393 -0.6729208 -0.73812914 
0.56745034 -0.54756457 -0.614958 
0.5460759 -0.3702386 -0.75148165 
0.019143412 -0.93924236 -0.34272042 
-0.51630574 -0.4958265 -0.6982725 
-0.48370138 -0.5195908 -0.7043142 
-0.62811977 -0.7510114 -0.20358667 
-0.74336374 -0.64377254 -0.18156897 
-0.9083858 -0.13195102 -0.3967674 
-0.98597115 0.16691458 -0.0006606852 
-0.5589152 -0.82922494 -6.938167e-05 
-0.5123788 -0.85043633 -0.11927295 
-0.43173692 -0.84741986 0.30900306 
-0.24136163 -0.80431575 -0.542974 
0.062369823 -0.5992566 -0.7981238 
0.63851404 -0.71789294 -0.27736178 
0.9675945 -0.095849745 -0.23361047 
0.48998168 -0.6645388 -0.5641864 
-0.5452219 -0.60841584 -0.5766829 
-0.65169936 -0.113062285 -0.7500033 
-0.7533344 0.18231376 -0.6318615 
-0.5979727 -0.51677436 -0.612677 
0.68826413 -0.34764773 -0.6367367 
0.74478126 -0.5805344 0.32906035 
0.7828732 -0.18061288 -0.5953893 
0.64750636 0.70367587 -0.29253346 
0.8169846 0.2508112 0.51925904 
0.2516265 0.22271635 0.94185007 
0.055612113 0.3694112 0.9276005 
-0.7684934 0.26923954 0.58045506 
-0.6713012 0.7407506 0.025362026 
-0.8193114 -0.4878502 -0.30121598 
0.23094365 -0.59086007 -0.77301323 
0.512102 -0.5954922 -0.6189836 
-0.16831331 -0.60022753 -0.7819192 
0.24929607 -0.81031305 -0.5303248 
-0.8920351 0.14268644 -0.42885202 
-0.74250764 -0.33284605 -0.58128816 
-0.55436873 -0.050562907 -0.8307339 
-0.39574268 -0.48276076 -0.7812361 
-0.026671987 -0.8128025 -0.5819286 
0.18794519 -0.8232854 -0.5356097 
0.18107532 -0.9794349 -0.08898896 
0.47946072 -0.06444649 -0.8751938 
0.6286323 -0.1679944 -0.7593414 
0.86176777 -0.00230558 -0.50729775 
0.54258704 -0.79177105 0.28053167 
-0.8686989 -0.30555925 -0.38986665 
-0.5954269 -0.41724885 -0.68656415 
-0.7103402 0.20536928 -0.6732313 
-0.41227406 -0.20545025 -0.8875924 
-0.82486093 -0.21024074 -0.52478886 
-0.78868175 -0.42066875 -0.44835138 
-0.49724945 -0.46832973 -0.7303495 
0.13311265 0.3291988 -0.93483114 
0.14076462 0.6044423 -0.7841142 
0.22614925 0.5322121 -0.8158474 
-0.41120148 -0.1476414 -0.8995085 
0.10048774 -0.76379335 -0.6375907 
0.10957332 0.23375522 -0.96610165 
-0.25550714 0.1512653 -0.95490056 
-0.28167534 -0.08222793 -0.95597994 
-0.5441499 0.17803344 -0.81988114 
-0.48748687 -0.76277405 -0.4248912 
-0.87403375 -0.101085514 -0.47523332 
-0.57072335 0.1375106 -0.8095466 
-0.4300793 -0.50959575 -0.7452141 
0.22484608 -0.9055999 -0.35962906 
0.40826872 -0.5423214 -0.73430526 
0.20826341 -0.77815586 -0.5925368 
0.84555066 -0.31141493 -0.43366435 
0.38439518 -0.13356294 0.9134557 
-0.24382775 -0.958673 -0.1466089 
-0.9291018 0.21998481 -0.2972819 
-0.5261252 -0.60068774 -0.6019689 
0.073063366 -0.25875247 -0.96317655 
0.006903791 -0.13098888 -0.9913598 
0.48208714 -0.26174977 -0.83610946 
0.05184575 -0.80356425 -0.5929558 
-0.09087835 -0.9569579 -0.2756318 
0.22467105 -0.9210941 0.31797573 
-0.16085371 -0.94572824 -0.2823549 
0.2195276 -0.9024809 -0.37058854 
0.044474285 -0.4278286 -0.90276504 
0.16715522 -0.51268244 -0.8421495 
0.26101127 -0.8822122 -0.39188606 
0.29564112 -0.8161895 -0.49641806 
-0.009916505 -0.9445005 0.3283604 
-0.21804857 -0.9321564 0.28903186 
-0.3985559 -0.91712797 0.0054303026 
0.4505259 -0.52645797 -0.7210191 
0.4617457 -0.4935659 -0.73701 
0.7637831 -0.6331421 -0.12556477 
0.8015358 -0.5316437 -0.27367026 
0.39186874 -0.58141905 -0.7130154 
0.21190964 -0.09411681 -0.9727468 
-0.6368341 -0.42759508 -0.64156437 
-0.018342962 -0.4174506 -0.90851444 
-0.22911806 -0.72735184 -0.64688814 
0.169238 -0.98314965 -0.06910315 
-0.09181677 -0.9895675 0.11102206 
-0.36871496 -0.903259 0.21948221 
-0.13767977 -0.95647085 -0.2573089 
-0.5594517 -0.8286623 -0.018244369 
-0.15013291 -0.84085155 -0.5200277 
0.4700763 -0.53134644 -0.704769 
0.63377655 -0.6962228 -0.3370477 
-0.7510483 -0.47971353 -0.4536534 
-0.20112656 -0.15928532 -0.966528 
-0.16422664 -0.15441883 -0.97426105 
0.10423357 -0.2167265 -0.97065187 
0.24364652 -0.17765279 -0.9534548 
0.19540909 0.280662 -0.93970424 
0.26942736 0.15264556 -0.9508461 
0.653805 -0.38340536 -0.65233374 
0.4756549 0.47815242 -0.7383242 
0.019052168 -0.3871662 -0.9218131 
-0.7817609 -0.2155753 -0.5851302 
-0.36895698 -0.47931 -0.7963246 
-0.26174012 -0.6514982 -0.712069 
-0.060825713 -0.922476 -0.38123247 
0.5180885 -0.8236369 -0.23066589 
0.61734444 -0.4582866 -0.6394211 
0.6740791 -0.67845917 -0.29207978 
0.6543644 -0.25310317 -0.71256304 
0.3935548 -0.16688603 -0.90402645 
0.04595949 -0.2619972 -0.9639737 
-0.03916086 0.1509389 -0.98776716 
-0.03505798 -0.15631677 -0.9870847 
0.017222837 -0.5089494 -0.86062425 
-0.053333517 0.4558103 -0.8884777 
-0.09207067 0.48810178 -0.8679169 
0.7478323 -0.15178484 -0.6463036 
0.42417935 0.03366173 -0.90495247 
0.9428431 -0.14122632 -0.30183122 
-0.13113862 -0.04403148 -0.9903858 
0.013953132 -0.8086646 -0.5881046 
-0.66503966 -0.4634659 -0.58559513 
-0.48456588 -0.44616738 -0.7524165 
-0.2346758 -0.6228375 -0.74632484 
-0.34538603 -0.46172893 -0.8170159 
0.16185501 -0.22576194 -0.9606428 
-0.030645207 -0.55450594 -0.8316154 
-0.004166703 -0.5504066 -0.8348863 
-0.13652173 -0.86970645 -0.47431272 
0.6046352 -0.7965014 0.001335771 
0.6558763 -0.535108 0.5324339 
0.2512396 -0.94113904 -0.22613308 
0.47069848 -0.6256842 -0.622063 
0.26305372 -0.96057093 -0.09003457 
-0.27159947 -0.91940874 -0.28446698 
0.077983856 -0.8635547 -0.4981885 
0.363841 -0.5169185 -0.77486455 
0.70730084 -0.20565994 -0.6763354 
0.30400765 -0.81854796 -0.4873998 
-0.3873119 -0.70455146 -0.59464014 
0.83238816 -0.5076239 -0.22236902 
0.889656 -0.036532987 0.4551676 
-0.86635244 0.19364388 -0.46036476 
-0.61111486 0.16446513 -0.7742674 
-0.4879535 0.19052705 -0.8518221 
-0.14351556 -0.23116721 -0.96227074 
-0.14137232 0.3167546 -0.9379129 
-0.8149744 0.027719533 -0.57883376 
-0.19879496 0.55779725 -0.805818 
0.09705391 -0.14598541 -0.98451453 
-0.014167441 -0.756715 -0.6535914 
-0.3607269 -0.8192719 -0.44572386 
-0.43172193 -0.12487546 -0.8933209 
-0.03474517 -0.9814321 -0.18863739 
-0.3360628 -0.2032612 -0.91964495 
-0.21878849 -0.6714854 -0.70798236 
-0.57146555 -0.81226677 0.11683248 
-0.48800406 -0.48973987 -0.72250056 
0.36166883 -0.8925906 -0.26921707 
-0.2849445 -0.940961 -0.18275438 
-0.4774572 -0.72268504 -0.49976093 
-0.7327982 -0.5280603 -0.42913768 
-0.6024191 -0.26634294 -0.7524313 
-0.44212657 -0.52482426 -0.72738135 
-0.1323277 -0.92991185 -0.34315228 
-0.09609402 -0.49122456 -0.8657161 
-0.3363235 -0.34814727 -0.8750315 
-0.41930833 -0.2819491 -0.86295146 
0.057922345 0.19282325 -0.9795224 
0.03031397 -0.3484295 -0.93684477 
-0.4002539 -0.49424443 -0.771699 
-0.032425772 -0.84629995 -0.531719 
-0.036968023 -0.66136277 -0.7491547 
0.28041822 0.13079216 -0.95092535 
0.3780668 -0.03172746 -0.9252345 
0.30168507 -0.37978822 -0.87449825 
0.079261556 -0.94383043 -0.3207831 
0.06694025 -0.9362803 -0.34481615 
-0.04171899 -0.9260358 0.37512293 
-0.22181016 -0.7627598 0.60745186 
-0.5403485 -0.73317057 -0.41289777 
0.2541894 -0.8445817 -0.4712424 
-0.09073093 -0.7319408 -0.6753004 
0.43485126 -0.89964175 -0.039359268 
0.41938078 -0.9067846 0.043146316 
-0.06398331 -0.9610571 0.26884103 
-0.86779064 -0.49659437 0.018263565 
-0.36061797 -0.616714 -0.69972754 
0.010210878 -0.2776335 -0.96063286 
-0.005773553 -0.6080363 -0.7938884 
-0.007226343 -0.16843447 -0.98568636 
0.27738127 -0.8674592 -0.41300648 
-0.6296949 -0.5879374 -0.5077538 
-0.2280331 -0.67189044 -0.7046731 
-0.7448899 0.30706507 -0.5923261 
-0.30991116 0.42001966 -0.8529587 
-0.15163444 0.12513548 -0.98048365 
-0.24714032 0.043744106 -0.96799177 
0.042449772 0.05788273 -0.9974205 
0.63929915 0.22776493 -0.734452 
0.1897674 -0.6587845 -0.7280051 
0.94926864 -0.028610218 -0.31316227 
0.7612852 -0.26125064 -0.59345853 
0.5096299 -0.48712176 -0.7092177 
0.3562948 -0.89586884 -0.26546794 
0.30756786 -0.91691947 -0.25428465 
-0.118220314 -0.97054976 -0.2098982 
0.3733628 -0.922461 0.09831648 
0.16555999 -0.8919447 -0.420743 
-0.4961293 -0.3349385 -0.80104434 
-0.26183712 -0.8008227 -0.5386321 
-0.35424724 -0.64379084 -0.6782642 
0.04683227 -0.02656488 -0.99854946 
-0.51249397 -0.5523906 -0.65743035 
-0.24442638 -0.24104935 -0.9392289 
-0.41861576 -0.86802584 -0.26700553 
-0.49231035 -0.7825109 0.38119206 
-0.06519331 -0.9576415 -0.2804867 
-0.34855962 -0.63821274 -0.6864333 
-0.6720486 -0.5592076 -0.48542517 
-0.6728453 -0.6642939 -0.32556543 
-0.12121046 -0.5545075 -0.82330406 
-0.17116176 -0.08888815 -0.981225 
0.109887235 -0.013872474 -0.99384725 
0.65293247 -0.58634096 0.47946167 
-0.15178002 -0.98623 -0.065675944 
-0.22678286 -0.62178886 -0.74963206 
-0.24259919 -0.43328363 -0.86799246 
-0.9213943 -0.024312733 -0.3878679 
-0.14290948 -0.7544698 -0.6405875 
0.21309175 -0.33404568 -0.91815335 
0.19263236 -0.31873307 -0.92806363 
0.4514432 -0.2099554 -0.8672472 
0.19505107 0.20089939 -0.9599971 
0.7692803 -0.37312892 -0.5186355 
0.038947787 0.082519725 -0.9958281 
0.23132516 -0.43389025 -0.8707629 
0.442616 0.07100259 -0.89389586 
-0.1475684 -0.22608332 -0.9628655 
-0.15316264 -0.51293683 -0.844652 
-0.21588512 -0.5524564 -0.8050998 
0.18214719 -0.7238795 -0.66544795 
-0.06504136 -0.7098811 -0.70131195 
-0.4217914 -0.5754913 -0.7006439 
-0.10748909 -0.5671289 -0.81658494 
0.34464195 -0.54945993 -0.76112795 
-0.21493609 -0.5699348 -0.79308057 
-0.27551162 -0.910608 -0.30803668 
-0.33065873 -0.6964562 -0.6368781 
-0.03980451 -0.998932 -0.02346414 
-0.3534466 -0.7840889 -0.51017654 
-0.4021026 -0.84309334 -0.3570816 
-0.32800484 -0.92494035 -0.1920893 
0.102245435 -0.85420686 -0.50978106 
-0.028991515 -0.7995176 -0.5999426 
0.34740794 -0.747105 -0.5666938 
0.2608685 -0.18070248 -0.94831127 
0.046305515 -0.5762534 -0.8159583 
0.29307482 -0.9536789 0.06785154 
-0.46920705 -0.7223445 -0.50799924 
-0.817434 -0.4243279 -0.38954782 
-0.4722088 -0.012445752 -0.8813989 
0.097027235 -0.71425104 -0.6931314 
0.42025548 -0.8798267 -0.2220144 
0.104639314 -0.55611014 -0.82449514 
0.6417864 0.31495357 -0.69922423 
0.86990047 0.3667228 0.32982963 
0.63396126 0.4451949 0.63237226 
-0.04502031 0.8686312 0.49340954 
-0.7527584 0.06087482 0.6554763 
-0.9726769 0.22011484 -0.07381855 
-0.38960934 0.1646838 -0.90613675 
0.23869652 -0.09515808 -0.9664207 
0.19246925 -0.3885097 -0.9011192 
0.13521849 -0.29372343 -0.9462783 
0.31667307 -0.52498627 -0.79000473 
-0.05455441 -0.13237233 -0.9896977 
-0.69077444 -0.014326556 -0.72292846 
-0.14784874 -0.30265433 -0.9415631 
0.16794296 -0.6078668 -0.77607554 
0.079886265 -0.7424368 -0.665136 
0.15455118 -0.6480789 -0.74572635 
-0.012304107 -0.36655328 -0.9303158 
0.63009715 -0.09833325 -0.77026504 
0.9634912 -0.26324356 0.04886181 
0.9380701 0.16905382 0.3023993 
0.33172965 -0.7460416 0.5773884 
0.07101904 -0.5734861 0.8161311 
-0.6275408 -0.2274258 0.7446275 
-0.92456234 0.17587283 -0.3380137 
-0.47753254 0.83925366 -0.26003075 
-0.9835094 0.04493416 -0.17518593 
-0.49794984 -0.2871442 -0.81828743 
-0.4356609 0.42762884 -0.79204375 
-0.66573346 0.50809705 -0.54647636 
-0.63173586 0.43508142 -0.6415715 
-0.054503016 0.31872022 -0.94628054 
-0.31043544 -0.20470151 -0.9282926 
-0.87556607 -0.1838192 -0.44676012 
-0.69267917 0.20374277 -0.6918703 
0.5055943 -0.009681758 -0.8627171 
-0.1581064 0.17860149 -0.9711354 
-0.7765288 0.15347253 -0.6111049 
-0.6189894 -0.2643474 -0.7395759 
-0.4622907 0.18915778 -0.8663178 
-0.36875457 -0.14492759 -0.9181591 
-0.10260126 -0.7103635 -0.6963166 
0.6237719 -0.54229826 -0.56286883 
-0.12284901 -0.8212679 -0.55716 
0.52602005 -0.73677677 -0.42480943 
0.19709983 -0.62185603 -0.75792265 
-0.2686056 -0.77902174 0.5665476 
-0.43714875 -0.7342447 0.519409 
-0.11705179 -0.758538 -0.6410297 
-0.2052002 -0.40681875 -0.8901637 
-0.14896111 -0.9317943 -0.33101368 
0.4779637 -0.64234763 -0.5991163 
0.01339533 -0.1743112 -0.98459953 
-0.089544 -0.49413425 -0.86476195 
-0.04541002 -0.80937886 -0.5855286 
-0.24551693 -0.72546697 -0.6429769 
-0.08222245 -0.074316986 -0.99383926 
0.045655496 -0.38807473 -0.92049646 
-0.24363284 -0.10518088 -0.96414727 
0.061268426 -0.18868783 -0.980124 
0.22639017 -0.3406015 -0.91254497 
0.32027903 -0.8348383 -0.4477347 
-0.35514963 -0.88170636 -0.31058443 
-0.103168696 -0.9632275 -0.24809103 
0.26095954 -0.9647024 -0.03534704 
0.86101246 -0.37030858 -0.34861046 
0.61851346 -0.43409985 -0.6549798 
0.89464873 -0.25673768 -0.3656359 
0.6049705 -0.51146096 -0.6102609 
0.66509604 0.15851942 -0.72973895 
-0.22550224 0.10246108 -0.9688398 
-0.6914505 0.011807505 -0.7223274 
-0.5782989 -0.057177905 -0.81381893 
-0.04287447 -0.016171549 -0.99894965 
0.65582937 -0.48296762 -0.58019847 
-0.6205974 -0.78176904 -0.06079478 
-0.26347804 -0.8701412 -0.41645384 
0.46350262 -0.45537278 -0.7601322 
0.48386034 -0.5046476 -0.7149895 
0.07029549 -0.6704779 -0.73859185 
-0.14775598 -0.8896411 -0.4320961 
-0.08131008 -0.27906767 -0.9568228 
-0.57130337 -0.3786247 -0.72818667 
-0.12402036 -0.5502947 -0.8257087 
-0.5593361 -0.07131893 -0.82586724 
-0.386151 -0.32340503 -0.86388457 
-0.18331896 0.5473101 -0.8166063 
0.4626682 0.41956234 -0.78096455 
0.14146633 0.093389414 -0.9855281 
0.40812296 -0.39199513 -0.82448506 
0.9836709 0.059736155 -0.16977409 
0.82568276 -0.37882167 -0.41802165 
0.5162705 -0.7989815 -0.30837232 
0.022745525 -0.6041385 -0.79655474 
0.13944341 -0.34960896 -0.92646056 
-0.18813562 -0.6918729 -0.69707745 
0.5485854 -0.79099566 -0.27088746 
0.92311716 -0.27923185 -0.26435667 
-0.57920027 -0.61771446 -0.53193617 
-0.4529377 -0.5241818 -0.72116643 
-0.28228912 -0.14694369 -0.94800866 
-0.3262269 -0.48505536 -0.81135535 
0.010219512 0.08406349 -0.996408 
0.0042269174 0.05591833 -0.99842644 
-0.28010798 -0.4539674 -0.8458446 
-0.37008896 0.2902493 -0.8824905 
-0.11771762 0.44633237 -0.8870908 
-0.08451 0.099167034 -0.99147564 
0.27330428 0.16729201 -0.9472688 
0.4218015 -0.3931831 -0.817001 
-0.38526666 -0.09822373 -0.9175629 
-0.5096996 -0.24513914 -0.8246898 
-0.4742581 -0.40522134 -0.78158504 
-0.22019053 -0.6710373 -0.7079726 
-0.18669462 -0.40059 -0.89703554 
-0.2804888 -0.6021941 -0.74745464 
-0.4077448 0.046349917 -0.9119189 
-0.37244532 -0.22436386 -0.9005251 
-0.18551697 -0.5496784 -0.8145165 
0.029465947 -0.43353567 -0.9006546 
0.14952157 -0.44634542 -0.8822806 
0.057824455 0.35184696 -0.9342699 
0.553577 -0.4485405 -0.70168656 
0.7639801 0.25018844 -0.5947607 
0.32839406 -0.3427763 -0.88014877 
-0.21173409 -0.21698676 -0.9529352 
0.38045937 -0.8640689 -0.32959935 
0.28921536 -0.7657092 -0.5744944 
0.21978065 0.15106401 -0.96378225 
0.3812554 0.025962593 -0.92410517 
0.0025135335 -0.51579916 -0.85670596 
0.88584787 -0.414013 0.20944402 
0.82700723 -0.16668533 0.5369125 
-0.82664 0.39776304 -0.39805907 
-0.87832296 0.28775528 -0.38176677 
0.09654373 -0.3607527 -0.9276512 
0.24473381 -0.27124807 -0.93087596 
0.32451254 -0.12445706 -0.9376578 
-0.81654453 -0.30839616 -0.48800302 
-0.028171912 -0.14893848 -0.98844516 
0.2356308 -0.1819275 -0.9546625 
-0.029579412 0.10529924 -0.9940006 
-0.16481978 -0.28845477 -0.9432011 
0.1867094 -0.04156952 -0.9815354 
-0.23968345 -0.67200536 -0.7006859 
-0.4420806 -0.27116448 -0.85500556 
0.011031201 -0.09237458 -0.9956632 
-0.17007937 -0.637187 -0.75170857 
0.037462708 -0.4952087 -0.86796606 
0.04923795 -0.12292396 -0.9911939 
0.15921934 0.17352177 -0.9718742 
-0.4291889 -0.24107324 -0.87044847 
-0.6421829 0.43853697 -0.6287182 
-0.6555841 0.09231771 -0.74945784 
-0.69204324 -0.08755457 -0.7165266 
-0.550005 -0.8334037 -0.054154076 
0.2204654 -0.30989602 -0.92485654 
0.5505509 -0.3726815 -0.7469955 
-0.06065418 -0.11947935 -0.9909823 
-0.8933269 0.4492589 -0.011558818 
-0.08354219 0.1648552 -0.98277336 
-0.23057123 -0.26441365 -0.93644136 
-0.17293172 -0.5877462 -0.7903474 
0.6777478 0.46530908 -0.5693377 
0.81765807 0.34277505 -0.4625373 
0.13082038 -0.19074015 -0.97288454 
0.18208703 -0.5006038 -0.8463097 
0.093334 -0.7540158 -0.6501916 
-0.34356618 -0.56647384 -0.74904585 
-0.2661272 -0.9475508 -0.17698546 
0.1061385 -0.51601464 -0.8499786 
-0.31947166 -0.7044841 -0.6337508 
-0.64492494 -0.2048839 -0.7362706 
0.042856764 -0.8745971 -0.48295262 
0.14769629 -0.9626665 -0.2268455 
0.7118283 -0.6046856 -0.3572896 
0.31273758 -0.7342843 -0.602513 
-0.35195842 -0.8642421 -0.3594593 
-0.3490474 -0.6142449 -0.7077212 
-0.10839332 -0.25870174 -0.95985645 
0.38290578 0.09734534 -0.9186442 
-0.3146114 -0.5776971 -0.75318384 
-0.7003974 -0.4535755 -0.55110145 
-0.569236 -0.2725137 -0.77569765 
-0.27897382 -0.32411855 -0.90394735 
-0.4474921 -0.36001286 -0.81862175 
-0.2590676 -0.06387897 -0.9637446 
-0.50351775 0.21650992 -0.8364171 
-0.008700429 -0.029656226 -0.9995224 
0.29593855 -0.49197248 -0.8187695 
0.21776927 -0.66634154 -0.71313787 
0.45207772 -0.51962656 -0.7249925 
0.73328483 0.0009556799 -0.679921 
0.9674767 -0.09414159 -0.23478971 
0.6060999 -0.44898006 -0.6565514 
0.98101366 0.19215283 0.026261026 
0.66143 -0.74858826 -0.04610928 
0.46554643 -0.8451056 -0.26279858 
0.5571049 -0.5898185 -0.5845924 
0.32018185 -0.22403164 -0.92048544 
0.68152064 0.13394739 -0.71943575 
0.106935605 -0.6573964 -0.7459188 
-0.16105455 -0.31681526 -0.9347136 
-0.36350504 -0.27312165 -0.89065635 
0.6186598 -0.10316232 -0.7788567 
0.33177087 0.18827988 -0.9243803 
-0.23715323 -0.577115 -0.7814709 
-0.054726172 -0.99813515 -0.027042154 
0.27712965 -0.9559365 -0.09687393 
-0.19416496 -0.6094193 -0.7687056 
-0.65547687 -0.355649 -0.6662311 
-0.76172036 -0.21666117 -0.6106063 
0.38425353 -0.29779127 -0.87388194 
0.4482586 0.12400803 -0.8852605 
0.094445825 -0.2304085 -0.9684999 
0.3079202 -0.9233779 0.22925635 
-0.7905253 -0.5692215 -0.2259576 
-0.6973643 -0.34801647 -0.6265522 
-0.33665076 -0.13099274 -0.9324737 
-0.046050657 0.24506941 -0.9684113 
0.11093999 0.4664629 -0.8775562 
0.26589268 -0.36366478 -0.89277613 
0.0864956 -0.5663047 -0.81964475 
0.5939771 -0.66244394 -0.4564639 
-0.4174196 -0.4435732 -0.7930976 
0.32409394 -0.61580217 -0.718158 
-0.5778113 -0.033969473 -0.8154632 
0.17833947 -0.4978785 -0.84871197 
-0.62767184 0.117188275 -0.769607 
0.22900377 0.266009 -0.9363742 
-0.07039332 -0.43117675 -0.89951736 
0.14490941 -0.7796167 -0.60926116 
0.48766854 -0.53417253 -0.6905354 
0.012379859 -0.70870996 -0.70539135 
0.25234976 -0.68774474 -0.68068117 
0.21786666 -0.8307419 -0.51225185 
-0.028647449 -0.53280663 -0.84575194 
0.039387755 -0.8579336 -0.51224846 
0.022544682 -0.9280923 -0.3716672 
-0.13234748 -0.77201974 -0.62166697 
0.2385733 -0.9065716 -0.3481535 
0.4674948 -0.88395405 -0.008595806 
0.3422016 -0.8670214 -0.3621769 
0.24534832 -0.8284345 -0.5034882 
0.010917358 -0.8345395 -0.55084014 
-0.07232565 -0.6752854 -0.7340019 
0.050852202 -0.62264466 -0.7808507 
0.23282242 0.3848236 -0.8931431 
0.47890007 0.34484234 -0.8073033 
0.4656061 -0.31330502 -0.82767814 
0.5033113 0.05451588 -0.86238384 
-0.08196747 -0.5621762 -0.8229454 
-0.29681224 0.7601858 -0.57794476 
0.60780054 0.3482026 -0.7136761 
0.7332615 -0.40511033 -0.546089 
0.3581928 -0.7550672 -0.5491551 
0.5122441 0.08676422 -0.854446 
0.9534318 -0.23533554 0.1886402 
0.3773888 -0.50914407 0.77353096 
-0.20230108 0.03008237 0.9788613 
-0.7176505 -0.25024602 0.6498883 
-0.7202031 0.16124642 0.67476445 
-0.87490416 -0.46315098 -0.14154081 
-0.08736385 0.032279942 -0.99565333 
-0.04945025 -0.15194786 -0.9871508 
-0.10597918 0.3189748 -0.9418193 
-0.08706646 0.22176467 -0.97120535 
-0.433651 -0.28881752 -0.8535404 
-0.39891332 0.0783968 -0.91363126 
-0.10141836 -0.2278681 -0.9683958 
0.16006108 -0.34875867 -0.92344344 
0.24270059 -0.65459484 -0.71596235 
0.4963714 -0.46328437 -0.73415476 
0.64274824 -0.1360668 -0.7538969 
-0.01829734 -0.009271491 -0.99978966 
0.8681729 -0.3750121 -0.32502615 
0.97716755 -0.1526327 -0.14780724 
-0.016635155 0.2529331 0.9673408 
-0.5899696 -0.042038746 0.8063303 
-0.9126451 0.40019363 0.08321022 
-0.7235973 0.6843737 0.08966402 
-0.8683018 0.4660416 0.16987465 
-0.85188335 0.37446252 0.3661594 
-0.9748099 0.13984306 -0.17375174 
-0.46824077 -0.7863876 -0.40292072 
-0.9313808 -0.19575876 -0.3069338 
-0.9641602 -0.25803164 -0.061764248 
-0.47057274 -0.3976799 -0.7876624 
-0.5513588 -0.80138063 -0.23193257 
-0.4969884 -0.8219461 -0.27822164 
-0.66679823 -0.38206553 -0.6398485 
-0.2581814 0.21727537 -0.9413469 
-0.39059064 -0.026000496 -0.92019725 
-0.8676639 -0.093266726 -0.48832428 
-0.20427386 -0.38433248 -0.90031147 
0.06593384 -0.369916 -0.9267227 
-0.023230422 -0.22944783 -0.9730438 
-0.43484798 -0.77836096 -0.4528373 
0.29150286 -0.0560407 -0.954927 
-0.060441226 -0.07108802 -0.99563724 
0.04607014 -0.88810104 -0.45733365 
0.5583035 -0.74732876 -0.3602736 
0.028640896 -0.8896586 -0.4557273 
-0.05430916 -0.9629664 -0.26409528 
-0.65161705 -0.47924367 -0.5879803 
-0.17385833 0.08724821 -0.98089814 
-0.6116015 0.34462142 -0.7121656 
-0.84652746 -0.5045274 -0.1698338 
-0.4063002 -0.4704372 -0.78333193 
-0.28655028 -0.29767433 -0.9106476 
-0.38799894 -0.5695228 -0.72463834 
-0.23370287 -0.057420235 -0.9706111 
0.053783566 -0.7424763 -0.6677098 
-0.3540678 -0.04349327 -0.93420786 
0.22055961 0.047822785 -0.9742005 
0.28048593 -0.077620685 -0.9567145 
0.69397557 -0.59424275 -0.40653855 
0.76646817 -0.45650208 -0.45181024 
0.41848034 -0.8006567 -0.42874625 
0.015221928 -0.8086857 -0.588044 
0.20407405 -0.59255314 -0.7792526 
0.4422804 0.23347478 -0.86595476 
0.89991766 -0.38250202 -0.209381 
0.72993505 -0.68200636 -0.045412432 
0.4007616 -0.73403645 -0.54825246 
0.4401553 -0.5156105 -0.7351253 
0.74262315 0.24556948 -0.6230622 
-0.074133754 0.21204735 -0.97444355 
-0.16455299 -0.23750797 -0.9573465 
0.16265737 -0.251004 -0.95422196 
0.1056332 -0.6098469 -0.78544784 
-0.007257413 -0.8602325 -0.50985056 
-0.14872737 -0.85465294 -0.4974422 
-0.031017732 -0.26069286 -0.9649234 
-0.049874872 -0.110985555 -0.9925698 
0.54160386 0.1506134 -0.82703143 
0.105425216 0.01389533 -0.9943302 
-0.12897976 -0.15700577 -0.9791391 
0.17359073 -0.6502872 -0.73958963 
0.12855643 0.108141 -0.98578846 
0.15488838 -0.28344962 -0.9463963 
0.1519142 0.42084515 -0.8943218 
0.12765414 0.16180047 -0.9785321 
0.6973671 -0.13401677 -0.704073 
0.25228637 0.3875325 -0.88666236 
-0.04346113 0.23490058 -0.97104734 
0.57419467 -0.17101641 -0.8006584 
0.5283187 -0.73147684 -0.43106958 
0.51066095 -0.5911325 -0.6243299 
0.55824167 -0.37904736 -0.7380308 
0.108299226 -0.47333822 -0.8741981 
0.24746083 -0.42621234 -0.8701185 
0.59818935 -0.54333425 -0.58903104 
0.79674333 0.119086035 -0.5924682 
-0.09668339 -0.76115406 -0.6413244 
-0.16429734 -0.16725263 -0.9721281 
0.026921274 -0.18994614 -0.9814254 
-0.016290171 0.18534414 -0.98253864 
0.76231706 -0.04200775 -0.64583904 
0.3367472 0.2816305 -0.8984908 
0.4624898 0.041025642 -0.88567495 
-0.021880938 0.29263535 -0.95597374 
0.5816027 0.16298316 -0.7969786 
0.027239835 -0.038356055 -0.9988928 
0.4064614 0.10260402 -0.9078886 
0.34307733 0.13778153 -0.929147 
0.104060404 -0.37207782 -0.92235 
-0.20844671 -0.41859484 -0.8839278 
-0.6634088 -0.38053247 -0.64426994 
-0.42817494 -0.69650924 -0.57579607 
0.15136337 -0.8068777 -0.57099706 
0.08661686 -0.8304736 -0.55028284 
0.28256872 -0.6820285 -0.67453104 
-0.051332645 -0.78171104 -0.62152463 
-0.086490706 -0.07714806 -0.9932611 
0.35167512 -0.19158317 -0.91630816 
0.5398809 -0.04763245 -0.84039277 
-0.11794444 -0.13545999 -0.98373765 
0.083692625 -0.5985541 -0.7966985 
0.37768537 -0.09612736 -0.92093074 
-0.08311953 -0.09115979 -0.99236137 
-0.21325426 -0.30634192 -0.9277269 
0.3228544 -0.5248173 -0.7876114 
0.005184718 -0.77356464 -0.6336962 
-0.025668915 -0.3734938 -0.9272775 
0.6964901 0.019343616 -0.7173057 
0.56520706 0.42782527 -0.7053415 
0.8521021 0.52333146 -0.006798078 
0.8322059 0.113841705 0.54265404 
-0.8239486 0.5401877 -0.1711903 
-0.62467974 0.68595463 -0.37315083 
-0.28995487 0.18185115 -0.9396044 
-0.07921115 0.00045617286 -0.9968578 
-0.54414135 0.6905718 -0.47646713 
-0.2006353 -0.4183935 -0.8858287 
-0.40574628 -0.09923848 -0.9085823 
-0.43715355 -0.37330008 -0.81825674 
-0.3818153 -0.43184558 -0.81714535 
-0.44518685 0.047334272 -0.89418584 
0.1526667 -0.23230956 -0.96058583 
-0.3902211 0.35686058 -0.8487509 
0.039853632 -0.16424136 -0.9856148 
0.37018833 0.21246651 -0.9043333 
-0.029690968 -0.5993105 -0.79996586 
0.60226184 -0.3823627 -0.7007707 
0.27818114 0.2506424 -0.9272506 
-0.33921224 0.29927894 -0.8918336 
-0.38155738 0.17694002 -0.907252 
0.18105182 0.21697225 -0.959241 
-0.5279899 -0.022616915 -0.8489495 
-0.63612145 0.16951652 -0.75273746 
-0.42942318 -0.47375122 -0.7688664 
0.36972436 0.38892016 -0.84382766 
0.5565767 -0.3523619 -0.7523719 
-0.39106402 -0.3318508 -0.85845447 
-0.61765456 -0.4392475 -0.65235317 
-0.8130539 -0.08919066 -0.5753159 
-0.64451325 0.2628138 -0.7180053 
-0.049848013 0.7163266 -0.6959824 
0.11757097 0.5568534 -0.8222478 
0.58234125 -0.23893514 -0.77703846 
-0.072076246 -0.2970858 -0.9521267 
0.2693848 -0.5036337 -0.8208441 
0.19864689 -0.19001071 -0.9614756 
-0.70175076 0.033011146 -0.7116574 
-0.49897894 -0.31989935 -0.8054096 
-0.081232324 -0.14646243 -0.9858753 
0.17005193 -0.6034308 -0.7790723 
-0.002154117 -0.66992974 -0.7424214 
0.33393773 -0.6708656 -0.6621367 
0.5440942 -0.75587064 -0.3641717 
-0.1428733 -0.6293097 -0.76390874 
0.17597769 -0.5784461 -0.79651237 
-0.24184866 -0.7444662 -0.62231785 
-0.003239644 -0.44150093 -0.89725494 
-0.63051945 -0.102273434 -0.76940584 
-0.07432844 0.48436767 -0.8717014 
0.11855735 0.12279798 -0.98532474 
0.29409662 -0.1253573 -0.9475193 
0.12894003 -0.95237374 -0.27633083 
-0.41835567 -0.7938892 -0.44126925 
-0.029575745 -0.4950437 -0.86836463 
-0.056229748 -0.49560001 -0.86672884 
-0.6814467 -0.2615473 -0.6835375 
-0.012274191 0.037917566 -0.9992056 
0.26771 -0.4623204 -0.84533495 
0.042971678 -0.67510855 -0.7364658 
0.021402335 -0.058527716 -0.9980564 
0.02405748 -0.5755956 -0.81738055 
0.7661815 -0.19855182 -0.6111817 
0.7228121 -0.37115133 -0.5829146 
0.450921 -0.36446002 -0.81476325 
0.35526583 -0.9308922 0.08500555 
-0.008084093 -0.97131485 0.23766015 
-0.27067724 -0.91062754 -0.31223583 
-0.4345974 -0.64171636 -0.6319218 
0.03092038 0.012458619 -0.9994442 
0.026803404 -0.027409 -0.9992649 
0.6716944 -0.09756999 -0.73437506 
-0.06098039 -0.26558173 -0.9621579 