# OOMMF: rectangular mesh v1.0
# Segment count: 1
# Begin: Segment
# Begin: Header
# Desc: Time (s) :  6.670000000000014e-07
# Title: m
# meshtype: rectangular
# meshunit: m
# xbase: 2e-09
# ybase: 2e-09
# zbase: 5e-10
# xstepsize: 4e-09
# ystepsize: 4e-09
# zstepsize: 1e-09
# xmin: 0
# ymin: 0
# zmin: 0
# xmax: 1.024e-06
# ymax: 1.024e-06
# zmax: 1e-09
# xnodes: 256
# ynodes: 256
# znodes: 1
# ValueRangeMinMag: 1e-08
# ValueRangeMaxMag: 1
# valueunit: 
# valuemultiplier: 1
# End: Header
# Begin: Data Text
0.054311913 -0.4012694 -0.9143485 
0.40992618 -0.80455995 -0.42970222 
-0.4062744 -0.7630529 -0.5026842 
0.6736912 0.22838056 -0.70283896 
0.58122736 -0.13783741 -0.80198234 
-0.02002808 0.6641882 -0.74729705 
0.3117999 -0.29101783 -0.90448296 
0.13598196 -0.50788575 -0.8506239 
0.8039029 -0.3693214 -0.46619943 
0.38863114 -0.69726515 -0.60231817 
0.4100685 -0.8334771 -0.37035108 
0.30260748 -0.63963425 -0.7066094 
0.7198736 -0.3076412 -0.6222049 
-0.33404386 -0.59564 -0.7304983 
-0.18879296 -0.31003943 -0.9317902 
0.16484748 -0.5945906 -0.78694814 
0.3711155 -0.77787405 -0.5071344 
-0.072076246 -0.4514841 -0.8893633 
-0.88844925 -0.2956609 -0.35105947 
0.32459164 -0.8048532 -0.49684158 
0.7252654 -0.30398867 -0.6177225 
0.66268194 -0.45702222 0.59328187 
-0.029820751 0.19253328 0.9808372 
0.024237672 0.18346334 0.9827277 
-0.49881533 0.7866198 0.36388567 
-0.65779364 0.25509182 0.708686 
-0.7725592 -0.42357188 0.4730108 
-0.075433396 -0.9967252 0.029134551 
-0.6748208 -0.6143746 -0.40885302 
-0.9545496 -0.20202287 0.21913907 
-0.11055185 -0.95980567 -0.25797567 
-0.25658673 -0.6864858 0.68036795 
-0.3797585 -0.9084139 0.17483628 
-0.07343098 -0.9352371 0.34632283 
0.38780743 -0.717158 -0.57904226 
0.34317216 -0.55031323 -0.7611757 
0.40427306 -0.7965355 -0.4495493 
-0.3191559 -0.9030153 0.28758126 
-0.86727226 -0.34423172 0.3596433 
-0.23199245 -0.8146105 0.5315914 
-0.9295955 -0.20540059 0.30604407 
-0.704422 -0.70497394 0.082470715 
-0.30175453 -0.8615333 -0.4082949 
0.14155994 -0.46591082 -0.8734346 
0.6962231 -0.3571505 -0.62266934 
0.43272617 -0.8059309 -0.40400952 
-0.3615447 -0.4674845 -0.8066869 
0.58699214 -0.07816279 -0.80581063 
-0.2249721 -0.45463425 -0.86179775 
0.004203247 -0.606573 -0.79501665 
0.0418091 -0.27602223 -0.96024156 
0.54212445 -0.25796658 -0.7997215 
-0.56733644 -0.7113212 -0.41491172 
0.04615639 -0.3719564 -0.927102 
-0.32734054 -0.63150537 -0.7028864 
0.18088655 -0.3299466 -0.9265071 
-0.10049327 -0.94980645 0.29625815 
-0.21310271 -0.79978687 -0.56118464 
0.6621467 -0.5152959 -0.5440882 
0.5553704 -0.6649649 -0.49938503 
0.2890091 -0.93991405 -0.18175647 
-0.14786586 -0.92957544 0.3376763 
0.01062408 -0.7849581 0.61945784 
0.07187176 -0.9267101 0.3688397 
-0.3688381 -0.5232269 -0.76823956 
-0.56936735 -0.0050717066 -0.82206756 
-0.082495324 -0.75438666 -0.651226 
-0.30481648 -0.42661443 -0.8515204 
-0.35884458 -0.2711364 -0.8931493 
0.26983365 -0.65924233 -0.70184714 
0.47611314 -0.8793125 -0.011221549 
0.35432172 -0.8295301 0.43166658 
0.06520599 -0.8600677 -0.5059957 
-0.7289855 -0.43278491 -0.5303559 
-0.32456112 -0.17219959 -0.93005776 
0.08050812 0.122001216 -0.98925936 
0.81104934 0.2188496 -0.54249775 
0.24487218 -0.2936721 -0.9240099 
0.22065295 -0.32461268 -0.9197493 
-0.26277146 -0.34589687 -0.90072554 
-0.2204216 -0.4128179 -0.8837397 
-0.56228846 -0.49546862 -0.6620745 
-0.1858645 -0.48209816 -0.85617507 
0.52024686 -0.07157894 -0.85101104 
0.15053314 -0.45930535 -0.87543046 
-0.36460617 -0.32891735 -0.8711348 
0.1646328 -0.703123 -0.69174725 
0.3262466 -0.6812293 -0.6553548 
0.5677953 -0.33431134 -0.7522264 
0.61144185 -0.400726 -0.68231785 
0.5250645 -0.7607366 -0.38155892 
-0.43824545 -0.10492727 -0.89271003 
-0.53627074 -0.05839306 -0.8420238 
0.49452507 -0.34307232 -0.7985903 
0.4567358 -0.87632537 -0.15312241 
0.6730423 -0.7337673 -0.09273497 
0.38508102 0.33923727 -0.85827196 
0.51875716 -0.81585205 -0.25549275 
0.034292758 -0.8521369 -0.52219415 
0.5255324 -0.84696805 -0.08038052 
-0.03762543 -0.7916872 0.60976696 
-0.087575756 -0.9601169 0.26552984 
-0.56411755 -0.8256179 0.011242311 
-0.86129916 -0.3337093 -0.38314748 
-0.4815621 -0.14719394 -0.8639629 
-0.29380217 0.44131264 -0.84789354 
-0.3254007 0.27419725 -0.9049477 
0.2761347 0.16925554 -0.94609845 
0.32759947 -0.269246 -0.9056408 
0.7012191 -0.44304883 -0.55856925 
0.8702704 -0.20755099 -0.44671267 
0.94688606 0.22488049 -0.22985977 
0.5437322 0.035962988 0.83848786 
0.27460712 -0.5031498 0.8194091 
0.0050056423 -0.7986789 0.6017366 
-0.29153386 -0.66345406 0.68908405 
-0.5831669 -0.6472174 0.49094415 
-0.37725675 -0.8669427 0.3257114 
-0.6877237 -0.5876699 -0.4262398 
-0.7038721 -0.15030232 -0.6942431 
-0.57792974 -0.57358545 -0.58051443 
-0.4055673 -0.91369677 0.025953434 
-0.39381012 -0.8136875 -0.427582 
-0.36378965 -0.258496 -0.89489496 
-0.1914588 -0.2296628 -0.9542529 
-0.54500383 -0.8321119 -0.102765426 
0.24292763 -0.61960787 -0.7463728 
0.7036605 -0.39182758 -0.5927336 
0.8946402 0.4122123 -0.17233662 
0.4626005 -0.8529962 -0.24165775 
-0.0056800162 -0.800242 -0.5996504 
0.8553283 -0.14407517 -0.4976502 
0.832691 -0.11196816 -0.54229957 
0.36160406 0.30081517 -0.88246965 
0.73911405 0.17417103 -0.65067273 
0.23200111 0.018603412 -0.97253764 
0.26457244 -0.7549662 -0.600023 
-0.16665196 -0.4515847 -0.87652636 
0.707942 -0.50535667 -0.4933891 
0.23080252 -0.75012785 -0.6197083 
-0.571787 -0.6081328 -0.5506671 
-0.7329849 -0.39491373 -0.55387396 
-0.90015185 -0.1721353 -0.40012035 
-0.6708948 -0.58800894 -0.45182484 
-0.43041852 -0.3437509 -0.8346108 
0.08670535 -0.9787564 0.18579072 
-0.030269371 -0.99289376 0.11509012 
0.9588488 -0.15974171 -0.23471648 
0.73405427 -0.17142332 -0.6570985 
0.6618904 -0.70404065 -0.25734794 
0.89377 -0.34199944 0.29019254 
0.8606424 -0.47441503 0.18500029 
0.35573423 -0.86059046 -0.3644684 
0.6572222 -0.7511425 0.061999828 
-0.0054930556 -0.9851978 -0.17133364 
0.047816593 -0.94111705 -0.3346825 
0.41619822 -0.5934644 0.6888971 
0.6092702 -0.22750601 0.75962555 
0.43049 -0.7725608 -0.4667208 
0.4164155 -0.8685351 -0.26878422 
0.29164767 0.006078168 -0.9565065 
0.25368902 0.13580482 -0.95770514 
0.24468789 0.13995278 -0.9594484 
-0.48623115 0.14892459 -0.86104643 
0.8541893 -0.15474764 -0.49640092 
0.2753311 -0.9515221 -0.13710804 
0.68360585 -0.6400948 -0.35065892 
0.622 0.037862815 -0.7821014 
0.7728928 0.4921355 -0.40054896 
0.22263104 0.58892965 -0.7769152 
-0.22472036 -0.43701342 -0.87093055 
-0.9459069 -0.22581328 -0.2329561 
0.26357216 -0.1971587 -0.9442766 
0.5280482 -0.110241234 -0.8420286 
0.09509896 -0.5440056 -0.83367515 
0.045870524 -0.20888534 -0.9768638 
-0.13905439 -0.68036425 -0.7195613 
0.50583595 -0.54872495 -0.6656058 
-0.04566931 -0.126477 -0.9909178 
0.05584442 -0.56579316 -0.822654 
0.662666 -0.2777641 -0.69550043 
0.57027215 -0.412084 -0.710617 
-0.1939503 -0.6226146 -0.7581124 
0.86478794 -0.34245643 -0.3672403 
0.12624218 -0.81754893 -0.5618511 
0.83102554 -0.5560688 -0.013574719 
0.33434746 -0.94171566 -0.03719538 
0.25907138 -0.95536053 0.14201565 
-0.088235445 -0.70407236 -0.70462525 
-0.14038485 -0.63041675 -0.76345724 
0.6190228 -0.6989535 -0.35815492 
0.049937427 -0.9180937 -0.3932052 
0.27094826 0.03444568 0.9619774 
-0.8258947 -0.5293475 -0.19413698 
-0.5224794 -0.21352592 0.8254829 
-0.58286935 -0.70822954 0.39833945 
0.017675284 -0.5207103 0.85355055 
0.13661374 -0.55703485 -0.8191758 
0.41802928 -0.85410315 0.30945024 
0.097397454 -0.5524098 0.8278631 
0.7465872 -0.5858966 0.31517106 
0.46763703 -0.7928455 0.39078346 
0.8490874 -0.3827479 0.3640808 
0.18366073 -0.42025843 0.8886235 
0.26024565 -0.7714785 -0.58059734 
0.42399576 -0.42047274 -0.802141 
-0.016691266 -0.65680456 -0.7538762 
0.53323054 -0.39957684 -0.74565655 
0.5746487 0.28762805 -0.76619124 
0.8876559 -0.22106591 -0.40397647 
0.002745014 -0.7602124 -0.6496688 
0.13437116 -0.9174727 -0.37441725 
-0.04314887 -0.32870403 -0.94344676 
0.16661274 -0.39691055 -0.9026086 
-0.21569924 -0.17467125 -0.96071005 
-0.3284846 -0.9391224 -0.100733265 
0.18907538 -0.9819609 0.001845116 
0.27941012 -0.9454672 -0.16739744 
0.4768965 -0.8634086 -0.16460682 
-0.41878414 -0.7576868 -0.50053036 
-0.016897062 -0.8702186 -0.49237606 
0.65744 -0.44578254 -0.6074953 
0.71654624 -0.33038178 -0.61433655 
0.3982211 -0.88887745 -0.22653246 
0.35973358 -0.9081791 -0.21401523 
0.313519 -0.8277652 -0.46530697 
0.40645668 -0.7161134 -0.5674281 
0.3584605 -0.9125968 0.196655 
-0.25897262 -0.96073973 -0.09956135 
-0.18388605 -0.97552645 0.12055812 
-0.38473514 -0.8388764 0.38505247 
-0.15582052 -0.84307444 0.5147287 
-0.40228102 -0.8891734 0.21803838 
-0.316117 -0.78824943 -0.52795166 
0.5458114 -0.45066556 -0.7063926 
0.4870879 -0.8263044 -0.28278345 
-0.42440736 -0.7368778 -0.526203 
-0.45421585 0.27378708 -0.8477787 
0.46840507 -0.69279605 -0.5482977 
0.66351724 -0.7406356 -0.1058488 
-0.5244348 -0.80774176 0.269298 
0.3472863 0.11492059 0.9306909 
0.0008838129 -0.60498494 0.7962366 
-0.73868626 -0.5577894 -0.37843588 
0.15308055 -0.13694848 -0.9786785 
0.31877825 -0.5645007 -0.7613931 
0.9100688 0.03913056 -0.41260603 
0.9840883 -0.13990057 -0.10953582 
0.6447645 -0.36596006 -0.67108274 
-0.0956801 -0.28406566 -0.9540189 
0.9151465 -0.13442189 -0.38004956 
0.9044776 0.09897961 -0.41487756 
0.83396405 0.17147417 -0.5245004 
0.65391433 -0.7487368 -0.10857864 
0.5800675 -0.6736333 -0.45797372 
0.96274906 0.02554757 -0.26918706 
-0.387435 -0.7810152 -0.48980558 
0.38742653 -0.3952249 -0.8328854 
0.7087791 0.046919726 -0.7038685 
0.7072174 0.11634114 -0.6973582 
0.45226303 0.10222485 -0.88600695 
-0.48609534 0.3360845 -0.8066962 
-0.45881134 -0.0365373 -0.88778216 
-3.7145113e-05 0.0018160631 -0.9999984 
0.7491775 0.12492497 -0.650482 
0.32940438 -0.5291529 -0.7819783 
0.102908 -0.9352893 -0.338591 
0.22694565 -0.8598908 -0.4572565 
-0.14303988 -0.60555905 -0.78283954 
-0.008850157 -0.28572306 -0.9582714 
-0.14915484 -0.35659155 -0.9222773 
-0.037820924 -0.0019330179 -0.99928266 
-0.14009084 0.04967613 -0.9888918 
-0.50213146 0.20698929 -0.8396543 
-0.5509812 -0.8337051 -0.03681888 
-0.03446827 -0.9879943 -0.15059684 
0.6659252 -0.71916413 0.1983599 
0.64186794 -0.75242126 0.14787807 
-0.11744487 -0.9488369 0.29311284 
-0.17190102 -0.6523588 0.7381586 
-0.47642928 0.06013949 0.8771536 
-0.17175235 -0.5362611 0.82639295 
-0.88662046 -0.0351171 0.4611627 
-0.33754188 -0.7336871 -0.5897193 
-0.5115422 -0.4949274 -0.7024041 
-0.43254974 -0.8775968 -0.20669949 
0.4952695 -0.74183 0.45210218 
0.4719349 -0.6609998 0.58340096 
-0.4407313 -0.8712622 0.21600494 
-0.44214308 -0.7967476 -0.41195 
-0.18413049 -0.89169097 -0.4135013 
0.6005525 -0.6481538 -0.46822372 
0.06508862 -0.90727735 -0.41546535 
0.2372085 -0.9625042 -0.13159677 
-0.00720776 -0.7613501 0.6483009 
0.40781456 -0.89545023 0.17848341 
-0.7145711 -0.6153692 0.33272952 
-0.6994597 -0.70071375 0.14055775 
-0.66847336 -0.7279915 -0.15222289 
-0.045236945 -0.48364264 -0.87409574 
0.19291231 -0.43927297 -0.8773962 
0.30350336 -0.20797133 -0.9298569 
0.06201941 -0.25412485 -0.965181 
-0.24869353 0.39154884 -0.88591254 
0.19301149 -0.45319295 -0.870266 
0.044329613 0.35861605 -0.93243206 
0.31478095 0.3789694 -0.8702271 
0.32930657 0.122900836 -0.9361904 
-0.21464123 -0.5604057 -0.7999217 
-0.0672274 -0.010794724 -0.99767935 
-0.3181024 -0.58003384 -0.7499144 
-0.3442748 -0.5885214 -0.73151726 
-0.24206746 -0.5834178 -0.7752593 
-0.47879604 -0.4172839 -0.7724174 
0.04237541 -0.943652 -0.3282156 
-0.33777422 -0.9097133 -0.24151699 
-0.12659371 -0.8489896 -0.5130211 
0.04505878 -0.9959198 -0.07818935 
0.34207326 -0.9295663 0.13744992 
-0.5076404 -0.80265564 0.3131216 
-0.61500907 -0.65730155 -0.43556705 
-0.31937402 -0.5421139 -0.777247 
0.29744983 -0.14354594 -0.9438846 
-0.8066633 -0.16566917 -0.56731665 
-0.3384936 -0.276199 -0.89952 
-0.18904401 -0.3423793 -0.92034715 
0.050740123 -0.8706787 -0.48922807 
-0.4103927 -0.91032964 -0.053644594 
-0.52975965 -0.81391656 -0.23852576 
-0.35093582 -0.0029179852 -0.936395 
-0.59717256 0.08826887 -0.7972412 
0.32449865 0.42387044 -0.8455971 
0.7284958 0.44452477 -0.5212406 
0.5497667 0.43120998 -0.7154122 
-0.20667383 -0.25183192 -0.9454452 
-0.51114964 -0.40696293 -0.7570385 
-0.032258354 -0.38142502 -0.92383677 
-0.07026931 0.35057545 -0.9338946 
-0.32991296 -0.45914176 -0.82483107 
-0.06532629 -0.21787211 -0.9737886 
0.017845966 -0.12323176 -0.9922174 
-0.2247971 -0.06566512 -0.9721905 
-0.35121396 0.30394295 -0.8855888 
0.1101876 -0.31348693 -0.943178 
0.1477995 0.27589592 -0.9497562 
0.36773583 -0.2935991 -0.8823662 
0.82004976 -0.14879629 -0.5526103 
-0.46181008 -0.7995931 -0.38390416 
-0.46089748 -0.7294535 -0.50544155 
0.6265145 -0.07313341 -0.7759711 
0.5667384 -0.82352036 0.024934126 
0.49060953 -0.8624534 -0.12440476 
0.9581622 -0.019172005 -0.28558326 
0.6557075 -0.75407064 0.03775342 
-0.32804006 -0.432141 -0.8400261 
-0.18968074 -0.8576336 -0.4780019 
0.032494843 -0.82589626 -0.5628851 
0.32011652 -0.93800014 -0.1329706 
-0.081272826 -0.683369 -0.72553545 
-0.717398 -0.11827396 -0.6865504 
-0.056625135 -0.060732704 -0.9965466 
-0.027115557 0.054726537 -0.9981331 
-0.12605283 -0.36979753 -0.9205219 
0.22275184 -0.17759457 -0.95856243 
0.5082795 0.025447618 -0.8608162 
0.3580721 -0.35657018 -0.8629265 
0.7200841 -0.29650828 -0.6273451 
0.89946574 -0.43669713 -0.01603398 
0.6915414 -0.009120814 0.7222793 
0.8010665 -0.29424146 0.5212623 
0.17615035 -0.71127784 0.6804815 
-0.45254073 -0.7937706 0.40636805 
-0.7556009 -0.6142594 -0.2274921 
-0.32699037 -0.8911579 -0.3145074 
-0.47458422 -0.77878517 -0.41019934 
-0.33115208 -0.37001467 -0.86800206 
0.026402177 -0.258844 -0.96555823 
0.18718603 -0.28700826 -0.93946135 
0.09648339 -0.5447127 -0.8330541 
0.36825526 -0.062292732 -0.9276356 
0.30046022 -0.12093408 -0.9460965 
0.23933564 -0.28693435 -0.92757064 
0.52810514 -0.2853513 -0.7997998 
0.6475715 -0.46498722 -0.60368705 
0.33440536 -0.68546295 -0.6467717 
0.458599 -0.69434494 -0.55459183 
0.024319204 -0.99900776 0.03731124 
0.51473916 -0.4765948 -0.71267176 
-0.0067172605 -0.37972218 -0.92507625 
0.7112619 0.23533207 -0.6623635 
0.9968475 -0.025395649 -0.075166784 
0.7643583 -0.40695092 -0.50014746 
0.2213189 -0.2315613 -0.9473106 
0.34797058 -0.9190465 -0.1851217 
0.354938 -0.9337744 -0.045655567 
0.10454555 -0.09461348 -0.9900094 
-0.66259164 -0.54783946 -0.5107292 
-0.4560794 -0.08391439 -0.88597405 
-0.9259836 -0.18678164 -0.32812673 
-0.47674522 -0.29985443 -0.82631797 
-0.016216895 -0.626006 -0.7796496 
-0.20230275 -0.91874355 -0.33909282 
0.011544673 -0.3553901 -0.93464684 
-0.032608096 0.08430126 -0.99590665 
0.4668732 -0.27920502 -0.8390911 
0.5599704 -0.18711537 -0.8071067 
0.08802001 -0.3384324 -0.936865 
0.41332108 -0.72462523 -0.5514382 
-0.0019319401 -0.99999493 0.0025533617 
0.17830627 -0.66478026 -0.7254476 
0.44136617 -0.6139459 -0.6544207 
0.7061171 -0.2585807 -0.65919256 
-0.06962204 -0.7406275 0.6682991 
0.119049095 -0.8982311 -0.42309383 
0.06604968 -0.73095876 -0.67921776 
0.076172724 -0.6738886 -0.7348958 
-0.29385245 -0.23110938 -0.9274909 
0.12885648 -0.30966583 -0.9420739 
-0.2084341 -0.030224627 -0.9775693 
0.006677238 0.5433666 -0.8394691 
-0.1982542 -0.0086389305 -0.9801126 
0.1596863 -0.17201275 -0.97206587 
0.6013494 -0.1806614 -0.77829325 
0.73127073 0.044805907 -0.6806141 
-0.053150017 0.31560308 -0.94740164 
-0.67236215 0.007575143 -0.7401837 
-0.72223276 -0.36124274 -0.5898166 
-0.657898 -0.45580983 -0.59950626 
0.39189398 -0.8504258 -0.35099143 
0.88981 -0.3284662 -0.31677777 
-0.28453457 -0.32546782 -0.9017266 
0.0048855147 -0.20902131 -0.9778989 
-0.30385667 0.18104875 -0.9353569 
-0.56375736 -0.16345271 -0.80960536 
-0.3850926 -0.6826877 -0.6210002 
0.36740148 0.122010194 -0.9220248 
0.5633542 -0.30800214 -0.76665944 
0.15294522 -0.59474707 -0.78922987 
0.72374207 -0.14431013 -0.6748126 
0.48871136 -0.29621115 -0.82062185 
0.10456671 -0.838691 -0.53447485 
0.4797647 -0.69853926 -0.5309131 
0.5542125 -0.5170087 -0.6523424 
0.45779696 -0.88490206 0.08585112 
0.14344852 -0.6413524 -0.75371724 
0.21053399 -0.2339293 -0.9491852 
0.49051985 -0.73970926 -0.46067393 
0.5630107 -0.38213858 -0.73279536 
-0.11797113 -0.9794778 -0.16341947 
-0.35616046 -0.89465487 -0.26970804 
-0.8379634 -0.24511631 0.48758098 
-0.7190112 -0.52856153 0.45127118 
0.19291374 -0.8418432 -0.5040679 
0.46101388 -0.682779 -0.5668148 
0.5278247 -0.5580379 -0.6403084 
0.3257436 -0.35961488 -0.874396 
0.88778937 -0.39810148 0.23096612 
0.38422552 -0.91774315 0.100588925 
0.6595713 -0.7266779 0.19210717 
0.4283745 -0.8957101 0.11915927 
0.2088248 -0.9448525 -0.25228205 
0.18126734 -0.60521704 -0.7751481 
-0.33544216 -0.33841693 -0.87917715 
0.49076235 0.52834845 -0.69282055 
0.5451443 0.19088642 -0.81632113 
0.138941 0.17375797 -0.97493774 
0.056118645 -0.4660028 -0.88300186 
0.381038 -0.77480483 -0.5044676 
0.21115355 -0.1965878 -0.9574797 
-0.5564988 -0.6423634 -0.52695197 
-0.6695321 -0.7202895 0.1814107 
0.57930064 -0.39927414 -0.7106272 
0.4778229 -0.72658354 -0.49372235 
0.548455 -0.55612063 -0.6244413 
0.22214687 -0.75534976 -0.6165205 
0.08471909 -0.9057661 -0.41522357 
-0.29300103 -0.8840411 -0.36417285 
0.23003356 -0.59407085 -0.77082056 
0.52482265 -0.65676755 -0.54149574 
0.07496372 -0.6502886 -0.75597966 
0.42841375 -0.6028999 -0.67303294 
-0.23765363 -0.88988477 -0.38939166 
0.48625523 -0.48825037 -0.7246844 
0.4048281 -0.23633364 -0.8833236 
0.31766182 -0.94504833 -0.077296086 
0.17980607 -0.9739812 0.13795115 
-0.60790414 -0.76745355 0.20363599 
-0.1017199 -0.990802 0.08924464 
-0.13225968 -0.84118575 -0.52432233 
-0.53090954 -0.66571844 -0.52436066 
0.19669595 -0.45129007 -0.87042975 
0.011217773 -0.6776218 -0.73532504 
-0.008048277 -0.83820915 -0.5452896 
0.3533718 0.34928453 -0.86782986 
0.6749538 -0.62344587 -0.39465502 
0.35250393 -0.8983398 -0.26215783 
-0.119885564 -0.8259338 -0.55087286 
0.61624455 -0.35109538 -0.70496434 
0.6663489 -0.5618712 -0.49018377 
-0.77152044 -0.6229841 0.12902366 
0.042424038 -0.3895976 -0.9200076 
-0.10909481 -0.8793239 -0.46355993 
0.30010554 -0.37935263 -0.87523043 
0.43184188 -0.19697155 -0.8801788 
0.7976784 -0.4476124 -0.4041689 
0.79326093 -0.53924143 -0.28276464 
0.9704954 -0.17510928 -0.1657575 
0.69700515 -0.558786 -0.4493798 
0.48263392 -0.42509344 -0.7657416 
0.4944146 -0.81678 -0.29736283 
0.5446113 -0.61167854 -0.57380134 
0.28341186 -0.94608617 0.15683967 
0.0031531516 0.0073211677 -0.99996823 
-0.38886222 -0.24376148 -0.88846296 
-0.4770125 -0.49257547 -0.7278933 
-0.07254539 -0.3772945 -0.9232475 
0.9385168 -0.045564342 -0.34221372 
0.326416 0.11178369 -0.93859315 
-0.2691244 0.5134224 -0.8148432 
0.12258567 -0.3113405 -0.94235873 
0.5295525 -0.42165336 -0.7360589 
0.37497607 -0.8400076 -0.39214826 
-0.31361082 -0.9461293 -0.080546215 
-0.26087394 -0.9642549 -0.046447285 
-0.42206335 -0.02088226 -0.9063259 
-0.5235027 0.33727893 -0.7824244 
0.05688609 -0.30817214 -0.94962835 
-0.16206302 -0.86633897 -0.47243258 
-0.0948253 0.020042881 -0.9952922 
0.11332369 -0.42770043 -0.8967887 
-0.014352327 -0.97103244 -0.23851654 
0.34675142 -0.78775585 -0.5091211 
0.1799528 -0.9681992 -0.17380269 
0.51347476 -0.8187346 -0.2569387 
0.076779574 -0.904257 -0.42002892 
0.0104869185 -0.9527898 0.3034497 
-0.5549736 -0.65731215 0.5098482 
-0.28244275 -0.88190466 -0.3774523 
-0.27564827 -0.85021114 -0.44850776 
0.053584147 -0.9693377 -0.239819 
0.39539078 -0.87519675 -0.27874163 
-0.6158854 -0.7827621 -0.089267574 
0.50116646 -0.68294257 0.53143364 
0.6201964 -0.68841046 0.3760951 
0.5281074 -0.68842036 0.49717206 
0.19381031 -0.5004291 -0.84380597 
0.24608618 -0.052950345 -0.9678005 
0.1875949 -0.45223925 -0.87194484 
-0.12704799 -0.89083326 -0.43620533 
0.5399708 -0.35284463 -0.76415455 
-0.05811221 -0.93682426 -0.34493944 
-0.3779302 -0.83457196 -0.4008222 
-0.4970556 -0.5426952 0.67706555 
-0.8784748 -0.45599136 0.14266732 
-0.61902547 -0.75796777 -0.2056509 
-0.40824106 -0.903828 -0.12819557 
-0.68639046 0.13721511 -0.71417105 
-0.28714818 -0.33488157 -0.89744097 
-0.18421625 0.3075017 -0.9335455 
-0.48988485 0.15672472 -0.85758406 
-0.19660455 0.44877893 -0.8717478 
-0.13905582 -0.1411433 -0.9801745 
-0.11044411 0.4422163 -0.8900825 
0.33047062 0.23525213 -0.9140271 
-0.18632415 0.35254505 -0.91705805 
0.35731077 -0.24221316 -0.9020321 
0.21631671 -0.3962645 -0.89229006 
-0.043414067 -0.8067665 -0.5892735 
-0.3165017 -0.5892956 -0.7433421 
-0.35893083 -0.8764193 -0.32102644 
0.14784384 -0.96676 -0.2086081 
0.27419633 -0.80223054 -0.5303231 
-0.47242028 -0.8793123 -0.06024198 
-0.77433616 -0.6171398 -0.13979228 
-0.5307485 -0.8055709 0.26336634 
-0.7470138 -0.6435628 -0.16672517 
-0.56822604 -0.4405463 -0.6950095 
-0.7156268 -0.22315481 -0.6618763 
-0.18372208 -0.28675634 -0.94022185 
-0.299247 -0.55855405 -0.7736077 
-0.30701202 -0.33637902 -0.89027685 
-0.23852527 -0.30875427 -0.92074776 
0.3987207 0.0037346105 -0.91706485 
-0.5597941 -0.5157471 -0.6485642 
0.11075418 -0.6981452 -0.70733786 
0.37897465 -0.6752723 -0.63276035 
0.31485894 0.36322805 -0.8768861 
0.45120707 0.70719475 -0.5443234 
-0.27624574 -0.17580543 -0.9448708 
-0.2597592 0.49896672 -0.8267754 
-0.6428495 0.20319347 -0.73855066 
0.104498014 -0.2145884 -0.9710983 
-0.0913773 -0.3488416 -0.93271637 
-0.091349185 -0.050169155 -0.9945544 
-0.35542783 0.014917177 -0.9345847 
0.017642053 -0.026478577 -0.9994938 
0.16306272 0.3965622 -0.9034097 
-0.06910494 0.096547335 -0.9929266 
-0.016056372 0.17219375 -0.98493224 
-0.82602483 0.28063327 -0.48880267 
-0.44261813 -0.779305 -0.44359085 
-0.49616528 -0.3223791 -0.8061587 
-0.13476014 -0.35895026 -0.92357695 
0.63085425 -0.32980692 -0.7023179 
-0.39698774 -0.38804656 -0.8317576 
-0.3915612 -0.5424255 -0.7432728 
-0.57724905 -0.806136 -0.13010898 
0.12692085 -0.6337674 -0.76303995 
0.79051876 -0.5502446 -0.26890722 
0.62334245 0.0075671207 -0.78191245 
0.7465767 -0.18615417 -0.63872516 
0.40283653 -0.9047544 -0.1383557 
-0.3701387 -0.9041952 -0.21313977 
-0.56566286 -0.77752733 -0.27473053 
-0.63516814 -0.22953679 -0.7374784 
-0.8238666 -0.2049732 -0.52842194 
-0.577774 -0.51765937 -0.63103575 
-0.81939197 0.56341726 -0.10563128 
-0.051987555 0.3057325 -0.9506971 
-0.49177352 -0.12471328 -0.86174566 
-0.45124924 -0.58750254 -0.67172545 
0.6623595 -0.24671084 -0.70739925 
0.005475107 -0.08317056 -0.99652034 
0.58934504 -0.800619 0.108082026 
0.76645124 -0.113960735 0.63211185 
0.96336174 -0.23638913 -0.1267065 
0.00014971007 -0.98952717 0.1443474 
-0.77752763 -0.29494348 -0.5553911 
-0.23092075 -0.68612885 -0.6898571 
-0.51210946 -0.6792325 -0.5257255 
-0.4353232 -0.2099458 -0.87545216 
-0.031866983 0.5490534 -0.83517957 
-0.04028366 -0.78340995 -0.62019855 
0.16486862 0.27377152 -0.94755876 
0.3628558 0.2186684 -0.9058255 
0.11438088 -0.25885794 -0.95911914 
0.2120174 0.16737996 -0.96282536 
-0.15838128 0.28473714 -0.94543123 
0.42089406 -0.29639336 -0.85732096 
0.24998866 -0.14495301 -0.9573371 
0.23674281 -0.50838006 -0.82795084 
0.81657654 -0.5391695 -0.20615329 
0.13250202 -0.9851052 -0.10959441 
0.069093704 0.319287 -0.94513595 
0.043828353 -0.5029818 -0.8631851 
-0.17896818 0.29717755 -0.93789977 
-0.03896617 0.27637053 -0.9602609 
0.39284143 -0.5882219 -0.70687383 
0.72765094 -0.19283871 -0.6582837 
0.39230806 -0.5870505 -0.7081427 
0.6956988 -0.04417357 -0.7169742 
-0.16973539 0.35510254 -0.91928893 
0.03237805 -0.65947056 -0.7510328 
0.00576347 -0.5870338 -0.80954194 
-0.4964228 -0.24266887 -0.83347243 
0.38924742 0.47843143 -0.7871403 
-0.13501929 -0.29301852 -0.9465252 
-0.38978192 -0.8015859 -0.45335433 
0.2317167 -0.70869154 -0.666381 
0.24477729 -0.5765165 -0.77955943 
-0.0666202 -0.49690875 -0.8652419 
0.3508229 -0.5036375 -0.78947616 
0.3381705 0.20913933 -0.917552 
0.13493285 0.23960474 -0.9614483 
0.5955745 -0.22945447 -0.76983225 
0.45828617 -0.3356844 -0.8229762 
0.73308975 -0.25244212 -0.63154763 
0.44934663 -0.7412094 -0.49869454 
0.83650696 -0.43010092 -0.33951327 
0.71457344 -0.6291603 -0.3058466 
0.52387655 -0.8350584 -0.16802034 
0.49176443 -0.50431806 -0.70981055 
-0.12113295 -0.15435514 -0.98056173 
0.3139615 0.12881523 -0.9406566 
0.07429926 0.70285493 -0.7074424 
-0.030842366 0.31847313 -0.9474301 
-0.4453977 0.16194856 -0.88056433 
0.009958715 -0.23197044 -0.97267187 
0.37524086 -0.5457237 -0.74925303 
0.48163208 -0.041728854 -0.87537956 
-0.11298705 0.7121858 -0.6928386 
-0.16753443 -0.1637178 -0.97217727 
0.6375892 -0.5127723 -0.5749301 
-0.1467646 -0.60546094 -0.7822259 
0.37343374 0.24047157 -0.89594686 
0.5883956 0.63710016 -0.4978896 
0.08176973 0.22407523 -0.9711355 
-0.5642307 0.28208363 -0.7759334 
-0.8463262 0.088713385 -0.52522564 
-0.7646125 -0.464482 -0.44679338 
-0.13297378 -0.37133 -0.9189298 
-0.23041473 -0.78181595 -0.57937294 
-0.07858477 0.029854305 -0.9964603 
-0.57353985 -0.2157619 -0.79025245 
0.14605796 -0.6927427 -0.7062399 
-0.18740608 -0.302605 -0.9345101 
-0.39595374 -0.16934708 -0.90252 
-0.0015835215 -0.47071815 -0.8822822 
0.21023354 -0.31270438 -0.92629254 
0.32652092 -0.9373075 -0.121815085 
-0.1640956 -0.25721115 -0.9523209 
-0.10677436 -0.3703619 -0.9227304 
0.036870204 -0.30847523 -0.9505176 
0.5678399 -0.53943956 -0.6217417 
0.26603726 -0.568723 -0.7783177 
0.06330943 -0.87148833 -0.48631287 
-0.30233774 -0.9444077 0.12917458 
-0.6066492 -0.72274905 -0.331075 
0.421093 -0.6866169 -0.59265345 
0.6189161 0.14813851 -0.77136105 
-0.12689307 0.39532992 -0.90973204 
-0.300711 -0.2375004 -0.9236701 
0.8386335 0.26981077 -0.47317678 
0.63509953 -0.7707981 -0.050188776 
0.49880624 -0.86153346 -0.09461726 
0.22232471 -0.925321 -0.307169 
0.12288299 -0.6577621 -0.74313444 
0.2282173 -0.22682253 -0.9468202 
0.5814518 0.16352257 -0.7969781 
0.12951854 -0.0007092396 -0.9915768 
0.0038382877 0.12892283 -0.9916472 
-0.5627729 -0.22570159 -0.79520154 
-0.053893223 -0.5464059 -0.83578473 
0.21078996 -0.027300993 -0.9771501 
0.37456012 0.00867657 -0.92716205 
0.28433982 -0.17551789 -0.9425202 
0.54220414 -0.34689197 -0.7652977 
0.12238245 -0.4236817 -0.8975056 
-0.06232232 -0.5235778 -0.84969544 
0.5418989 -0.8368665 -0.07746035 
-0.087616034 -0.8228199 -0.56150776 
-0.42065388 -0.78405404 -0.4564097 
-0.6295906 -0.3702289 -0.683042 
0.07087883 -0.3453304 -0.9358008 
0.13738516 -0.5471885 -0.8256574 
-0.66081274 -0.10687761 -0.7429023 
-0.34909442 -0.4090405 -0.84310085 
-0.5369281 -0.20300435 -0.81883913 
0.3905524 -0.5773097 -0.71706516 
0.67478025 -0.59416527 -0.43776628 
0.09121396 -0.9944469 0.05249412 
-0.12222695 -0.96491265 0.2323882 
0.47899285 -0.8469978 -0.23056605 
-0.15929462 -0.8917331 -0.4236005 
-0.39004022 -0.57863706 -0.7162736 
-0.36389634 -0.59325737 -0.71807045 
-0.063155 -0.60141724 -0.79643506 
0.56647253 -0.21191402 -0.7963675 
0.22444016 -0.08756194 -0.970546 
-0.50764716 0.41448689 -0.7553113 
0.36892807 -0.022430675 -0.92918724 
0.10443246 -0.7130473 -0.6932946 
0.57979465 -0.5930733 -0.5586611 
0.80636495 0.30840176 -0.5046425 
0.5088291 -0.11926266 -0.8525664 
0.09659702 -0.9896097 -0.10649783 
-0.13275948 -0.69451994 -0.70711887 
0.07282447 -0.8643655 -0.49756294 
-0.082842685 -0.054832492 -0.9950531 
0.37897643 -0.29053116 -0.8786174 
0.41141897 -0.72954106 -0.54635555 
0.5183785 -0.8023903 -0.2957255 
0.40803128 -0.4275962 -0.80664253 
0.53151226 -0.79941165 -0.28006375 
0.8818189 -0.030412482 -0.47060657 
0.99918795 -0.03699361 0.01596652 
0.55348736 0.08621018 0.8283837 
0.3281787 -0.5285746 0.7828842 
-0.97682756 -0.1537279 -0.14891478 
-0.5188988 -0.6308384 -0.57687694 
0.11989743 -0.1137568 -0.9862475 
0.41927522 -0.31311387 -0.85215497 
0.39225644 -0.106322765 -0.9136906 
0.594394 0.2488787 -0.76469284 
0.01475231 -0.08617137 -0.9961711 
-0.3938013 0.24297439 -0.886501 
-0.20394976 -0.20611301 -0.95703816 
0.21752761 -0.95082724 -0.2204751 
-0.033602986 -0.8936214 -0.4475621 
-0.33962741 -0.81727195 -0.4655319 
-0.54740715 -0.37512445 -0.7480823 
-0.442745 -0.45960838 -0.7698942 
-0.76708406 -0.519136 -0.37693486 
-0.027756989 -0.76047766 -0.64877063 
-0.32047677 0.30004796 -0.8984798 
-0.45833674 0.2109305 -0.8633862 
-0.14218894 -0.13010374 -0.9812519 
-0.14757979 -0.5563767 -0.8177195 
0.4626961 -0.8752536 -0.14086686 
0.3958358 -0.77416533 -0.49394542 
0.6094746 -0.784521 -0.11431391 
0.6164625 -0.67073566 -0.41241705 
0.39138928 -0.8763037 0.28090286 
0.044642895 -0.4123586 -0.90992725 
0.42572546 -0.7346252 -0.5282837 
0.17406741 -0.68232596 -0.7100224 
-0.10681905 -0.51993525 -0.8475005 
-0.12135564 -0.8666113 -0.48400196 
0.17886151 -0.97056586 -0.16127825 
0.2556487 -0.95927244 0.12016776 
-0.16942663 -0.9848805 -0.036127344 
-0.70043236 -0.59248984 0.39793274 
-0.54490685 0.25902578 -0.79748493 
-0.52506703 -0.30054086 -0.7962285 
0.2532714 -0.34189796 -0.90496373 
0.49653786 -0.43612614 -0.75049603 
-0.29759306 -0.69614047 -0.6533199 
-0.18190013 -0.5045382 -0.8440104 
-0.21038215 -0.9368563 -0.27935597 
-0.50982994 -0.8587547 0.051126286 
-0.5162297 -0.6560308 -0.550573 
-0.37754723 -0.067405805 -0.9235338 
-0.88103795 -0.08492027 -0.4653609 
-0.38230968 0.035739984 -0.9233429 
-0.5335731 -0.11165177 -0.8383518 
-0.6114404 -0.12491821 -0.78136814 
-0.46349207 0.66379267 -0.58698756 
-0.08999926 0.2986508 -0.9501094 
-0.14645481 0.58853984 -0.7950924 
0.2724129 -0.13190335 -0.9530964 
0.11606359 0.4270964 -0.8967262 
0.72195333 -0.09468998 -0.6854322 
0.6512578 -0.1575123 -0.7423296 
0.68387103 -0.31832147 -0.6564997 
0.37691763 -0.22123808 -0.89943695 
-0.5747455 -0.19135831 -0.7956442 
-0.18776976 -0.7756496 -0.6025864 
-0.79270434 -0.3247472 -0.5159062 
-0.6327748 -0.7698773 0.08297648 
-0.8033894 -0.3908002 -0.4492668 
-0.7957832 -0.54589695 0.26215574 
-0.17003633 -0.6103033 -0.7737039 
-0.8008123 -0.5575781 -0.21864697 
-0.65613866 0.15230112 -0.739112 
-0.8986298 0.109992884 -0.42469546 
-0.81726193 -0.5172338 -0.2540711 
-0.23869127 -0.29313555 -0.925796 
0.09488446 -0.7203735 -0.68706554 
0.32619324 -0.27539718 -0.9042977 
0.28836992 -0.3887428 -0.8750553 
-0.52835524 -0.4154167 -0.7404524 
0.27877158 -0.51677966 -0.80945987 