# OOMMF: rectangular mesh v1.0
# Segment count: 1
# Begin: Segment
# Begin: Header
# Desc: Time (s) :  6.820000000000015e-07
# Title: m
# meshtype: rectangular
# meshunit: m
# xbase: 2e-09
# ybase: 2e-09
# zbase: 5e-10
# xstepsize: 4e-09
# ystepsize: 4e-09
# zstepsize: 1e-09
# xmin: 0
# ymin: 0
# zmin: 0
# xmax: 1.024e-06
# ymax: 1.024e-06
# zmax: 1e-09
# xnodes: 256
# ynodes: 256
# znodes: 1
# ValueRangeMinMag: 1e-08
# ValueRangeMaxMag: 1
# valueunit: 
# valuemultiplier: 1
# End: Header
# Begin: Data Text
-0.9601412 -0.2644244 0.09060134 
-0.056789573 -0.8235971 -0.5643252 
0.29083845 -0.6703801 -0.68264455 
-0.6917011 -0.5542554 -0.46298015 
-0.89197487 -0.4308078 -0.13706073 
-0.48033533 -0.41829515 -0.7709133 
-0.43655953 -0.73361444 -0.52079326 
-0.18269289 0.45913824 -0.8693764 
0.09154024 0.31442487 -0.9448585 
-0.32720444 0.14662118 -0.9335093 
0.039352156 -0.407511 -0.9123521 
0.20931326 -0.5616514 -0.8004597 
0.2748658 -0.71525306 -0.6425433 
0.18983962 0.12421257 -0.97392625 
0.36410695 -0.9228859 0.12533127 
0.5000767 -0.6244268 -0.60001206 
0.08723902 -0.92825866 0.36155957 
0.15742174 -0.9722815 0.17287938 
0.22677931 -0.77450866 -0.5905147 
0.38612136 -0.3718722 -0.8441691 
0.60326123 -0.57259077 -0.5551718 
0.26316568 -0.68109703 -0.6832647 
-0.27039596 -0.0927891 -0.95826733 
0.6089761 -0.45095858 -0.65252167 
0.21859576 0.003804446 -0.9758081 
-0.2947543 -0.61399317 -0.7322106 
0.26351714 -0.44591022 -0.8554081 
0.4607637 -0.88357097 0.08366231 
0.16819699 -0.45371225 -0.8751315 
-0.26901916 -0.46151555 -0.8453592 
-0.57626176 -0.5056767 -0.64203864 
-0.71474093 -0.12726101 -0.6877136 
-0.11835475 0.45963168 -0.8801879 
-0.67446476 0.7382227 0.011161236 
-0.9880125 -0.08345967 0.12986854 
-0.62186164 -0.6525171 -0.43302387 
-0.45540392 -0.8074595 -0.37498868 
-0.21353129 -0.27637595 -0.9370277 
0.24313325 -0.81951994 -0.5189155 
-0.48890123 -0.55439883 -0.6735114 
-0.23461765 -0.8756888 -0.42204735 
-0.031315167 -0.6152991 -0.78767157 
-0.38628307 -0.86364937 -0.32387543 
-0.80926067 -0.5826156 -0.07520874 
-0.6126752 -0.7833414 0.10490727 
0.0707426 -0.4989425 -0.86374307 
-0.28227827 0.20969008 -0.9361352 
0.1577693 -0.285642 -0.94526064 
-0.09700943 -0.34039983 -0.93526316 
-0.25825343 -0.8089313 -0.52814335 
0.2568872 -0.9545857 -0.15091449 
-0.2464574 -0.5579548 -0.79243004 
0.6230056 -0.50117195 -0.6005754 
0.9841032 -0.17134471 0.046711408 
0.6689095 -0.4610631 0.58307886 
0.61264986 -0.6683698 0.4218318 
-0.24552642 -0.5966203 0.7640426 
-0.5899229 -0.80146515 0.098206736 
-0.7694781 -0.59172773 -0.24033661 
0.043833673 -0.6044588 -0.7954296 
0.09490969 -0.07380219 -0.9927465 
-0.25980055 -0.83909374 -0.47793883 
-0.17554012 -0.55411935 -0.81371826 
-0.12453253 -0.9811298 -0.14790529 
-0.40361926 -0.9148978 -0.0073097534 
-0.46979955 -0.7609865 0.44742382 
-0.6890879 -0.72435915 -0.021486405 
0.39177248 -0.507729 -0.76728463 
0.57127434 -0.67146003 -0.47200334 
0.24810226 -0.94879526 0.19553222 
-0.26897618 -0.7720021 -0.57590336 
-0.08707393 -0.4615443 -0.88283354 
0.32259107 0.04797089 -0.94532204 
-0.040275265 0.90211034 -0.42962202 
-0.53925 -0.3613781 -0.7606677 
-0.30420345 -0.50812083 -0.80577505 
0.12084838 -0.7681884 -0.62871474 
0.3677786 -0.38896775 -0.84465563 
0.037368532 -0.66574776 -0.74524057 
0.2591254 -0.25654343 -0.9311496 
0.2373591 -0.14855842 -0.9599953 
0.5306962 0.043399263 -0.8464504 
-0.1483858 -0.0065477006 -0.98890793 
0.120484374 -0.54052496 -0.8326562 
0.6559031 -0.6090377 -0.44594213 
0.35377455 -0.66314924 -0.6596035 
0.33871132 -0.19884422 -0.91963893 
0.47075596 -0.3769153 -0.7976991 
-0.13921614 -0.9048358 -0.40235692 
0.040520012 -0.9691628 -0.24306715 
-0.3237023 -0.78690404 -0.52535605 
-0.14569712 -0.977403 0.15315302 
0.4821342 -0.8379587 -0.25567904 
0.011401778 -0.21943521 -0.97556055 
-0.42488948 -0.13547184 -0.89505106 
0.29734915 -0.08139573 -0.951293 
0.9673609 -0.16011742 -0.19640602 
0.25312346 -0.7811273 0.5707616 
-0.7750025 -0.02703613 0.6313797 
-0.34284714 -0.8535578 -0.39229468 
-0.5093767 0.21089141 -0.83430225 
-0.20291619 0.19569239 -0.9594423 
0.23616093 0.041711584 -0.97081834 
0.0914143 -0.5558706 -0.8262272 
0.33050466 -0.5779199 -0.7461738 
0.512344 -0.5196977 -0.68367976 
0.27658516 -0.81162304 -0.51455694 
0.1425433 -0.47948343 -0.86589664 
-0.003953281 -0.20266715 -0.97923976 
0.3833347 0.592058 -0.70888776 
-0.43205678 -0.7189843 -0.54441583 
-0.20605496 -0.61794776 -0.75873715 
-0.88565034 -0.22576068 -0.405778 
-0.29218593 0.3302479 -0.897532 
0.21373218 -0.5953539 -0.7745143 
-0.16078578 -0.58776325 -0.79289496 
-0.50007707 -0.614423 -0.61025184 
-0.24446014 -0.65251005 -0.7172656 
-0.8550039 -0.38633177 -0.34600037 
0.032472454 -0.17359614 -0.9842815 
0.19159597 -0.4377952 -0.87842274 
0.2617081 -0.057220433 -0.9634495 
0.97472507 0.21419463 -0.06349682 
0.72333026 -0.6627709 0.19372192 
0.8713368 -0.035690315 -0.48938572 
0.34688723 -0.52300054 -0.7785498 
-0.27732444 -0.91187644 -0.30260956 
-0.3342934 -0.36387405 -0.86939263 
-0.08899848 -0.48571676 -0.8695737 
0.23713003 -0.65937 -0.71344286 
-0.13427146 -0.7588648 -0.63725626 
0.08793886 -0.9816436 -0.16924138 
0.6340685 -0.7701 -0.07002393 
0.27994794 -0.92993516 -0.23843202 
-0.36628497 -0.81619394 0.44683653 
-0.27997574 -0.93944114 0.19764604 
0.20623145 -0.96748155 -0.14645216 
0.59593624 -0.6301036 -0.49782482 
0.30861193 -0.4133933 -0.856659 
-0.21308614 -0.9452463 -0.24719161 
-0.10202979 -0.9631463 0.24887556 
0.5248116 -0.85034186 -0.038619377 
0.4529066 -0.65407825 -0.60585254 
0.4547451 -0.605124 -0.65347683 
0.10060746 -0.7632544 -0.63821703 
0.38624468 -0.89156306 0.23649584 
0.7647044 -0.6331093 0.119998805 
0.6852928 -0.34230086 0.6428095 
0.72705394 -0.68650365 0.010264755 
0.94160324 -0.33599687 -0.022123747 
0.5184264 -0.64835554 0.5575565 
0.052579965 -0.6995636 0.7126332 
-0.3366122 -0.438481 0.83332264 
-0.30545685 -0.84690565 -0.4352551 
-0.28253773 -0.40572867 -0.8692277 
-0.2685211 -0.21726452 -0.9384523 
-0.67836934 0.21047363 -0.70392895 
-0.022041678 -0.5320814 -0.8464062 
0.17634699 -0.48074588 -0.85894424 
0.12725592 -0.9622288 -0.24066943 
-0.3701793 -0.91619706 -0.153461 
-0.40685976 -0.3268335 -0.85302114 
0.5715406 -0.8200958 0.028003464 
0.34865823 -0.93032664 0.11371001 
0.3881461 -0.40541384 -0.8276366 
-0.48936442 -0.6606158 -0.56930596 
0.60269487 -0.5915711 -0.5355396 
0.47639093 -0.071235284 -0.87634313 
-0.0030110914 -0.5555604 -0.8314707 
-0.8707509 -0.25467122 -0.42063707 
-0.99692845 -0.010754687 0.077575944 
-0.4032248 -0.9089753 -0.10570537 
0.30755207 -0.9014886 -0.30451623 
-0.29948425 -0.7933063 -0.5300702 
0.12950078 -0.79559326 -0.59182864 
0.3305895 -0.7345073 -0.59262943 
-0.032347128 -0.7748229 0.6313503 
-0.47206157 0.29600352 0.8303853 
-0.3009164 -0.8429019 0.44605574 
-0.7654024 -0.05208985 0.6414406 
-0.09507747 -0.875186 -0.474352 
-0.17270115 -0.9298781 -0.32480916 
-0.19793923 -0.693558 -0.6926741 
-0.44328192 -0.60376173 -0.6625504 
-0.059520062 -0.5185313 -0.85298455 
0.20280078 -0.10138484 -0.97395736 
-0.2614962 -0.5388562 -0.80078334 
-0.15159914 -0.83006907 -0.5366592 
-0.30971605 -0.94073755 -0.13816245 
-0.33105817 0.071458414 -0.9409008 
0.050598603 0.25640306 -0.96524465 
0.12702061 0.33575964 -0.9333442 
0.5946815 -0.014329857 -0.8038337 
0.6619472 -0.38069427 -0.64567626 
0.7329069 -0.37492433 -0.5676966 
0.8018821 -0.48721033 -0.34584862 
-0.36869332 -0.34517014 0.8630892 
-0.8659195 -0.44369578 -0.23090638 
-0.87004894 -0.22023974 -0.4410322 
-0.5173021 -0.5109491 -0.68653446 
-0.08891379 -0.599022 -0.7957807 
0.38043132 -0.9233364 -0.052173387 
0.022236524 -0.8386795 0.5441712 
-0.43497592 -0.8699527 0.23233268 
-0.8434037 -0.53455216 0.05407652 
-0.78512734 -0.43777826 -0.43809283 
-0.69244623 -0.70286965 -0.16276556 
-0.55214125 -0.37959695 -0.7423249 
-0.17677712 0.3834066 -0.90650386 
-0.17069724 0.060867842 -0.9834417 
0.15471189 0.26205745 -0.9525704 
0.11095959 -0.26942846 -0.9566067 
0.08253563 -0.24499556 -0.9660047 
-0.8445777 -0.095529556 -0.52684206 
-0.76724213 0.39748573 -0.50333375 
-0.42222908 0.035981912 -0.9057747 
-0.21774796 -0.24535936 -0.94466114 
0.56631905 -0.17449556 -0.8055024 
0.15329342 -0.81557 -0.5579844 
-0.6756436 -0.3190773 -0.6646017 
-0.7069784 -0.065348886 -0.70420957 
0.6342525 0.120312884 -0.76370716 
0.3645131 0.18386827 -0.9128651 
0.45534188 0.23912922 -0.85760194 
0.90611064 0.14651859 -0.39685753 
0.014398551 -0.4256047 -0.9047947 
0.5398748 -0.16689813 -0.82503355 
0.97541016 -0.2140409 0.052549742 
0.63836616 -0.7184175 -0.2763422 
0.93580824 -0.29430133 -0.19403557 
0.922103 0.273009 -0.27421203 
0.21808863 -0.28124967 -0.9345245 
0.357825 0.18766701 -0.91473633 
-0.6777246 0.10645269 -0.7275694 
-0.9200283 -0.015251089 -0.39155522 
-0.50332195 0.23344298 -0.8319685 
-0.59160805 -0.094724916 -0.8006418 
-0.3043066 -0.08346573 -0.9489104 
0.14422387 -0.7592367 -0.6346332 
-0.14264354 -0.778266 -0.61151844 
-0.24775445 -0.9581386 -0.14348638 
-0.7606577 -0.63572997 0.13132852 
-0.57846117 -0.36358285 -0.7301988 
-0.19020276 -0.32747886 -0.9255164 
-0.10674267 -0.43750605 -0.89285743 
-0.5467563 -0.1521318 -0.823355 
-0.44649258 -0.11403322 -0.88749135 
0.31243563 -0.75425637 -0.57747835 
0.73722243 -0.45623097 -0.49835375 
0.35395655 -0.88128865 -0.31312168 
0.3145294 -0.18461494 -0.93112224 
-0.05377369 0.24354836 -0.9683969 
0.37762845 -0.62667465 -0.68167126 
0.8514291 -0.50499266 -0.14160098 
0.62295693 -0.26572877 -0.73573977 
-0.051031217 0.55047137 -0.83329296 
-0.72045344 -0.24628893 -0.64829683 
0.259141 -0.515417 -0.8168179 
-0.22535384 -0.29606166 -0.9282043 
-0.319329 -0.37080488 -0.8720854 
-0.02555328 -0.5587708 -0.8289285 
-0.03271501 -0.35599145 -0.93391645 
-0.15698864 -0.71392375 -0.6823984 
-0.45975932 0.2804012 -0.84261304 
0.14054522 0.32957724 -0.9336091 
0.19486408 0.63548344 -0.7471204 
0.018688556 -0.16448855 -0.986202 
0.42808762 -0.3066264 -0.85013014 
0.04360912 -0.11888602 -0.99194986 
0.37867394 -0.09173005 -0.9209733 
0.08510818 -0.99486077 -0.054851454 
0.072239414 -0.9246642 -0.3738684 
0.3357661 -0.9335503 -0.12547915 
0.034228563 -0.6289996 -0.77665174 
0.5106227 -0.5925871 -0.62298083 
0.45176756 -0.26845753 -0.8507859 
0.06050343 -0.32237458 -0.94467664 
0.51652145 0.6527097 -0.55423427 
-0.17000622 0.4635893 -0.86958784 
-0.07513078 0.04828077 -0.9960043 
-0.21352707 -0.4245286 -0.879876 
-0.6689093 -0.27599803 -0.6902069 
-0.6392667 0.15945289 -0.7522719 
-0.009442657 -0.7761415 -0.63048816 
-0.52615845 -0.42666316 -0.73560584 
-0.41577888 -0.14892392 -0.8971899 
-0.31756786 -0.38349962 -0.8672247 
-0.7451423 0.37093717 -0.55422807 
-0.113326505 -0.2795887 -0.9534083 
-0.5924607 0.4010492 -0.69867724 
-0.7606796 -0.40895864 -0.5041028 
-0.14190905 -0.61972296 -0.7718842 
-0.09361608 -0.76771766 -0.633913 
0.019720636 -0.15228318 -0.9881402 
0.041949145 -0.78257155 -0.6211459 
-0.10465969 -0.6750443 -0.7303161 
-0.5415461 -0.13156308 -0.83031267 
0.37463048 -0.5424244 -0.75194937 
0.14974216 -0.6293463 -0.7625619 
0.22046623 -0.9519137 -0.21273181 
-0.503749 -0.8637176 -0.0151290465 
-0.17172709 -0.40418175 -0.89841366 
0.6140272 -0.22446617 -0.7566938 
0.4829643 -0.2325499 -0.8441955 
0.34384745 -0.55765855 -0.75550383 
0.12883654 -0.97595936 -0.17579679 
0.30551392 -0.8612968 0.40599155 
0.45335177 -0.85514975 -0.25137863 
0.6275482 -0.76183045 -0.16061656 
0.7032552 -0.6926614 0.16016364 
0.02536544 -0.24037373 0.970349 
0.23967306 -0.7855304 0.57052517 
0.2534291 -0.96478796 -0.07041254 
-0.4577962 -0.7641323 -0.45444974 
-0.15143839 -0.2750837 -0.94941854 
-0.31999186 0.5238378 -0.7894298 
-0.3494195 -0.38380465 -0.8547515 
-0.10193853 -0.68030024 -0.72581 
-0.3693861 -0.3381046 -0.8655861 
-0.16923577 -0.67225397 -0.72071767 
-0.54818875 -0.5255761 -0.65058345 
-0.3608515 -0.44574508 -0.81920546 
-0.42473584 -0.63945717 -0.6408542 
0.039899208 0.682264 -0.7300164 
-0.26961017 -0.24058565 -0.93243176 
0.94424003 -0.018502502 -0.32873762 
0.71201503 -0.025170157 -0.701713 
0.025695207 -0.2602334 -0.9652038 
0.63424337 -0.09515702 -0.7672552 
0.08185452 0.12911241 -0.9882459 
-0.41769543 -0.69974416 -0.579559 
0.40638566 -0.20555475 -0.89027977 
-0.025276301 -0.25172833 -0.9674678 
-0.30389607 -0.08316871 -0.94906807 
-0.37279186 -0.02693308 -0.9275241 
0.45928857 -0.15134269 -0.8752996 
-0.19447315 0.055842847 -0.979317 
0.48386765 0.028525239 -0.8746762 
0.53168106 -0.28489843 -0.797589 
-0.19230624 0.12268035 -0.9736365 
-0.41019985 -0.5148528 -0.75277007 
0.33178315 -0.5940637 -0.73280853 
0.56527 -0.5692933 -0.59697145 
0.09560299 -0.36109304 -0.92761624 
0.044687517 -0.92080474 -0.3874554 
0.12300005 -0.26716128 -0.95576984 
-0.5613934 -0.80910254 -0.1737547 
-0.49797648 -0.6523551 -0.57136 
0.08279855 -0.5845739 -0.8071045 
0.4377599 0.2614166 -0.8602486 
0.03192057 -0.4694658 -0.8823736 
0.4465832 -0.89223903 0.06688124 
0.16735761 -0.9454761 0.27940354 
-0.28741324 -0.18795256 0.9391845 
-0.39414465 -0.52099913 0.7571063 
-0.61949474 -0.7655028 -0.17387295 
-0.99203175 -0.016046425 -0.12496216 
-0.44273746 0.4781761 -0.7585059 
-0.53234756 -0.1006096 -0.8405259 
-0.42059118 0.07082253 -0.9044817 
0.29900375 0.33894318 -0.8920282 
0.040936615 -0.055280123 -0.99763143 
-0.50051975 -0.12543698 -0.8565895 
-0.3223704 0.30079827 -0.897551 
0.1860009 0.45730883 -0.8696393 
-0.04865182 0.66199124 -0.747931 
-0.08805703 -0.40037778 -0.91210943 
0.57898134 -0.40759826 -0.7061475 
0.25521725 -0.308166 -0.91645944 
0.69673955 -0.28767002 -0.657115 
-0.31982532 0.06732206 -0.94508183 
0.3396411 -0.7584489 -0.55623674 
0.010503228 -0.86658067 -0.49892652 
0.22014077 -0.76696575 -0.602745 
0.06277734 -0.28596228 -0.9561823 
0.5402016 -0.052096613 -0.8399216 
0.76704866 -0.12841052 -0.6286073 
0.8763994 -0.19662641 -0.43961596 
0.94555086 -0.017496556 -0.32500368 
0.5759261 -0.3993266 -0.7133354 
0.15513496 -0.8152851 -0.55789196 
0.3112365 -0.44740665 -0.83842653 
0.47050834 -0.47694424 -0.74239224 
0.07417029 -0.24487403 -0.96671385 
0.35810205 -0.47981346 -0.8009632 
0.6575154 -0.68277156 -0.3185853 
-0.28065065 -0.4605727 -0.8420855 
-0.046200875 -0.79225296 -0.60844123 
0.47337118 -0.50988674 -0.7182864 
-0.09654689 -0.79164976 -0.6032988 
-0.17950448 -0.80300754 0.5682932 
0.0769257 -0.945892 0.3152316 
-0.2903675 -0.6977741 -0.65482676 
-0.17825593 -0.6024868 -0.7779682 
0.18792701 -0.88555896 -0.42481622 
-0.1702482 -0.9491941 -0.26466244 
-0.3489931 -0.8955851 -0.2759191 
-0.1650193 -0.7098763 -0.6847221 
0.4339543 -0.80426794 -0.40600118 
0.45809385 -0.7680985 -0.44740885 
0.17648576 -0.20818213 -0.9620359 
0.6428236 -0.6447366 -0.4136336 
0.604173 -0.79075575 0.09838989 
0.937144 -0.17150207 0.30388877 
0.90501714 -0.34873703 0.24357046 
0.8053564 -0.5922399 0.025556294 
0.32500562 -0.67630345 0.6610484 
-0.33745915 -0.54323345 0.76877755 
0.30172834 -0.9459669 0.11877161 
0.0012726339 -0.729423 -0.6840619 
0.15313917 -0.27210844 -0.9500029 
0.031075237 -0.29937455 -0.95362955 
-0.21862236 -0.4356565 -0.87315965 
-0.48276025 -0.38394725 -0.78710043 
-0.0061399117 -0.88715804 -0.46142498 
0.08247377 -0.6042971 -0.7924791 
0.54757416 -0.53581 -0.6427055 
-0.30203703 -0.56436074 -0.7682908 
0.7152567 -0.6283714 -0.3058714 
0.4665463 -0.7374478 -0.48837006 
0.48853776 -0.15794027 -0.85812926 
0.1784184 -0.60322857 -0.7773559 
0.02809972 -0.7054782 -0.7081744 
0.35557196 -0.6751344 -0.6463452 
0.33177102 -0.64557064 -0.68787104 
-0.21557824 -0.97647053 -0.0056112884 
-0.40216577 -0.9006456 -0.16462177 
-0.0040382575 -0.9650386 -0.26207688 
-0.23742795 -0.9369333 -0.25648415 
-0.24182764 -0.83857787 -0.48816645 
-0.032488916 -0.7720047 -0.63478595 
-0.54074633 -0.66573656 -0.5141871 
-0.59058917 -0.7368732 0.32897177 
-0.9516544 -0.23732188 -0.19501871 
-0.10859812 -0.56441873 -0.8183142 
-0.715383 -0.6547204 0.24406637 
-0.47904637 -0.8671499 -0.13625616 
-0.4834006 -0.8711258 -0.0863927 
-0.4754547 -0.8401921 -0.2608065 
-0.33357945 0.15849923 -0.9293023 
0.47061172 -0.18010037 -0.8637641 
-0.41783765 0.35697284 -0.83545333 
0.47272986 0.32207888 -0.8202388 
0.18718623 -0.46992338 -0.8626317 
-0.7957713 -0.5074389 -0.33053586 
-0.20423739 0.13536647 -0.9695169 
0.28245378 0.09429594 -0.95463514 
0.25491893 -0.5304998 -0.8084468 
-0.61054593 0.24747442 -0.75232315 
-0.22554025 -0.13433035 -0.96492845 
0.80158854 -0.1806356 -0.5699357 
0.17479828 -0.6042469 -0.77738744 
-0.24614696 -0.9394973 -0.23823658 
-0.20961842 -0.20698546 -0.955624 
-0.6145887 0.13016126 -0.77803534 
-0.6801121 0.057456765 -0.73085314 
-0.23885082 -0.6099301 -0.7556028 
0.63605815 -0.5891009 -0.49838752 
0.41686508 -0.773106 -0.47804895 
0.12246409 -0.99157155 0.04229082 
-0.5822516 -0.8059151 0.10716256 
-0.7685346 -0.5333223 -0.35344294 
-0.20907925 -0.61251336 -0.76230794 
-0.42863604 -0.18740498 -0.88382715 
-0.27407208 -0.63603246 -0.721351 
-0.23336752 -0.74445385 -0.62556225 
0.38375735 0.06270736 -0.92130244 
0.6911254 -0.2201652 -0.68838435 
-0.26951444 0.22051217 -0.93740934 
-0.62113744 -0.4151303 -0.6647219 
0.09897355 -0.48101228 -0.8711093 
-0.16306527 -0.4674014 -0.8688761 
0.009493249 -0.34377983 -0.9390024 
0.5805759 -0.37064898 -0.72494894 
-0.44377667 -0.31760243 -0.83796847 
0.13874227 0.65029025 -0.74690914 
0.2963726 0.6764113 -0.6742635 
-0.043906387 0.18291962 -0.98214704 
0.51462007 0.4216993 -0.7465493 
0.694361 0.42141855 -0.58332604 
0.63071483 0.7593677 -0.15987335 
0.9926071 -0.039015584 -0.1149306 
0.9637331 0.2606032 0.05748669 
0.9428113 0.11235387 -0.31382084 
0.90964854 -0.25019374 -0.33157593 
0.5374446 -0.6825201 -0.4952977 
0.6445075 0.17811136 -0.74356335 
-0.027224423 -0.19029883 -0.9813487 
-0.0005770867 0.3333262 -0.9428114 
-0.28772813 0.8939589 -0.34358406 
-0.52115726 0.32320416 -0.7898952 
-0.30279127 0.32034126 -0.8976074 
0.09890474 -0.07615841 -0.9921783 
0.019160409 0.32136342 -0.94676214 
0.103017814 -0.38653663 -0.91650254 
0.29715464 -0.6578712 -0.69202936 
-0.16284095 -0.71874833 -0.67593175 
-0.6167333 -0.7367346 -0.27724025 
-0.04913513 -0.5078294 -0.86005527 
0.25559422 -0.096084036 -0.9619976 
0.087857835 -0.27137792 -0.95845455 
-0.11769766 -0.12468065 -0.9851914 
-0.23226717 -0.26938236 -0.9346042 
0.7121385 -0.4912376 -0.50154215 
0.71788245 -0.26718882 -0.64284915 
-0.25808418 -0.5065895 -0.82265407 
0.21835811 -0.6373111 -0.73902255 
0.40611538 -0.16817358 -0.8982138 
0.11174265 -0.5568194 -0.82308304 
0.17940949 -0.28148076 -0.9426457 
0.47452486 -0.23895055 -0.84718883 
0.30803487 0.48980007 -0.81560427 
-0.604634 -0.16417196 -0.77940065 
-0.5029765 -0.096869424 -0.8588545 
-0.7757499 -0.10437157 -0.6223494 
0.12756218 -0.7375185 -0.6631699 
0.22808748 -0.8690953 -0.43891844 
-0.3056826 -0.8502668 -0.42849106 
0.4336667 -0.370385 -0.8214305 
0.13885319 -0.20342644 -0.9691943 
0.2938504 0.30339277 -0.90642416 
-0.004670503 -0.21437097 -0.9767412 
0.118068695 0.18050598 -0.97646177 
0.40799072 -0.016935907 -0.9128291 
-0.33766353 -0.44589376 -0.82895243 
0.38169032 -0.5742425 -0.7242639 
-0.10920647 -0.81380594 -0.5707836 
-0.47567207 -0.7003956 -0.5321487 
-0.51389885 -0.16676524 -0.8414852 
-0.36929226 -0.3967487 -0.8403653 
0.427084 -0.65751684 -0.620702 
0.35591772 -0.057618774 -0.93273944 
0.10355836 -0.37104407 -0.9228229 
-0.16556361 -0.3485257 -0.9225609 
-0.067614876 0.4436284 -0.8936567 
-0.15936245 0.31801024 -0.93459785 
-0.055692166 -0.76593363 -0.640503 
-0.07304475 -0.008058654 -0.9972961 
-0.19916679 -0.22985159 -0.95262843 
-0.32030404 -0.14901245 -0.93552166 
0.43190664 -0.29965895 -0.8506828 
-0.25398684 -0.45511085 -0.85344297 
-0.3796046 0.3020729 -0.87444407 
-0.22855261 -0.16735649 -0.95903885 
-0.11215809 -0.509066 -0.85338885 
0.44760934 -0.6572854 -0.60631835 
0.24188335 -0.7882682 -0.56579655 
0.38980445 -0.49482265 -0.77666146 
0.14642905 -0.9408233 -0.3056305 
0.2805411 -0.39069417 -0.8767296 
0.04599939 -0.100447156 -0.99387854 
-0.072193414 -0.5619867 -0.82398975 
-0.23883048 -0.47989285 -0.84419364 
0.097830646 -0.35967895 -0.92793334 
-0.20000087 -0.7316615 -0.6516681 
-0.23388274 -0.1939416 -0.9527254 
-0.41579944 -0.86470205 -0.2817824 
-0.12086793 -0.44357553 -0.88804936 
0.35200876 -0.7239435 -0.5932923 
-0.12503093 -0.704376 -0.6987288 
-0.46845344 -0.68474483 -0.5582795 
0.039019994 -0.6473029 -0.76123357 
0.019317279 -0.89650285 -0.44261664 
0.5869903 -0.80129987 -0.11558892 
0.3041933 -0.94938195 -0.078360945 
0.4001518 -0.8891176 -0.22214533 
0.6322861 -0.6617025 0.4029444 
-0.077975556 -0.80322576 0.590549 
-0.7985392 -0.5802833 0.16002046 
-0.1409151 0.05248888 -0.9886293 
-0.29231322 -0.17384078 -0.94038945 
-0.19875439 -0.46465543 -0.8628975 
-0.54867166 -0.17722155 -0.8170385 
-0.6689984 -0.39753217 -0.62802017 
-0.7020613 -0.42769983 -0.5693707 
-0.1584566 0.2204184 -0.96244866 
-0.0051195393 -0.0025493703 -0.9999837 
0.33960184 -0.55537844 -0.75909525 
-0.24412861 -0.63915944 -0.7292986 
-0.61479354 -0.20584252 -0.76135254 
-0.16722654 -0.36917084 -0.9141927 
0.5069955 -0.7547632 -0.41627902 
0.52386314 -0.41945207 -0.74136865 
0.21024562 -0.9467854 -0.24370943 
0.5209179 -0.52748126 -0.6711245 
0.5178199 0.37040898 -0.7711418 
0.35565665 -0.43130478 -0.82914686 
0.32833183 0.0058456245 -0.9445444 
-0.117929846 0.17894466 -0.9767658 
-0.25358573 -0.42830017 -0.8673254 
-0.25271356 -0.010378062 -0.9674855 
0.033952862 0.19016503 -0.98116493 
-0.1453177 0.11067217 -0.9831757 
0.27773708 0.7997258 -0.5322602 
-0.32388285 -0.034454282 -0.9454696 
-0.046259865 0.07180266 -0.9963455 
0.05739641 -0.32714343 -0.94323003 
0.55600643 -0.10516131 -0.8244986 
0.53672665 -0.3616696 -0.76231205 
0.51933557 -0.82320744 -0.22939083 
0.48452815 -0.29553193 -0.8233428 
0.59084177 -0.80077255 -0.09833385 
-0.64224404 -0.6842236 -0.3454863 
-0.055357512 -0.48108065 -0.8749269 
0.3824087 -0.9197717 -0.08822473 
-0.0088243615 -0.0047810166 -0.99994963 
0.24883819 -0.8396716 -0.482733 
0.6646829 -0.727125 -0.1717146 
0.78897107 -0.5885658 -0.17639431 
0.25537914 -0.8937499 0.36877197 
-0.04773338 -0.8750853 0.481609 
-0.56543154 -0.8199902 0.0889009 
-0.76678866 -0.63360465 0.102860905 
-0.9988723 0.0047917417 0.047235414 
-0.7202992 -0.47414795 -0.50631297 
-0.2768347 -0.13759555 -0.95101523 
-0.018530922 -0.17371765 -0.98462117 
-0.36789975 0.2119245 -0.9053937 
0.20760126 0.1816625 -0.96119744 
-0.37469774 0.15073605 -0.9148117 
-0.08188224 0.047091436 -0.9955289 
-0.017879663 0.5258905 -0.8503643 
-0.13435945 -0.37249216 -0.9182577 
-0.20516618 -0.6256329 -0.7526556 
-0.06299506 -0.70184875 -0.70953506 
0.139382 -0.5200654 -0.8426771 
-0.04176107 -0.279608 -0.9592057 
-0.1069173 -0.5131345 -0.85162306 
-0.28856477 -0.7263462 -0.6238201 
0.6192994 0.19435823 -0.7607189 
0.3574436 -0.51165366 -0.7813096 
0.6839271 0.17735228 -0.70766515 
0.5524222 -0.517185 -0.6537198 
0.51207805 -0.3096462 -0.80118376 
-0.0006271623 -0.6528818 -0.7574596 
0.5682889 -0.70486856 -0.4245093 
0.006380075 -0.22437371 -0.9744823 
0.2971401 0.35476255 -0.88648266 
0.9703566 -0.094230175 -0.22255093 
0.9123232 -0.23023061 -0.33861536 
0.8870454 0.38897824 -0.24868964 
0.9097969 -0.34014326 -0.23784938 
0.22551037 -0.48597 -0.84438044 
0.26576728 -0.34862083 -0.89879435 
0.38134634 -0.74845636 -0.54257554 
-0.23818682 -0.11671097 -0.96418136 
-0.6151657 -0.7802642 0.1129553 
-0.27756974 -0.92729497 0.25115585 
-0.9456956 0.00015305966 -0.32505372 
-0.8831824 -0.46807057 -0.02998388 
0.12466797 0.01605759 -0.99206865 
0.22397876 -0.35149148 -0.90900344 
0.0020596713 -0.91548306 -0.40235147 
-0.2002493 -0.36709914 -0.9083713 
-0.64980525 -0.3420755 -0.67877656 
0.11005331 -0.57354695 -0.8117464 
-0.071249254 -0.35565925 -0.93189603 
0.5998848 -0.61772865 -0.50847775 
0.5619161 -0.8058326 -0.18677299 
0.7332438 -0.647241 -0.20840506 
0.35711515 -0.51897186 0.776619 
0.03730055 -0.99248344 -0.116555825 
-0.14428553 -0.9843904 0.10078339 
-0.2793915 -0.9127581 0.29801515 
0.043313906 -0.9938005 0.10239351 
-0.57711154 -0.76613784 0.28279862 
-0.24228886 -0.7298062 -0.63928014 
0.061736528 -0.7030055 -0.7084998 
0.25927755 -0.45136005 -0.85384387 
-0.43859845 0.05182899 -0.8971875 
-0.16209589 -0.10245566 -0.9814417 
-0.18550105 -0.10450671 -0.97707105 
0.06376451 -0.24820817 -0.9666058 
0.18281128 -0.7906786 -0.5843008 
0.49428254 -0.42157957 -0.7602338 
0.21729293 -0.2538391 -0.942523 
0.8897559 -0.043114185 -0.45439595 
0.2636987 -0.5217157 -0.811342 
0.2727547 -0.3850682 -0.8816617 
0.11820227 -0.5745982 -0.8098551 
-0.19435148 -0.9696551 0.148312 
-0.60783803 -0.6756487 -0.4171712 
-0.31933728 -0.90489376 -0.2814091 
-0.12675355 -0.90833277 -0.39857876 
-0.374219 -0.79796886 -0.4724468 
-0.58146554 -0.696749 -0.42004612 
-0.67127335 -0.3942249 -0.62767726 
-0.27483836 -0.76262116 -0.58555347 
-0.085291244 -0.8344658 -0.5444192 
-0.73426324 -0.61046225 0.29697368 
-0.32140496 -0.86494535 -0.38544568 
-0.15886217 -0.9708511 -0.1794744 
-0.33329505 -0.81160897 -0.47979715 
-0.46235278 -0.37028897 -0.80567735 
0.049985442 -0.2758267 -0.9599069 
-0.46832463 0.35989958 -0.80693525 
-0.16446638 -0.16137668 -0.9730922 
-0.26002282 0.4438046 -0.85756963 
-0.15237989 -0.16162062 -0.9750176 
-0.24330503 -0.16629016 -0.955589 
-0.17123392 0.07506178 -0.98236686 
-0.27690327 -0.3298579 -0.9025067 
-0.12775931 0.26518056 -0.9556971 
0.09265661 0.27632052 -0.9565886 
-0.030903755 0.75556326 -0.65434647 
-0.23875305 -0.029121414 -0.9706436 
0.20466001 0.05425113 -0.97732866 
0.6429725 -0.16509269 -0.7478842 
-0.7541233 -0.5537697 0.3530401 
-0.5107743 -0.48542818 -0.70955557 
-0.14780056 -0.7590188 -0.63407063 
-0.22792086 -0.4033531 -0.8862046 
-0.264075 -0.27612504 -0.9241317 
0.24567357 -0.56622183 -0.7867893 
0.28704447 -0.9575427 0.026784815 
0.09808096 -0.8913876 -0.44250244 
0.112640224 -0.3167864 -0.9417848 
-0.6188292 -0.3669339 -0.69455737 
0.53098685 -0.4102069 -0.7414738 
0.021268412 -0.06799657 -0.9974589 
0.36980036 -0.035217103 -0.92844355 
0.75615805 -0.37508506 -0.53622407 
0.7650397 -0.55409825 -0.3281609 
-0.07879625 -0.13423479 -0.9878118 
0.3799217 -0.21487118 -0.8997166 
-0.030329898 -0.12685162 -0.991458 
-0.44014826 -0.69253695 -0.5715436 
0.20326102 -0.4545437 -0.8672226 
-0.1562578 -0.005891804 -0.9876988 
0.010455472 0.23427601 -0.97211397 
-0.16037548 0.08363934 -0.98350614 
-0.51948553 -0.25043443 -0.81695616 
0.06675148 -0.20998433 -0.97542346 
0.3100871 -0.4344437 -0.8456386 
0.5478562 0.33659554 -0.7658701 
0.48094675 -0.84289265 -0.24129292 
0.82579225 -0.5296131 -0.19384828 
0.39094993 0.91251874 0.120282255 
0.9009733 0.067531675 -0.4285868 
0.98952025 -0.07125715 -0.12558751 
0.6626202 -0.6458364 -0.3792492 
0.61285186 -0.0011624173 -0.790197 
0.67303735 -0.42316207 -0.60659266 
0.55515784 0.50524974 -0.6606986 
0.52994674 0.41077602 -0.7419027 
0.18625207 0.8468259 -0.49819294 
-0.32792413 -0.18592247 -0.9262282 
0.18273416 0.047781665 -0.98200065 
-0.29381326 -0.2779803 -0.91454947 
0.34410483 0.17054184 -0.9233133 
-0.23281726 -0.5578957 -0.7965856 
-0.09814424 -0.80859923 -0.58011645 
-0.596231 -0.3348198 -0.7296605 
-0.049159724 -0.65118647 -0.7573239 
-0.3326481 -0.12677446 -0.93449104 
0.16715321 -0.19981325 -0.96547115 
-0.39541727 -0.42513278 -0.8141912 
-0.24231851 -0.055626437 -0.96860075 
-0.20748834 -0.60294235 -0.7703306 
0.44845095 -0.5687879 -0.6894724 
0.7039322 0.31082243 -0.6386462 
-0.17691794 0.19430499 -0.96485525 
0.39821753 0.05850088 -0.91542375 
0.6371483 0.059517052 -0.7684399 
-0.2363007 -0.46637157 -0.85244334 
0.28080055 -0.10135514 -0.95439947 
0.5239629 -0.20359913 -0.8270492 
0.7884972 0.33768803 -0.5140419 
0.47282165 -0.02351791 -0.88084424 
-0.31395105 -0.10414289 -0.9437102 
-0.13216548 0.036335584 -0.99056154 
-0.024592368 -0.47550663 -0.8793684 
-0.046146818 -0.58681774 -0.80840296 
0.099130675 -0.5019494 -0.8591973 
0.5784682 -0.42163134 -0.69828486 
0.6689925 0.11146199 -0.7348641 
-0.043363485 0.055610005 -0.9975105 
0.2510738 -0.18629576 -0.94987154 
0.37597892 -0.6149079 -0.6932014 
-0.0057368423 -0.44300216 -0.89650226 
-0.0056329886 -0.09325035 -0.9956268 
-0.17704725 -0.18995343 -0.9656977 
0.012118048 -0.09846345 -0.9950669 
0.38563722 -0.060800675 -0.9206451 
0.49117896 0.036554396 -0.87029135 
-0.10540546 -0.3424665 -0.93359864 
-0.379861 -0.27573204 -0.88299346 
0.31891418 0.08905557 -0.94359046 
0.10071359 0.0017811297 -0.99491394 
-0.5059805 0.5108625 -0.6949844 
0.33507344 0.6511962 -0.68093276 
-0.47822425 0.85180616 -0.21384068 
0.06651718 0.042829327 -0.99686575 
-0.028554058 -0.053692386 -0.9981492 
0.35663217 0.67174107 -0.64928997 
-0.36397853 -0.47614354 -0.80050427 
-0.76635796 -0.19654287 -0.61160976 
-0.354701 0.07312682 -0.93211573 
-0.33816856 0.3353852 -0.8792946 
-0.40412074 -0.025034165 -0.9143631 
-0.19152842 -0.52200097 -0.831163 
-0.12059798 -0.4415254 -0.88910717 
-0.27145952 -0.48991835 -0.82842606 
0.66127247 0.15235566 -0.73451114 
0.23661028 -0.5218419 -0.819571 
0.62862283 -0.48773867 -0.60575926 
0.33308175 0.051627878 -0.94148356 
0.12561181 0.10039447 -0.9869867 
0.20886701 -0.29328993 -0.9329285 
0.14359625 -0.21632992 -0.96570265 
0.40915734 -0.76101005 -0.50344235 
-0.5679674 -0.62348056 -0.53729415 
0.049018685 -0.6535123 -0.755327 
0.08719009 -0.9298785 -0.35738486 
-0.31380153 -0.7498876 -0.5824064 
-0.6029531 -0.6770377 -0.42198062 
-0.75647 -0.633453 -0.16275886 
-0.19329414 -0.8025304 -0.564431 
-0.18153638 -0.79838943 -0.5741246 
0.41465527 -0.84632695 0.3343527 
-0.31895363 -0.61379683 0.7221649 
0.11904227 -0.8709888 -0.47666296 
0.60638267 -0.7520798 -0.25821704 
0.39316958 -0.778539 -0.48917767 
-0.13428411 -0.9719856 -0.19290398 
-0.64242846 -0.69549114 -0.3218351 
-0.41929704 -0.011634239 -0.9077745 
0.060406096 -0.43544945 -0.8981843 
-0.5153735 -0.80735284 -0.28735286 
-0.70919794 -0.34317994 -0.6158457 
-0.3891162 -0.71123606 -0.5854331 
-0.16099557 -0.4847675 -0.8596982 
-0.41677374 -0.3150786 -0.8526578 
0.67678183 -0.33780825 -0.654104 
-0.007280243 -0.5226513 -0.8525156 
-0.16647133 -0.46526876 -0.86937463 
-0.6035718 -0.19185321 -0.7738821 