# OOMMF: rectangular mesh v1.0
# Segment count: 1
# Begin: Segment
# Begin: Header
# Desc: Time (s) :  6.910000000000015e-07
# Title: m
# meshtype: rectangular
# meshunit: m
# xbase: 2e-09
# ybase: 2e-09
# zbase: 5e-10
# xstepsize: 4e-09
# ystepsize: 4e-09
# zstepsize: 1e-09
# xmin: 0
# ymin: 0
# zmin: 0
# xmax: 1.024e-06
# ymax: 1.024e-06
# zmax: 1e-09
# xnodes: 256
# ynodes: 256
# znodes: 1
# ValueRangeMinMag: 1e-08
# ValueRangeMaxMag: 1
# valueunit: 
# valuemultiplier: 1
# End: Header
# Begin: Data Text
0.026674362 -0.27213383 -0.9618896 
-0.16697803 -0.38997507 -0.9055594 
-0.16430813 -0.47467756 -0.8646873 
-0.06212732 -0.6999209 -0.7115131 
-0.6838224 -0.38924804 -0.61714906 
-0.29815492 -0.2523816 -0.9205473 
0.023999652 -0.13689552 -0.99029475 
0.083143875 0.20610397 -0.9749915 
0.042120222 0.1574628 -0.9866263 
0.29397303 0.7055046 -0.644859 
-0.10348507 0.0439131 -0.9936612 
-0.14958484 -0.5143087 -0.844459 
-0.47848395 0.28636572 -0.8300891 
0.36529106 -0.40395424 -0.83867955 
-0.058211405 -0.46767968 -0.88197917 
0.27936068 -0.7989321 0.53260237 
0.9416131 -0.13874266 0.30678216 
0.53116465 -0.700407 -0.4767538 
0.43934572 -0.5433073 -0.7153968 
-0.11703791 -0.98816323 -0.09917477 
0.50728256 -0.8583169 -0.07717832 
-0.013710308 -0.029020844 -0.9994848 
0.09619996 -0.3849171 -0.91792405 
0.086415134 -0.07998562 -0.99304324 
0.285255 -0.68004215 -0.67540526 
0.22429517 -0.8443691 -0.48655182 
0.1334651 -0.700056 -0.7015046 
0.85764563 0.3299858 -0.39440277 
0.82084554 -0.17126608 0.5448676 
0.8125514 -0.5711781 0.11625752 
0.6537047 -0.7331103 0.18766843 
-0.36831063 -0.92584985 -0.08455479 
-0.3717786 -0.87802386 -0.30142125 
0.54188025 -0.73477215 -0.40801445 
0.7079357 -0.7057632 0.026934437 
-0.007098055 -0.8035318 -0.5952197 
-0.4615302 -0.66525465 -0.5868783 
0.4831291 -0.58926773 -0.6475723 
0.16015877 -0.6446072 -0.7475499 
-0.035266135 -0.45465368 -0.8899699 
0.28533515 -0.88239145 -0.37412456 
0.56530076 -0.747251 -0.3493582 
0.31342265 -0.47602722 -0.8216839 
-0.34347534 -0.5654188 -0.74988425 
-0.48614722 -0.6906549 -0.5354034 
-0.5718611 -0.6812249 -0.4570641 
-0.33401337 -0.78924984 -0.5152862 
-0.21245675 -0.63969564 -0.7386824 
-0.564441 -0.36055952 -0.7425653 
-0.6858531 -0.34152314 -0.64262545 
-0.71001893 -0.34078872 -0.61622745 
-0.84748226 -0.15874243 -0.5065321 
-0.51573914 -0.42781118 -0.7422876 
-0.84048676 -0.45477185 -0.2945586 
-0.8836431 0.062355377 -0.4639901 
-0.6077924 -0.023151694 -0.79375845 
-0.7640812 -0.44480145 -0.46725997 
-0.74119836 -0.645355 0.1847755 
-0.6650815 -0.74638253 0.024077397 
-0.38335454 -0.9162857 -0.11601655 
0.22985692 -0.79845953 -0.55644256 
-0.26286936 -0.3323768 -0.9057734 
0.52308506 -0.4534507 -0.7216401 
0.08109356 -0.8352515 -0.5438556 
0.5304471 -0.2551381 -0.8084123 
0.50539714 -0.38328877 -0.7730871 
0.372924 -0.91093713 0.17641221 
0.44928998 -0.42777297 0.7843142 
0.49289575 -0.67393285 0.5503348 
0.18049705 -0.5593683 -0.8090291 
0.39428267 -0.8966712 -0.20130095 
-0.04698239 -0.9519906 -0.30250055 
-0.513888 -0.16045855 -0.8427172 
0.12196206 0.14546351 -0.98181754 
0.024272189 0.3842229 -0.9229213 
0.5924709 -0.055834077 -0.8036546 
-0.13656294 -0.58846885 -0.79690343 
0.41155425 -0.43640095 -0.8001108 
0.42977566 -0.30843097 -0.8486243 
0.46781734 -0.7279755 -0.50119734 
0.6725857 -0.3084961 -0.6726506 
0.84062487 -0.43160674 -0.32720864 
0.41260484 -0.37259093 0.8312241 
-0.05739573 -0.9249545 0.37571937 
-0.4211186 -0.8904098 0.1727126 
-0.52397877 -0.72881335 -0.44076905 
0.52875143 -0.7133886 -0.45988974 
0.22353296 -0.48030275 -0.8481406 
0.22633703 -0.80898136 -0.5425133 
0.02231913 -0.78585434 -0.61800885 
-0.2014807 -0.84190935 -0.5005939 
0.3739399 -0.12451275 -0.9190569 
0.35275316 -0.5904209 -0.7259259 
0.62950957 -0.41484046 -0.6569818 
0.27276683 0.64819765 -0.7109417 
-0.42318404 0.007767336 -0.9060105 
-0.92710954 -0.352007 -0.12868133 
-0.8209987 -0.5535588 0.13976316 
-0.6361229 -0.4279217 -0.64205205 
-0.11196892 -0.7655508 -0.6335575 
-0.05590726 0.1789927 -0.98226064 
0.059313193 -0.36067677 -0.930803 
-0.12661195 -0.5714184 -0.81083316 
0.2003871 -0.21180502 -0.95654786 
0.2586579 -0.34250274 -0.9032098 
0.74679106 -0.012933413 -0.66493297 
0.72280043 -0.37262696 -0.5819869 
-0.24295774 -0.81268674 -0.5296339 
-0.9506129 -0.30817255 -0.036944296 
-0.49882314 -0.23341209 -0.8346822 
-0.7790448 -0.45147148 -0.4350433 
-0.15229163 -0.97802234 -0.1424065 
0.54993653 -0.71533287 -0.43112496 
-0.14860864 -0.85769826 -0.49220857 
0.13725129 -0.45650342 -0.87907153 
-0.48629293 -0.41708693 -0.7678266 
-0.10444522 -0.5243884 -0.8450491 
0.22476572 -0.46780488 -0.8547742 
0.2625334 -0.29610828 -0.9183661 
-0.17868546 -0.06243104 -0.9819236 
0.74038714 -0.36779225 -0.562633 
-0.45203924 0.3829414 -0.8056156 
-0.16559498 0.158687 -0.97334313 
0.20634592 0.04288542 -0.9775388 
0.72773206 0.085582085 -0.6805011 
0.9489492 0.12629884 0.28904 
0.4153893 -0.90961146 -0.0076698656 
0.81442076 -0.5799113 0.020540925 
0.20265175 -0.25006202 -0.9467848 
0.9112311 -0.15143083 -0.38304913 
-0.038549826 -0.8385144 -0.54351425 
0.19538452 -0.79018503 -0.5808894 
0.40754002 -0.8064081 -0.42850572 
-0.59704036 -0.7863887 -0.15854213 
0.28529957 -0.40697262 -0.8677427 
-0.0490877 -0.4472675 -0.89305216 
0.6423964 -0.5366374 -0.5471263 
0.30393252 -0.43090266 -0.8496753 
0.006036346 -0.48484984 -0.8745766 
0.51983166 -0.28378132 -0.8057564 
0.32872644 -0.42805254 -0.8418492 
0.6389015 -0.7101203 -0.29586175 
0.060937487 -0.8961357 -0.43957645 
0.046936736 -0.8148309 -0.57779557 
-0.27238348 -0.7276096 -0.6295964 
0.7566164 -0.59777933 -0.26493683 
0.60200256 -0.10662294 -0.79134345 
0.46221948 -0.87919086 -0.11565741 
0.26724526 -0.8655675 -0.4235246 
0.34375054 -0.92469215 -0.16364567 
-0.14219609 -0.93577814 -0.32264465 
-0.15499003 -0.9797189 -0.12700033 
0.054920748 -0.3977211 -0.9158612 
0.023768488 0.024127075 -0.9994263 
0.54306054 0.55292267 -0.6319509 
0.40246376 0.2952223 -0.86652565 
-0.6180113 -0.685444 -0.38500467 
-0.7653654 0.17511067 -0.61931586 
-0.46801543 -0.7235474 -0.5073862 
-0.21215804 -0.5043504 -0.8370303 
0.49238983 -0.8702389 -0.015381422 
0.87325233 -0.46360254 0.15001018 
0.17226218 -0.95268714 -0.25042552 
-0.17666616 -0.7937819 -0.5819789 
-0.2879215 -0.9300942 0.22809206 
-0.45749342 -0.2537853 -0.8522282 
-0.6780004 -0.064542025 -0.73222256 
0.029070038 -0.7098033 -0.7037999 
-0.184574 -0.49047655 -0.85168374 
0.3766066 -0.80193913 -0.46374682 
0.3694824 -0.7009407 -0.6100532 
0.3004197 -0.46011648 -0.83548844 
-0.3193482 -0.15420514 -0.9350068 
0.7750892 -0.5222829 -0.3556085 
0.24149525 -0.9683174 0.06357183 
0.13310911 -0.863731 0.48605648 
-0.12529965 -0.97252405 0.19620638 
-0.13673754 -0.9869502 -0.08504207 
0.059311997 -0.5838072 -0.8097229 
0.54688877 0.19776292 -0.8135125 
0.10152171 -0.044314794 -0.9938459 
0.50885826 -0.82317007 -0.25190166 
0.7921091 -0.34437057 -0.5039566 
0.964805 -0.068198346 -0.253969 
0.20206888 -0.96315324 0.17749372 
0.66819364 -0.74395657 0.0067738052 
0.518713 -0.42563376 0.7414667 
0.4343411 -0.11609551 -0.89323556 
0.10322049 -0.79266757 -0.6008526 
-0.017441167 -0.4376649 -0.89896905 
0.5581247 0.10761646 -0.82274884 
0.6724444 -0.39654705 -0.6249552 
-0.12901579 -0.13301314 -0.9826812 
-0.18888174 -0.22421546 -0.95606023 
-0.5193416 -0.022297619 -0.8542758 
-0.55837756 0.11854177 -0.8210739 
-0.36244625 -0.11941246 -0.9243232 
-0.14336815 -0.8649936 -0.4808658 
-0.023976892 -0.7955926 -0.6053574 
-0.8470164 -0.3429807 -0.4061128 
-0.27994028 -0.67293346 -0.68468535 
0.22691983 -0.91734904 -0.32707533 
0.011169975 -0.6631457 -0.748407 
-0.6185434 -0.15022844 -0.77125585 
0.06307327 -0.072947934 -0.99533933 
-0.7846767 -0.08944606 -0.61341834 
0.1093508 -0.5028215 -0.85744554 
0.25918072 -0.59799224 -0.7584396 
-0.034673277 -0.69122136 -0.7218108 
-0.2541013 -0.9175835 -0.30573368 
0.0880541 -0.9670189 -0.23899986 
-0.14460094 -0.80611503 -0.57382 
0.25464162 -0.5447278 -0.7990177 
0.58754724 -0.4208912 -0.6911143 
0.85076404 -0.52319896 -0.049632978 
0.5046339 -0.18367442 -0.84356886 
0.2657735 0.112179436 -0.9574864 
0.7437805 0.2787605 -0.60752225 
-0.39113495 -0.2891022 -0.8737468 
-0.4115222 -0.83276105 -0.37034938 
-0.695418 -0.6759767 -0.24382232 
-0.3661926 -0.85211945 -0.37389222 
0.1089773 -0.4528353 -0.88490915 
0.38082674 -0.8410502 -0.38419482 
-0.05823226 -0.9931228 -0.101568684 
0.22201443 -0.952274 -0.20948468 
-0.17818697 -0.7780878 0.6023528 
-0.6673161 -0.67420435 -0.31644568 
-0.39593402 -0.9164633 0.057717927 
-0.49288216 -0.855607 -0.15812677 
-0.919964 0.15862893 -0.35847336 
-0.41233778 -0.28593326 -0.86499697 
-0.33660066 -0.360178 -0.87004125 
-0.48415273 0.25059173 -0.8383317 
-0.2967352 0.11939816 -0.94746625 
-0.36359286 -0.6213093 -0.6941002 
-0.22959523 -0.20727162 -0.9509598 
0.12811084 0.3810597 -0.91563153 
0.112978354 0.21029378 -0.97108823 
0.6776866 -0.054722633 -0.733312 
0.22923529 0.3925314 -0.8907134 
-0.20499009 -0.39340767 -0.8962196 
-0.08374473 -0.19829525 -0.97655815 
0.6883115 -0.18129523 -0.7023955 
-0.84792525 0.1988209 -0.49141932 
0.09943705 0.63466424 -0.7663639 
0.5035814 0.05954487 -0.8618935 
-0.48500553 -0.1011705 -0.8686393 
-0.1331249 -0.5659321 -0.81363297 
-0.11036349 -0.5539838 -0.82518 
0.5089807 0.4090692 -0.75736463 
0.82948285 0.21047378 -0.5173578 
0.9681764 -0.24084422 0.06803287 
0.13533387 -0.046057075 -0.989729 
0.20068303 -0.59263706 -0.78006905 
0.7264958 -0.6748067 0.12976839 
-0.8362521 -0.10465796 -0.5382649 
-0.542891 -0.44540814 -0.7119558 
-0.5912735 0.08072539 -0.8024208 
-0.6133528 -0.4685501 -0.63581383 
-0.18249458 -0.8470214 -0.49925002 
-0.20106427 0.28289175 -0.93784094 
0.4758779 -0.38927853 -0.78867143 
0.51518977 0.5107342 -0.6882806 
-0.039470322 0.83135563 -0.5543373 
0.17117882 0.6129216 -0.7713787 
-0.016770115 0.06483806 -0.9977549 
-0.36591554 0.24130322 -0.89882064 
-0.933046 0.1265354 -0.33677015 
0.020174503 0.026120303 -0.9994552 
0.21103567 -0.005376034 -0.9774636 
-0.011350777 -0.7225797 -0.6911945 
-0.17129262 -0.9728058 0.15590937 
0.17710072 -0.80618787 -0.5645321 
0.46584192 -0.6781711 -0.5683971 
-0.47557902 -0.8698853 0.13085936 
0.10189023 -0.6292319 -0.77051 
0.9400959 -0.08199235 -0.33090323 
-0.36650002 0.3148351 -0.87553227 
0.14284612 0.4667961 -0.8727523 
0.68966836 -0.5004522 -0.52335954 
0.17998996 -0.19982655 -0.9631578 
0.73872614 -0.017661674 -0.67377436 
0.9941271 -0.04109251 0.10011426 
0.8659754 -0.38721874 0.31646207 
0.7813653 -0.59396976 0.19148986 
0.8576025 -0.16606954 0.48676383 
0.058146946 -0.95684564 0.28472003 
-0.32875696 -0.70953155 -0.62328476 
0.10790536 -0.8527332 -0.5110798 
0.5695635 -0.5982973 -0.5635936 
0.3237252 0.0023847418 -0.9461482 
0.095934995 -0.5432332 -0.8340829 
0.5338153 -0.3811576 -0.7548246 
0.1617621 -0.8860353 -0.434482 
0.11799698 -0.74657255 -0.6547566 
0.027953949 -0.4941579 -0.86892277 
-0.4902456 -0.65667665 -0.5730926 
0.04140476 -0.5101758 -0.8590729 
0.12046049 -0.4456673 -0.8870569 
0.40902877 -0.40108576 -0.8196498 
-0.48475868 -0.36802262 -0.7934535 
-0.07776578 0.022881985 -0.99670905 
0.244433 -0.6254387 -0.7409986 
0.39433107 0.30746305 -0.8660078 
0.29693824 -0.10376559 -0.949242 
-0.13834277 -0.37931985 -0.91486484 
0.11253876 -0.61514664 -0.78033954 
-0.96637005 -0.18059531 -0.18306929 
-0.8987867 0.33909887 -0.27783903 
-0.61627156 0.054129507 -0.7856713 
-0.14509699 -0.24011041 -0.95984054 
0.44750687 -0.53531235 -0.71636474 
-0.09754658 -0.98780906 0.12131754 
-0.7328852 -0.6722648 -0.10459158 
-0.34303385 -0.4405891 -0.82958364 
-0.013763153 -0.88909274 -0.45752013 
-0.6637682 -0.2128742 -0.71700525 
-0.6390169 -0.6138232 -0.4635498 
-0.38325405 -0.76201624 -0.52196527 
0.26445356 -0.67860734 -0.68524194 
-0.008890968 -0.7270052 -0.6865745 
-0.39518395 -0.6288853 -0.66957676 
0.33184463 -0.94168913 -0.05568536 
0.31970787 -0.92351294 0.2119217 
-0.019394409 -0.92300016 -0.38431045 
0.44330457 -0.75790936 -0.47859645 
-0.38533875 -0.7750501 -0.50081074 
-0.8031779 -0.2139374 -0.55600005 
0.014365194 -0.055744305 -0.99834174 
-0.04944177 -0.27998292 -0.95873106 
-0.049694136 -0.045815405 -0.9977132 
0.023066657 -0.83676267 -0.54707974 
-0.082486585 -0.15800312 -0.98398733 
0.13245791 -0.3636599 -0.92206645 
0.32197565 -0.19131361 -0.92721665 
-0.087865084 -0.6805635 -0.7274017 
0.86929953 -0.45159706 -0.20094396 
0.381375 -0.8024152 -0.4590022 
0.2920286 -0.7304848 -0.6173422 
-0.14235267 -0.89388865 -0.42508703 
0.24753653 -0.6701818 -0.6997015 
0.48878792 -0.8487065 -0.2019497 
0.17566279 -0.9759759 -0.12889434 
0.3468747 -0.93352973 -0.0905551 
0.087737605 -0.47358313 -0.87636817 
0.04691647 -0.9340954 -0.3539277 
0.21777113 -0.6516482 -0.7265882 
0.105822966 -0.53901815 -0.8356202 
0.3922861 -0.20043255 -0.8977408 
0.24792388 0.27820948 -0.9279726 
-0.010958565 0.40808767 -0.912877 
-0.6407455 -0.43344274 -0.6336976 
-0.38806993 -0.90722346 0.16231897 
-0.7118833 0.07049155 -0.69875115 
-0.27191696 -0.25742853 -0.9272496 
-0.5321676 -0.016302548 -0.84648216 
-0.059650388 0.2040158 -0.97714865 
0.28291667 -0.18704405 -0.94072986 
-0.0027441557 -0.23741704 -0.971404 
-0.19885403 0.25346622 -0.9466848 
0.2934656 -0.19756131 -0.9353329 
0.7496989 -0.24113494 -0.6162837 
-0.5140428 -0.33248708 -0.7907038 
-0.59272635 -0.39753446 -0.70045835 
0.091319785 -0.62490976 -0.77533764 
-0.11588979 -0.63339686 -0.76509994 
-0.20519504 -0.51417 -0.832781 
-0.3836023 -0.8775958 -0.2875326 
0.67261964 -0.41188192 -0.61476517 
-0.19063908 -0.436357 -0.87934595 
-0.52936864 -0.40724337 -0.74425924 
-0.7199491 -0.26298818 -0.6422698 
-0.28182954 0.13093184 -0.95048887 
0.3047206 -0.1043683 -0.94670624 
0.22207378 0.22232191 -0.94934523 
0.76069987 0.52106714 -0.38707188 
0.009649642 0.91477793 -0.40384185 
0.23213883 0.42100862 -0.87684864 
0.7321009 0.11881206 -0.67075485 
0.6618229 0.18967871 -0.72526723 
0.6062572 -0.200314 -0.76962763 
0.7474348 -0.5382649 -0.38937405 
0.97806793 -0.20444304 -0.03982823 
0.35692817 -0.19301547 -0.91397345 
0.5264444 -0.4811563 -0.7009601 
0.4070688 0.06445887 -0.9111202 
0.22259468 -0.4341913 -0.8728859 
0.53818554 -0.28736937 -0.79232264 
-0.066963635 -0.5324873 -0.8437851 
0.3896552 -0.63148123 -0.6703734 
0.47962153 -0.7047663 -0.52275026 
0.35761216 -0.68453526 -0.63523626 
0.22057983 -0.7662467 -0.6034987 
0.32139036 -0.5660364 -0.75915164 
0.25388205 -0.35104123 -0.9012847 
0.5489059 -0.5313013 -0.6453072 
0.74248224 -0.34175798 -0.57612634 
0.49531677 -0.73616314 -0.46122137 
0.42577565 -0.8135533 -0.39603823 
0.123458266 -0.5547949 -0.82277626 
0.81540185 -0.5300307 -0.23278151 
0.40689442 -0.1440974 -0.9020382 
0.30570492 -0.7233368 -0.61913526 
0.70610493 -0.24909022 -0.6628499 
0.7323657 -0.2933157 -0.6144968 
-0.06432288 -0.82704353 -0.5584457 
0.1695417 -0.5763333 -0.79943466 
0.08991245 -0.5334502 -0.8410391 
0.107765116 -0.13056144 -0.9855661 
0.5809855 -0.053913545 -0.8121264 
0.393499 -0.3682876 -0.8423318 
-0.43518096 -0.6403877 -0.63286746 
-0.72736186 -0.38994205 -0.5647034 
-0.48528913 -0.84208655 -0.23533988 
0.015043422 -0.39268625 -0.9195495 
0.032343455 -0.9162082 -0.39939526 
-0.06951828 -0.1941446 -0.9785066 
0.14332709 0.06902723 -0.9872652 
-0.38313308 -0.71125084 -0.5893482 
-0.36937922 -0.69785064 -0.6136477 
-0.63922304 -0.3013005 -0.70753944 
-0.3042566 -0.49374717 -0.8146421 
-0.21090586 -0.8317052 -0.51360035 
0.7160757 -0.37713888 -0.5873686 
0.34488195 -0.5816974 -0.7366713 
0.7955432 -0.21385323 -0.566902 
0.6430407 -0.38322374 -0.66305226 
0.47589535 -0.5039853 -0.72077906 
0.14696035 -0.984864 -0.09190056 
0.3732128 -0.92773485 -0.0045084874 
0.30211845 -0.84691334 -0.43756402 
0.18439364 -0.5537113 -0.8120363 
0.02043458 -0.49343723 -0.8695414 
-0.11313663 -0.6675991 -0.7358748 
0.2161818 -0.12937644 -0.9677434 
-0.10387128 0.29470497 -0.94992626 
0.32329756 -0.70164245 -0.63496184 
0.31387502 -0.7608889 -0.5679178 
0.2349038 -0.5963983 -0.7675476 
0.2315357 -0.8814669 -0.4115911 
0.26174346 -0.95408326 0.14565603 
-0.13986437 -0.95010453 -0.27881774 
-0.5168018 -0.07965385 -0.8523915 
0.03691571 -0.71426505 -0.6989011 
-0.05581221 -0.8842175 -0.46372902 
-0.38983545 -0.06240437 -0.91876775 
0.12534198 -0.38664532 -0.91367114 
-0.21754278 -0.6169974 -0.7562999 
-0.61726147 -0.17169797 -0.7677944 
-0.87227196 -0.14813896 -0.4660434 
-0.72948116 -0.3125221 -0.6084302 
-0.46221387 -0.14651683 -0.8745807 
-0.5430031 -0.36723158 -0.75517464 
0.050857224 -0.22855844 -0.97220093 
-0.20753019 -0.12107733 -0.97070676 
0.12202034 -0.47027776 -0.87404233 
0.4412675 -0.42942968 -0.78795505 
0.11654134 -0.46037954 -0.88003904 
-0.25177288 -0.32770643 -0.9106146 
0.17643537 -0.055281263 -0.98275864 
-0.58094734 -0.4924004 -0.6481065 
-0.48023424 0.257146 -0.8386007 
0.15318508 0.07374524 -0.98544204 
-0.08138846 -0.15469797 -0.98460376 
0.031960614 -0.36459094 -0.9306191 
0.2906196 0.2322773 -0.9282174 
-0.2617502 -0.33586025 -0.904812 
0.10115362 -0.7158654 -0.6908725 
0.581723 -0.5810632 -0.5691783 
-0.4437788 0.37843758 -0.8123086 
0.30774367 0.6101984 -0.73003554 
0.66396147 -0.09633819 -0.741535 
0.10558849 0.33328468 -0.9368952 
-0.859056 -0.20642047 -0.46841586 
-0.38642693 -0.5291302 -0.755444 
-0.24041656 -0.7070564 -0.6650348 
0.5318879 -0.55390596 -0.6405338 
-0.2243504 -0.71211016 -0.6652564 
-0.008885568 -0.78015286 -0.62552583 
0.09848372 -0.8408149 -0.53228873 
-0.05413147 -0.9498822 -0.3078858 
-0.42602035 -0.90452015 -0.018708745 
-0.22319819 -0.9410414 -0.2542119 
-0.2229942 -0.74819595 -0.62488115 
-0.91589123 -0.16656467 -0.3652389 
-0.8264127 0.4258112 -0.36841145 
-0.6110612 0.19884183 -0.7662024 
-0.7698718 -0.13785444 -0.6231321 
-0.8451528 0.32378644 -0.4252988 
-0.90592515 0.2112075 -0.3670029 
-0.47901258 -0.41831973 -0.77172244 
-0.46001154 0.32312858 -0.8270293 
-0.49968135 -0.2531475 -0.8283929 
-0.053068798 0.76220405 -0.6451578 
0.34614143 0.33400023 -0.8767155 
0.2373512 -0.055663697 -0.9698279 
0.53098434 0.025469271 -0.8469989 
0.5433111 -0.41059774 -0.7322722 
0.18558244 -0.12693125 -0.97439605 
-0.24462913 -0.9161721 -0.31746724 
-0.38993332 -0.49355346 -0.777404 
0.08562154 -0.0044582733 -0.99631774 
0.2666352 0.10985769 -0.957516 
-0.19920689 -0.25659215 -0.94576806 
0.20439409 -0.13911007 -0.9689538 
0.5076959 -0.44193998 -0.7395499 
0.8979443 -0.43633658 -0.057503093 
0.98989207 0.057022855 0.12985457 
0.62624544 -0.5177149 -0.58291334 
-0.053947996 -0.8206947 -0.5688146 
0.39137492 -0.4262644 -0.8155516 
-0.8756183 0.41850287 -0.2411389 
-0.012638626 0.10576732 -0.99431056 
-0.28057393 -0.12551297 -0.95159066 
-0.30296913 -0.58211476 -0.75455433 
-0.2678403 -0.39628828 -0.8781897 
-0.03818547 0.07824419 -0.99620265 
0.06554432 -0.34376293 -0.9367663 
0.51368296 -0.30128175 -0.80334246 
0.49223718 0.8435056 -0.21494411 
0.007989991 0.73697 -0.6758783 
-0.20111725 -0.106780276 -0.9737299 
-0.4787237 0.015955849 -0.8778206 
-0.6867078 0.47081736 -0.55386233 
-0.7782713 0.21910988 -0.5884596 
-0.6532482 -0.4407987 -0.61560005 
-0.29031155 -0.90011543 -0.32482556 
-0.4010549 -0.8550739 -0.32863906 
-0.33459228 -0.7079763 -0.62194663 
0.070299126 -0.83926 -0.53916687 
-0.1890232 -0.97773886 0.09108833 
-0.13205999 -0.6595238 -0.7399923 
0.3454332 -0.2907469 -0.89226806 
0.4719863 -0.44512546 -0.7609812 
0.4980342 0.25310567 -0.8293971 
0.14153843 -0.37006766 -0.91815954 
0.51836586 0.28908944 -0.80481315 
0.39734414 0.14894517 -0.90550154 
0.5488351 0.092510425 -0.83079594 
0.983903 -0.07626351 -0.16161327 
0.59998107 -0.6801614 -0.4211926 
0.30594388 -0.79794014 -0.519317 
-0.63923573 -0.5232218 -0.5635749 
-0.83638746 -0.27608678 -0.47353157 
-0.7957966 -0.6049852 0.02647146 
-0.7370903 -0.355183 -0.57492876 
-0.5172119 -0.33272603 -0.7885337 
0.41101357 -0.32840973 -0.8504205 
0.71594554 -0.44494858 -0.53799886 
0.14451519 -0.7321117 -0.6656785 
-0.3998492 -0.87875503 -0.26059628 
-0.03627203 -0.6452584 -0.7631028 
0.5604668 -0.38141498 -0.73511875 
0.85622656 -0.47539145 -0.20218545 
0.13015504 -0.9483812 0.28919342 
0.059513625 -0.5203914 -0.8518515 
0.0463932 -0.78662276 -0.6156886 
-0.15465912 0.38886243 -0.90822166 
0.44273195 0.552405 -0.7062841 
0.47390568 0.6645055 -0.5777941 
-0.19731615 0.8395019 -0.5062637 
-0.29662442 0.068104304 -0.9525628 
-0.14044684 0.061411884 -0.9881818 
-0.7220397 0.30800888 -0.6195073 
-0.7677272 0.26240727 -0.58458316 
-0.7576584 0.09944115 -0.64503115 
-0.4831243 -0.32292238 -0.81382555 
0.04934488 -0.5597216 -0.82721025 
-0.16184837 -0.49246836 -0.8551492 
-0.8208238 -0.14328551 -0.55291736 
0.19171968 0.018507347 -0.9812753 
0.035378043 -0.3302339 -0.94323593 
0.037144553 0.25047058 -0.96741146 
-0.51612204 -0.0901355 -0.8517592 
0.12202446 -0.41480404 -0.90169156 
0.40458858 -0.35561243 -0.8425248 
0.05759199 -0.31156847 -0.9484768 
-0.5871043 -0.1960735 -0.78540677 
0.03512596 -0.73387927 -0.67837125 
-0.123916455 -0.9619076 0.24367727 
-0.32412234 -0.92282635 -0.2081736 
0.1336959 -0.94299847 -0.30476117 
-0.55741596 -0.7662758 -0.31954458 
-0.64647096 -0.20167574 -0.73580045 
0.17469966 0.32166982 -0.9305959 
0.19881615 -0.12922493 -0.97147983 
-0.13869897 -0.6751778 -0.7244981 
0.28366446 -0.107041374 -0.9529306 
0.5224227 -0.6705453 -0.52672917 
0.36481625 0.00788864 -0.9310461 
0.53464395 -0.5446714 -0.64613396 
0.35358325 -0.9158366 -0.19032206 
-0.39090198 -0.5740625 -0.71947753 
0.27228567 -0.33861554 -0.90066653 
-0.12613034 -0.7274016 -0.67452073 
-0.49673635 0.00030343476 -0.86790156 
0.06908344 -0.8588868 -0.5074849 
-0.20890144 -0.69576794 -0.687217 
-0.73277014 -0.05404132 -0.67832696 
0.061351083 -0.2754247 -0.95936304 
-0.46543258 -0.35367504 -0.8113485 
0.34315947 0.019530358 -0.9390741 
-0.0498046 0.26734215 -0.9623137 
0.14502884 -0.19553825 -0.9699132 
0.023290327 0.62760234 -0.77818567 
-0.09120093 0.6940976 -0.7140806 
-0.2523634 -0.18027051 -0.95069206 
0.19642761 -0.46865445 -0.8612661 
-0.7136112 -0.36316735 -0.5990565 
-0.75309926 -0.09645001 -0.65079874 
-0.8474285 0.009141253 -0.5308308 
-0.60913104 -0.26723033 -0.746691 
-0.061337296 0.6774464 -0.73301035 
-0.5460947 -0.11139441 -0.8302843 
0.06485626 -0.66242015 -0.74631983 
0.060522933 -0.37023365 -0.92696494 
-0.13770604 -0.13480568 -0.9812566 
0.057509884 0.31239152 -0.948211 
0.0876368 0.07541426 -0.99329376 
-0.435538 -0.8523436 -0.28951207 
-0.4790624 -0.33882362 -0.80975163 
-0.8416305 -0.15993747 -0.51582754 
-0.302506 -0.63029224 -0.7149978 
-0.49054855 -0.118021525 -0.8633847 
0.77312684 -0.6032496 -0.19586909 
0.13518043 -0.9526292 -0.27244037 
-0.35818642 -0.1047864 -0.92775124 
-0.11904387 0.2347364 -0.9647422 
-0.08323165 0.23506735 -0.9684089 
0.32922304 0.14958908 -0.932328 
0.27229065 -0.062260937 -0.9601986 
0.47576475 0.74008673 -0.47530994 
0.86837023 0.45631257 0.19419567 
0.39521724 0.49570683 -0.7733552 
0.9086603 -0.26254755 -0.324662 
0.86049575 0.3262372 -0.3913009 
0.5782115 0.17869005 -0.79607874 
0.5351284 0.11893035 -0.8363571 
0.3656994 -0.27875367 -0.8880093 
0.23516789 0.15850832 -0.95894283 
0.5068376 -0.70703405 -0.49317193 
0.24237862 -0.8077829 -0.5373449 
0.37801707 0.076017305 -0.92267245 
0.4872043 -0.63717407 -0.59719455 
0.5985064 -0.79485965 -0.099941455 
0.6751549 -0.72383887 0.14220826 
0.28133455 -0.23209333 -0.93111956 
0.6761537 -0.20970139 -0.7062872 
0.5129267 -0.63635945 -0.57615364 
0.6088251 -0.0903286 -0.7881451 
0.20722896 0.0051281853 -0.9782791 
-0.28784436 -0.16014968 -0.94419163 
0.3615431 -0.19670281 -0.9113696 
-0.35990608 -0.2553652 -0.89736074 
0.32573903 -0.7578461 -0.56529945 
0.04940209 -0.33565277 -0.9406895 
0.41426793 -0.72419065 -0.5512985 
0.77312964 -0.37702024 -0.5100257 
-0.09870099 -0.57257235 -0.8138913 
0.6937931 -0.23496029 -0.6807679 
-0.029454205 -0.9860524 -0.16380855 
-0.28318414 -0.7229056 -0.6302495 
-0.33740127 -0.60056627 -0.7249004 
-0.30881304 -0.43435732 -0.84614915 
-0.31961504 -0.1284924 -0.93879503 
0.033868667 -0.12005324 -0.99218965 
-0.18612343 -0.17498544 -0.9668186 
0.37880805 -0.3931123 -0.83783484 
0.3688891 -0.7691578 -0.52184004 
-0.60370535 -0.73119116 0.31764677 
-0.37374026 -0.92520595 -0.065667674 
-0.6602163 -0.3480715 -0.665553 
0.095515996 0.22743349 -0.9690979 
0.61288553 -0.20061666 -0.7642804 
0.49097818 -0.23538104 -0.8387707 
-0.3332046 0.34989083 -0.8755291 
0.4287382 0.3873272 -0.81618696 
-0.009980998 0.30106694 -0.9535508 
-0.17888418 0.28471267 -0.94177455 
-0.031105042 0.15369435 -0.98762876 
0.18227445 -0.060259786 -0.9813995 
0.59919626 -0.1761183 -0.78099066 
0.3464293 -0.078590125 -0.9347782 
-0.34894183 -0.6964682 -0.6270341 
0.07223026 -0.92644095 -0.3694457 
-0.7271426 -0.66722625 -0.1614708 
-0.46757096 -0.7137711 -0.52144825 
0.50743115 -0.47028506 -0.7220427 
0.5116628 -0.4510019 -0.7312993 
0.0025329988 -0.03143998 -0.9995024 
0.4377561 -0.3741659 -0.8175388 
0.06921744 -0.25523138 -0.96439934 
0.55651814 -0.56092024 -0.612908 
0.3313822 -0.85382813 -0.40145165 
0.24318914 -0.41016546 -0.87899 
0.4473624 -0.67386025 -0.58803 
0.45270425 -0.86390984 -0.22072329 
-0.14305326 -0.69977605 -0.6998924 
-0.77813727 -0.4241825 -0.46321872 
0.14238043 -0.729729 -0.66874766 
0.39724314 -0.8305899 -0.39028004 
0.26969567 0.23081784 -0.934873 
0.40017965 0.5907299 -0.7006387 
0.3078748 0.32192495 -0.8953086 
-0.43342164 0.33195275 -0.8378265 
-0.47246823 -0.4045256 -0.78302807 
-0.27892745 0.09035159 -0.9560523 
-0.61272174 -0.14618562 -0.77666074 
-0.71781516 -0.3937789 -0.5741774 
-0.50369686 -0.44918165 -0.7379196 
0.7560416 -0.30820507 -0.57741743 
-0.022553235 -0.004506566 -0.99973553 
0.7602375 -0.5350641 -0.36843628 
0.09018556 -0.9480117 -0.30518904 
0.20037614 -0.54414654 -0.814711 
-0.33115646 -0.12908913 -0.9347039 
-0.057476096 0.008650038 -0.99830943 
-0.17964 -0.088781916 -0.97971797 
-0.011648084 -0.13072348 -0.99135053 
-0.29287586 0.098909736 -0.9510209 
0.089975856 -0.22726843 -0.9696667 
-0.15792271 -0.028430412 -0.9870421 
-0.16675891 -0.22067963 -0.960985 
0.65572536 -0.427515 -0.6222984 
0.16027887 0.10283604 -0.98170036 
0.15154403 0.38830566 -0.9089848 
-0.29163775 -0.08432118 -0.952805 
0.07639992 0.31258044 -0.94681394 
-0.39478508 0.5224408 -0.75577813 
-0.4091436 0.27505028 -0.87002814 
-0.6474847 -0.41951925 -0.63621324 
-0.033076312 -0.6973096 -0.7160066 
0.044015132 -0.46274912 -0.885396 
0.051482793 -0.6764102 -0.7347236 
-0.519429 -0.5049686 -0.6893477 
0.14186929 -0.8616398 -0.48728842 
0.117004916 -0.93037 -0.34745014 
-0.30303857 -0.67865974 -0.6690207 
-0.3370102 -0.93239975 0.13059422 
-0.6581676 -0.738215 -0.14783138 
-0.9628513 -0.25034982 0.10120461 
-0.6962614 -0.19817413 -0.68988925 
-0.99228793 0.118480876 -0.03642708 
-0.49704024 0.73342764 -0.4637186 
-0.61431473 0.69701535 0.36984748 
-0.6880751 -0.22023623 -0.6914107 
-0.6050245 -0.14430909 -0.78302 
0.2890691 0.5012475 -0.8155918 
-0.22702995 0.12798993 -0.9654409 
-0.13646752 0.43554145 -0.8897642 
-0.4142582 0.85536313 -0.31103688 
0.4209583 0.34349954 -0.8395251 
0.8360132 0.08881987 -0.5414731 
0.0684375 0.45495608 -0.8878802 
0.3882611 -0.13730907 -0.91126263 
0.62157327 -0.65806633 -0.42496514 
-0.34720954 -0.16554657 -0.92306006 
0.11288827 -0.10683132 -0.98784786 
-0.0618699 -0.17069009 -0.9833804 
0.6515948 0.04805267 -0.7570437 
-0.0738763 -0.12812293 -0.989003 
0.38767895 0.33739188 -0.8578297 
0.7336013 -0.25401384 -0.63032234 
0.7140584 0.46616432 -0.5223136 
0.25033036 -0.0047171493 -0.968149 
0.71883273 -0.11355607 -0.68584585 
0.41363457 -0.10253377 -0.904651 
-0.8407757 0.535932 -0.07663538 
0.05712891 0.3497075 -0.9351155 
-0.71150774 -0.3056046 -0.6327421 
-0.31042334 -0.66412294 -0.680131 
0.082306914 -0.2757022 -0.9577128 
-0.28917655 -0.3132124 -0.9045856 
0.05412036 -0.7824964 -0.6202987 
0.78771037 0.0756112 -0.611388 
-0.053604987 0.913884 -0.40242115 
0.049294982 0.11858078 -0.99172 
-0.32496467 -0.3185973 -0.8904458 
-0.41588128 0.03337935 -0.90880615 
-0.6641198 -0.19497634 -0.7217543 
-0.18013673 0.22538996 -0.9574707 
-0.420873 -0.27269727 -0.8651602 
-0.36816987 -0.8279988 -0.4229292 
-0.44718876 -0.66358304 -0.59973305 
0.08513949 -0.46893582 -0.8791192 
-0.021474222 -0.46718425 -0.8838993 
-0.11734458 -0.891293 -0.43798056 
-0.11388105 -0.16770674 -0.97923726 
-0.26291844 0.028458258 -0.96439826 
-0.18419515 -0.33385485 -0.9244529 
-0.24024607 -0.44775432 -0.861277 
0.024348332 -0.2847914 -0.95828027 
0.13403627 0.19421332 -0.97175896 
-0.41116545 -0.32088715 -0.85321426 
-0.0020922974 -0.5256751 -0.85068285 
-0.3708413 -0.69386894 -0.6172703 
-0.12904575 -0.7250188 -0.6765316 
0.051779367 -0.52477753 -0.8496632 
-0.64273006 -0.5300554 -0.5531179 
-0.50401837 -0.6808394 -0.5314351 
-0.70903665 -0.3384539 -0.6186405 
-0.40371293 -0.46540108 -0.787666 
0.21381655 0.1739721 -0.96125764 
0.2552594 -0.069866605 -0.9643451 
0.7218599 0.6264674 -0.29403552 
0.45660216 -0.87446654 -0.16377686 
-0.25690475 -0.52151835 -0.8136452 
0.7227257 -0.3098102 -0.61780685 
0.58128613 -0.81193995 -0.053479295 
0.4184538 -0.8807914 -0.22159173 
0.4631604 -0.8852506 -0.04259003 
0.50251436 -0.5837919 -0.6377041 
-0.10575467 -0.056798987 -0.99276876 
0.6567742 0.46305674 -0.59516907 
0.46955073 0.4988215 -0.72849107 
0.71965367 0.47971293 -0.50197023 
-0.4971611 0.7653546 -0.40873358 
-0.69888115 -0.09320031 -0.7091395 
-0.45626011 -0.59512097 -0.66155714 
-0.45404908 0.7067782 -0.54249805 
-0.8277448 0.55977917 -0.03854813 
-0.83962893 -0.1547325 -0.5206547 
-0.80832136 0.10545247 -0.5792205 
-0.07177872 -0.018512523 -0.99724877 
-0.31041476 -0.053046882 -0.94912004 
-0.7607134 -0.5140623 -0.3963018 
-0.6221077 -0.29672766 -0.72452384 
-0.51683414 0.38163796 -0.76631266 
-0.77214646 -0.03498937 -0.6344806 
-0.10759693 -0.3220119 -0.9406016 
0.23434058 -0.3869278 -0.89183605 
0.63646275 -0.5551975 -0.5354167 
0.27360782 -0.53384143 -0.8000951 
-0.17465882 0.07185058 -0.982004 
0.31295648 0.19919051 -0.92864496 
-0.18402858 -0.4408117 -0.8785321 
-0.2524732 -0.9164156 -0.31054783 
-0.6218551 -0.6920937 -0.3664734 
-0.66522276 -0.3640427 -0.6518831 