# OOMMF: rectangular mesh v1.0
# Segment count: 1
# Begin: Segment
# Begin: Header
# Desc: Time (s) :  7.000000000000016e-07
# Title: m
# meshtype: rectangular
# meshunit: m
# xbase: 2e-09
# ybase: 2e-09
# zbase: 5e-10
# xstepsize: 4e-09
# ystepsize: 4e-09
# zstepsize: 1e-09
# xmin: 0
# ymin: 0
# zmin: 0
# xmax: 1.024e-06
# ymax: 1.024e-06
# zmax: 1e-09
# xnodes: 256
# ynodes: 256
# znodes: 1
# ValueRangeMinMag: 1e-08
# ValueRangeMaxMag: 1
# valueunit: 
# valuemultiplier: 1
# End: Header
# Begin: Data Text
-0.36577758 -0.5247938 -0.7686341 
-0.3838234 -0.92238885 0.04334171 
-0.056665007 -0.11076141 -0.99223036 
0.34577814 0.17611597 -0.9216403 
0.5314158 -0.10365768 -0.8407451 
0.46152934 -0.48730016 -0.74130243 
-0.37933826 -0.20285049 -0.90274817 
0.6399015 -0.0775515 -0.76453376 
-0.10839716 0.46328622 -0.8795544 
-0.24643368 0.10003008 -0.9639837 
-0.5218716 -0.055637326 -0.8512077 
-0.4277875 -0.23931825 -0.8716219 
-0.12726006 -0.5684292 -0.8128303 
0.5382637 -0.0412384 -0.841767 
0.6321762 -0.62355715 -0.4599237 
-0.14965676 -0.93152297 -0.3314632 
-0.1674485 -0.64277303 -0.74753183 
-0.7485185 -0.6596316 0.06786954 
-0.39887443 -0.786068 -0.47222477 
0.2560326 -0.9666633 -0.0030735314 
0.6411655 -0.7136549 -0.28214103 
0.77206373 -0.4335066 -0.46474686 
0.17416064 -0.38384122 0.9068263 
0.30398205 0.0984306 0.9475792 
-0.69274914 -0.51785886 0.5019171 
-0.592839 -0.5298359 0.60647833 
-0.1690183 -0.9720001 -0.16324441 
-0.3917982 -0.9194867 -0.0322256 
-0.73894817 -0.59084225 0.32382265 
-0.97495836 0.20312966 0.09052332 
-0.87149155 -0.34902513 -0.34450558 
0.30243674 -0.58764684 -0.7504688 
0.66176057 -0.06030656 -0.7472858 
0.43518665 -0.6309885 -0.6422353 
0.89963406 -0.40626156 -0.16003156 
-0.17943047 -0.87671316 0.44629458 
-0.10932882 -0.9782565 -0.1762429 
0.3038959 -0.8485182 -0.43320245 
0.1656442 -0.42933425 -0.8878256 
-0.022803513 -0.5700659 -0.8212825 
-0.33420688 -0.65199053 -0.6805984 
-0.094051875 -0.12946619 -0.9871134 
-0.7408664 -0.3397283 -0.5793977 
-0.9658319 -0.19699132 -0.16841425 
0.3187552 -0.9438836 -0.08648034 
-0.48544878 -0.7184526 0.49816215 
-0.57245576 -0.8179387 -0.057190496 
-0.04032867 -0.9631247 0.2660161 
0.27085048 -0.9625131 0.014446807 
0.5135942 -0.8437286 -0.15602274 
0.4440226 -0.8618417 0.24509801 
-0.376624 -0.7277669 -0.57315767 
-0.21075341 -0.9476018 -0.24007055 
-0.49389234 -0.8538264 -0.16447155 
-0.9105324 -0.22206855 -0.34873536 
-0.38875613 -0.3539628 -0.85063446 
-0.4165367 0.014335952 -0.9090059 
-0.43824333 -0.84487045 -0.30681714 
-0.35002473 -0.51976365 -0.7793128 
-0.25326836 -0.5843589 -0.77096045 
-0.025350953 -0.24948631 -0.96804655 
-0.5811376 -0.8114693 0.06161803 
-0.09981263 -0.9947497 -0.022595579 
-0.26671547 -0.91064644 0.31557268 
-0.6376974 -0.71818656 0.27847818 
-0.60231 -0.75851214 0.24876088 
-0.6463646 -0.34853613 -0.6787749 
-0.858975 0.46890888 -0.20563719 
-0.26660982 -0.34301406 -0.9007001 
-0.6550816 0.062106874 -0.7530013 
-0.55894184 -0.42944595 -0.7093379 
-0.16463101 -0.07566849 -0.9834485 
0.28696334 -0.32768276 -0.90015334 
-0.14546764 -0.25770056 -0.9552119 
0.29983503 -0.151032 -0.9419598 
0.17891456 -0.9221588 -0.3429471 
-0.37448943 -0.8350276 -0.4030965 
0.016885 -0.99449456 -0.103419475 
-0.42510137 -0.3659579 -0.8278669 
0.11807647 -0.6679936 -0.7347398 
0.18934922 -0.16028205 -0.96873975 
0.48880333 0.27382502 -0.82830626 
-0.18545565 0.600308 -0.77796954 
0.56317323 -0.8261534 -0.017506892 
0.56035376 -0.80643475 0.18885627 
0.15584171 -0.9251585 -0.34611446 
-0.25508583 -0.08902414 -0.96281147 
0.63803506 -0.29099405 -0.7129052 
0.5741592 -0.8105755 0.11536267 
0.40896207 -0.8901084 -0.20113936 
0.0074348315 -0.99903035 -0.043395497 
0.34643257 -0.8209238 -0.45394796 
-0.58863723 -0.26991662 -0.7620048 
0.21481295 -0.3044874 -0.9279778 
0.0058332495 -0.70596445 -0.7082233 
0.5384284 -0.33103883 -0.77492464 
0.07390917 0.9008765 -0.4277371 
0.60251355 -0.14062153 -0.78562266 
0.09958418 -0.3387716 -0.93558365 
0.72941124 -0.6723432 0.1261501 
-0.23407476 -0.9063341 -0.3518061 
0.29326 -0.42350113 -0.85711455 
0.4631452 -0.043699704 -0.8852045 
-0.46369186 -0.57465124 -0.6743633 
-0.01183424 -0.22151561 -0.975085 
-0.2430787 -0.8727847 -0.4232727 
0.028219195 -0.86244375 -0.50536567 
-0.8063518 -0.41338602 -0.42297623 
-0.5092096 -0.778564 -0.36680213 
-0.1486725 -0.77688515 -0.6118382 
-0.5544265 -0.7614896 -0.33577493 
-0.09580567 -0.6257914 -0.7740843 
-0.301643 -0.9355389 -0.18378918 
-0.21771428 -0.9274182 -0.30413184 
-0.34824544 -0.81400436 -0.4648893 
-0.17091313 0.33196896 -0.9276774 
-0.2519712 -0.58937883 -0.76755667 
-0.06176523 -0.9671457 -0.24660584 
-0.014051391 -0.8768909 -0.480484 
-0.8103176 -0.41399547 -0.4147206 
-0.50602645 -0.50932837 -0.69607615 
-0.35579014 0.36279094 -0.861276 
-0.42152232 0.20857619 -0.882505 
0.4347027 -0.51338357 -0.73991287 
0.0020698367 0.3507088 -0.93648237 
0.55768156 0.4079711 -0.7228768 
0.16711943 0.6777553 -0.716044 
0.6088264 0.11021543 -0.78561 
0.30826172 0.8752168 -0.37278733 
0.054856453 0.8158694 -0.57562834 
-0.9971028 0.05182955 -0.055674765 
-0.32167137 0.1566401 -0.9338048 
0.05923279 0.070150256 -0.99577636 
-0.8357839 0.31534317 -0.44947085 
-0.0033868114 -0.09243135 -0.9957133 
0.036978744 0.29220608 -0.9556402 
0.21307231 0.29656693 -0.9309395 
0.20666885 -0.21095578 -0.9553982 
0.33101845 -0.39607447 -0.8564764 
-0.23504917 -0.19931957 -0.9513274 
-0.15166807 0.29946035 -0.9419769 
0.24443765 0.52276134 -0.8166829 
0.41459888 -0.22670597 -0.88131285 
0.38880152 -0.40354857 -0.82824033 
0.34405428 -0.54675066 -0.76334155 
-0.21233125 -0.9465766 -0.24271049 
-0.48911697 -0.4216083 -0.76355153 
0.10126995 0.04029108 -0.99404275 
0.3022681 -0.8043116 -0.5115829 
-0.3018302 -0.9302924 -0.2084577 
-0.14676888 -0.89574206 -0.4196487 
-0.6532618 -0.03226928 -0.7564443 
0.5166236 0.06363291 -0.85384476 
-0.17105532 0.07118631 -0.98268646 
0.5674913 -0.58949316 -0.57484907 
-0.09633715 -0.5673173 -0.8178449 
-0.8403276 -0.0991221 -0.5329393 
-0.6692499 0.049494848 -0.7413871 
-0.5500341 -0.15431447 -0.82076156 
-0.057472818 -0.53705275 -0.8415886 
-0.5338343 -0.6999565 -0.47442806 
-0.118717685 -0.4168383 -0.9011948 
0.039810393 -0.6471378 -0.76133305 
0.9081486 -0.37625778 -0.1835657 
0.6246814 -0.49043828 -0.60765404 
-0.19512595 -0.46456283 -0.863775 
0.5306956 -0.7833781 -0.3235445 
0.2981242 -0.8182063 -0.4915898 
0.29894456 -0.94859743 0.10389915 
0.58716685 -0.55711156 0.5872494 
0.49383703 -0.8688626 -0.034679204 
0.29292035 -0.87730503 -0.3801756 
0.044154495 -0.48534432 -0.87320757 
0.28580257 0.3198385 -0.9033385 
0.31469902 -0.50851315 -0.8014854 
-0.6106663 -0.6717045 -0.4194042 
0.33558524 -0.92846483 0.15917155 
0.589197 -0.7764105 -0.22368196 
-0.5827852 -0.5388131 -0.6083107 
-0.25809065 -0.9391457 -0.22670425 
-0.32781082 -0.93436307 0.13966304 
-0.76732826 -0.61784714 -0.17167503 
-0.26815352 -0.88854253 0.3722712 
-0.32612705 -0.5153431 -0.792504 
0.46122077 -0.089645274 -0.8827452 
0.39492267 -0.6604433 -0.638632 
-0.2617162 -0.9646335 0.031415697 
-0.040471468 -0.999066 0.015143443 
-0.41748837 -0.31657705 -0.8517526 
0.2444773 -0.95996284 -0.13675609 
-0.39229348 -0.91167784 -0.12226797 
-0.32022607 -0.83338624 -0.4504694 
0.07519048 -0.9933385 -0.087322 
0.18834744 0.24090348 -0.95209813 
-0.3233119 -0.0002723718 -0.94629246 
-0.4665381 0.027324056 -0.884079 
-0.5494116 -0.36796135 -0.75016755 
0.14118417 -0.20757222 -0.96797776 
-0.2288102 -0.38064858 -0.8959647 
0.6499632 -0.44197607 -0.6182273 
0.79474163 -0.23229738 -0.5607351 
0.9903763 0.0423751 -0.1317547 
0.22627059 -0.3701069 -0.901012 
-0.5298416 0.12299013 -0.8391313 
-0.43014577 0.49327326 -0.75607944 
0.018457105 -0.42524633 -0.9048895 
0.83172053 -0.31334636 0.45831776 
0.19310957 -0.9253217 0.3263259 
-0.5439204 -0.8380757 0.04218724 
-0.617801 -0.38116857 -0.6877736 
0.24443243 -0.22902846 -0.94223076 
0.16860783 -0.81638294 -0.5523499 
-0.022876272 -0.46378067 -0.88565475 
-0.39984477 -0.6600263 -0.635995 
0.4378677 -0.6792863 -0.588933 
0.28821078 0.10946814 -0.9512893 
0.29232013 -0.7598012 -0.5807333 
0.32486024 -0.116809286 -0.9385209 
0.4448009 -0.38610443 -0.8081308 
0.5866489 -0.67942363 -0.44071168 
-0.027906513 -0.7387813 -0.67336726 
0.5407008 -0.57184297 -0.61695886 
0.66414464 -0.68657374 -0.295852 
0.68840754 -0.541202 0.4829032 
-0.113798186 -0.8597914 0.4978041 
-0.13228288 -0.7508789 0.6470565 
-0.77081144 -0.21802782 0.59859306 
-0.61393636 -0.65068203 0.44687253 
-0.6812214 -0.38115954 0.6250238 
-0.54319215 -0.44014484 -0.7149929 
0.06494097 -0.71415794 -0.6969657 
0.7899764 -0.5621023 -0.2449043 
0.6251161 -0.7046421 0.33572227 
0.084907465 -0.6483674 0.75657827 
-0.52912045 -0.73775315 -0.4192277 
-0.65004915 -0.033916272 -0.75913495 
0.04016743 -0.91250736 -0.40708348 
0.77554953 -0.34796092 -0.5267315 
0.11999088 -0.09609316 -0.9881136 
0.6556405 -0.3378204 -0.67528737 
0.3551216 -0.64584076 -0.6758539 
0.82494825 0.010282233 -0.56511474 
0.9480475 0.04095017 0.3154823 
0.8010896 0.4374395 0.40853667 
0.58670896 0.12802167 0.7996143 
0.3337387 -0.61084855 0.7179712 
-0.62791175 -0.03325279 0.7775739 
-0.92216295 -0.3589919 0.14401563 
-0.8982036 -0.37892604 0.22281258 
-0.34613863 -0.8608873 -0.37290895 
0.39081636 -0.44749546 -0.8043696 
-0.515934 0.06309614 -0.8543015 
-0.034640543 0.1412614 -0.98936605 
0.23571074 -0.8433727 -0.48286945 
0.10716629 -0.37614924 -0.9203409 
-0.1822595 -0.87703705 -0.44450822 
-0.31946993 0.18879175 -0.92859936 
-0.16354823 -0.6298516 -0.75930166 
-0.4383736 -0.1868332 -0.87915987 
0.2926737 -0.57738465 -0.7622133 
0.30545533 -0.10583224 -0.9463069 
-0.29455847 -0.52216625 -0.80036104 
-0.002594441 -0.08723245 -0.9961847 
0.73010653 0.24003875 -0.63978577 
-0.13720961 -0.12464181 -0.9826688 
-0.8048368 -0.18484922 -0.5639757 
-0.598992 -0.32294178 -0.7327464 
-0.26189628 0.24131085 -0.9344407 
-0.2549938 0.08238334 -0.96342677 
-0.23184732 -0.026988491 -0.97237784 
-0.0010272937 -0.89429444 -0.44747797 
-0.21316388 -0.63754237 -0.7403384 
0.18026678 -0.07671294 -0.98062176 
0.25404108 -0.16327378 -0.9533126 
0.10113422 -0.33981687 -0.9350382 
0.24802507 -0.26048726 -0.93307555 
0.27397847 -0.49954435 -0.821822 
0.021107834 -0.36102065 -0.9323189 
-0.41229638 -0.5377249 -0.7354344 
0.1432441 -0.91184986 -0.38472208 
-0.0763052 -0.85889363 0.50643784 
-0.38433117 -0.8953129 -0.22517642 
-0.48579532 -0.8690596 0.093480185 
-0.10488316 -0.983773 -0.14556885 
-0.587296 -0.80288213 -0.10229177 
-0.8774416 -0.0005279681 -0.47968346 
0.16438143 -0.40506798 -0.8993881 
0.09205239 -0.24597828 -0.96489435 
0.91565734 -0.027089499 -0.4010459 
0.5480185 -0.43952486 -0.71168375 
0.54917663 -0.63379353 -0.54471177 
0.3477009 -0.9143844 -0.20737715 
0.2840556 -0.95843047 -0.026899021 
0.65199256 -0.5711319 0.49871257 
0.10991382 -0.6014382 -0.79132235 
-0.2830922 -0.4954164 -0.8212317 
-0.4488367 -0.82637274 -0.3400789 
-0.44807914 0.009087624 -0.89394766 
-0.75724256 0.101890236 -0.6451372 
-0.45403805 -0.7049195 -0.54492015 
0.093044624 -0.8690666 -0.4858664 
-0.18930015 -0.96321 -0.19076726 
0.31472275 -0.9491238 -0.0106611615 
-0.2916301 -0.95567787 -0.040395778 
-0.07771863 -0.86478585 -0.49609017 
0.97900754 0.049219813 -0.19779204 
0.54158956 0.6566234 -0.5249061 
0.11652909 0.09095974 -0.9890134 
0.47624335 -0.70402706 -0.52681905 
-0.22769418 -0.57625437 -0.78491163 
-0.57369363 0.5122196 -0.6391454 
-0.41159058 0.22026868 -0.88435 
-0.19500293 0.3112332 -0.93011177 
-0.06978817 -0.2544727 -0.9645586 
-0.17441678 0.039880693 -0.98386407 
0.031171389 -0.20011452 -0.9792766 
0.23713431 0.17221102 -0.95609134 
0.42862198 -0.67185366 -0.60406625 
-0.15392052 -0.97738475 0.14500913 
-0.7637969 -0.5369989 -0.35811538 
-0.49089456 -0.64038026 -0.5907078 
-0.3803651 -0.75652516 -0.53197 
-0.5938051 -0.4724439 -0.6513005 
-0.5900153 -0.25171718 -0.7671509 
-0.57038486 -0.4755885 -0.669684 
-0.2021703 0.5433039 -0.81483006 
-0.59545535 0.49529898 -0.63254404 
-0.68993396 0.49729967 -0.5260079 
0.3265823 -0.02273331 -0.9448953 
-0.4362663 -0.43581745 -0.7872324 
-0.49215928 -0.3930067 -0.77674 
-0.40574557 -0.62559766 -0.6663318 
0.38901773 -0.89903736 -0.20099047 
-0.057413273 -0.79957503 -0.59781563 
-0.26556754 -0.877851 -0.39856187 
-0.55921733 -0.4560773 -0.69229287 
0.076573074 0.13368754 -0.98806083 
0.6045108 0.29826415 -0.73865104 
0.28800473 -0.12723488 -0.94913894 
0.24839562 -0.6716622 -0.6979754 
0.13966617 -0.12003205 -0.9828966 
0.588719 -0.15272903 -0.79377824 
0.16384824 -0.27735338 -0.9466937 
0.7857602 -0.17516257 -0.5932109 
0.72904146 -0.6408926 -0.24032307 
0.66203547 -0.40832588 -0.6284736 
0.1602913 -0.7238777 -0.67104983 
-0.105381176 -0.772249 -0.6265194 
-0.75516146 -0.29847547 -0.5836468 
0.12627661 -0.46873248 -0.8742679 
0.43696666 -0.38442168 -0.8131913 
0.12635766 0.54759043 -0.8271508 
-0.46307704 0.45178765 -0.7625271 
0.15812753 -0.37571043 -0.91314703 
0.54132974 -0.13550562 -0.8298195 
0.091669075 -0.71946293 -0.6884548 
-0.052606586 -0.50385994 -0.862182 
-0.6827651 -0.20666835 -0.7007995 
-0.42832687 0.37556854 -0.8218786 
-0.08743008 0.010794937 -0.9961122 
0.49223202 0.46087506 -0.7384456 
0.26250777 -0.4520585 -0.8524862 
0.30575442 -0.4776513 -0.82362825 
-0.097487114 -0.5061624 -0.85691065 
0.23734887 0.0052917805 -0.97141016 
0.052992385 -0.7940266 -0.6055689 
-0.096696176 -0.620832 -0.77795726 
-0.3408121 -0.85931426 -0.38134795 
0.02918296 -0.99028224 -0.13597625 
-0.3004902 -0.8096861 -0.5040973 
-0.34528956 -0.61321425 -0.71045303 
0.294661 -0.32737395 -0.8977757 
-0.025866931 -0.7605401 -0.6487756 
-0.19246064 -0.9757224 -0.10452257 
-0.6676416 -0.69916385 -0.25578246 
-0.28788543 -0.11085657 -0.951227 
-0.5053578 0.046415657 -0.8616608 
0.2792983 -0.0054865987 -0.96018875 
-0.09649682 0.45123348 -0.88717353 
0.6109335 0.66474766 -0.42996615 
0.6782783 0.109454334 -0.7266074 
0.88775903 0.30041817 -0.34875917 
0.91050094 0.049890086 -0.4104863 
0.8270008 -0.16343646 -0.53792024 
0.8639922 0.3881141 -0.3207569 
-0.30479607 0.70158166 -0.6441138 
-0.27352592 0.5332971 -0.8004861 
-0.42457473 0.3074923 -0.8515779 
0.27384683 0.6267108 -0.72954893 
-0.3048067 -0.23446935 -0.92310184 
0.6041568 -0.25544098 -0.75481427 
-0.15288112 0.49295363 -0.8565187 
0.009523936 0.3879246 -0.92164195 
-0.4157448 0.13883588 -0.898822 
-0.070879586 0.17791298 -0.98149025 
-0.29200983 -0.19614585 -0.93608606 
0.26000196 0.37322024 -0.8905648 
0.3184771 0.43336776 -0.8430687 
0.16266218 0.16003044 -0.9736176 
0.798735 0.13491064 -0.58636296 
0.71688026 -0.08773211 -0.69165444 
0.08641947 -0.5895895 -0.8030667 
-0.04930179 -0.69389606 -0.71838546 
0.1653779 -0.72914517 -0.66407645 
0.34187648 -0.88113415 -0.32668507 
-0.49155042 -0.717424 -0.49364075 
-0.28393015 -0.062453203 -0.95680887 
-0.7010604 0.31751817 -0.63851124 
-0.41229257 0.15173957 -0.8983262 
-0.24058071 -0.1511847 -0.95878273 
-0.06960586 0.08610883 -0.9938513 
-0.14637816 0.12657855 -0.981097 
0.23118472 0.18174915 -0.9557829 
-0.18427436 0.4842008 -0.85533184 
-0.8068808 0.53053343 -0.25976494 
-0.57149374 0.2119808 -0.7927541 
-0.44499236 0.1283434 -0.88628995 
0.7273675 -0.4165843 -0.5453385 
0.61537755 -0.78794175 0.021410268 
0.9780047 -0.19228792 -0.08082175 
0.6189997 -0.48960295 -0.6141077 
0.77338195 -0.33958927 -0.53531265 
0.6377619 -0.77003634 -0.017437024 
0.4915362 -0.667406 -0.55942965 
0.19148242 -0.9621309 -0.19400717 
0.17849675 -0.9428297 -0.28144473 
0.45379964 -0.8878737 -0.07580458 
-0.32771167 -0.8404838 -0.43149984 
-0.5979464 -0.06056477 -0.79924476 
-0.10243039 -0.07425557 -0.9919648 
-0.058957838 -0.4998736 -0.8640894 
0.046114787 -0.52568 -0.8494316 
0.1761803 -0.5445715 -0.8200015 
0.010450379 0.049637698 -0.9987126 
0.24604668 -0.56829524 -0.7851763 
0.016723521 -0.79458845 -0.60691804 
-0.11070136 -0.9132667 -0.39203218 
-0.24554563 -0.42872578 -0.8694261 
-0.56118405 0.0753891 -0.82425064 
-0.47004902 -0.43247193 -0.76942956 
0.3895321 -0.6530865 -0.6494174 
-0.46234247 -0.6526354 -0.6002553 
-0.3969595 -0.816158 -0.41989216 
-0.6231691 -0.75950503 0.18658061 
-0.9009347 0.2347571 -0.36497372 
-0.19220743 -0.6826062 -0.7050568 
-0.045756046 -0.621522 -0.7820593 
0.30227977 -0.17753343 -0.93654096 
0.5553888 -0.6058351 -0.5696553 
-0.02079614 -0.26228267 -0.964767 
-0.20136514 -0.10692187 -0.9736631 
-0.64496493 -0.14848629 -0.74964803 
-0.3362018 0.030431041 -0.94129825 
0.17470674 -0.08672043 -0.9807942 
0.073333226 -0.112813585 -0.9909064 
0.083305344 0.081170164 -0.9932129 
0.50523883 0.37370402 -0.7778684 
0.066887744 0.028680021 -0.9973483 
-0.21070513 -0.11032138 -0.97130466 
-0.15257592 -0.14646949 -0.9773778 
0.17302218 -0.1668225 -0.97068727 
0.9658367 -0.09394945 -0.24152233 
0.49552906 -0.30369896 -0.8137677 
0.3297494 -0.91251475 -0.24203773 
-0.24133222 -0.75310224 -0.61204237 
0.13546391 -0.9414859 -0.30863234 
-0.3399935 -0.92075455 0.19135213 
-0.38471296 -0.8636849 0.3256445 
-0.31357872 -0.94839156 -0.04713657 
-0.14768685 -0.27671257 -0.9495361 
0.6030009 -0.23307326 -0.762933 
0.16623236 -0.2272391 -0.9595463 
0.026372137 -0.6911733 -0.7222077 
0.857459 0.05848047 -0.51121837 
0.7467718 -0.24435744 -0.6185639 
0.42691463 -0.8298781 -0.35922995 
-0.13244706 -0.8234943 -0.55164737 
0.47394603 -0.7347832 -0.4852513 
0.016698638 -0.9959694 -0.08812581 
0.5996226 -0.7986105 -0.05171222 
0.42881125 -0.9018082 -0.05350615 
0.1841705 -0.98196197 0.04280107 
-0.38215446 -0.7537357 0.5346404 
-0.550419 -0.55529743 0.6234451 
-0.53898656 -0.8201097 -0.19212912 
-0.6218704 -0.71471274 -0.3200984 
-0.33536124 -0.5931977 -0.7318808 
0.3877287 -0.5846723 -0.7126183 
0.3270544 -0.67349607 -0.66290164 
0.057290196 -0.7357369 -0.6748401 
0.15036862 -0.48819327 -0.8596841 
-0.15453605 -0.06100306 -0.98610204 
-0.05526459 -0.5872922 -0.8074862 
0.73125726 0.10536977 -0.67391396 
0.7454386 -0.19049713 -0.63877404 
0.6539949 -0.276771 -0.70405155 
0.6508968 -0.634114 -0.4174122 
0.96476907 0.02326255 0.26206765 
0.1611911 0.87153393 0.46308342 
0.8034448 -0.0003536747 0.5953793 
-0.06387125 -0.7172828 0.69384867 
-0.038792934 -0.8731319 0.4859382 
-0.52872455 -0.65362465 0.54150283 
-0.29864562 -0.35138384 0.887322 
-0.5890976 -0.70934117 0.38703895 
0.040220622 -0.9697875 -0.24061292 
0.00065445533 -0.680631 -0.73262614 
-0.017016783 0.06332041 -0.9978482 
0.8546166 0.20626496 -0.47653478 
0.5874463 -0.2597537 -0.7664431 
0.46261454 -0.4012385 -0.7905667 
0.45529628 -0.47480598 -0.75316983 
-0.823442 0.18583363 -0.5361057 
-0.45526594 -0.69937015 -0.5510121 
-0.515957 0.61150503 -0.599875 
-0.05321296 0.12687342 -0.99049056 
-0.5200847 -0.19360563 -0.8318828 
0.073673494 0.051310994 -0.9959616 
-0.066129565 -0.17608544 -0.9821511 
0.0834291 0.21598902 -0.972825 
-0.2705195 0.23744208 -0.93297404 
-0.2888573 -0.22515602 -0.9305194 
-0.86829203 -0.2499719 -0.42846596 
-0.20355049 0.14051159 -0.96892923 
0.29470962 0.029950602 -0.95511734 
0.23407854 -0.52981085 -0.8151734 
-0.34224695 -0.058118217 -0.937811 
0.047686636 -0.3369692 -0.9403073 
0.12066561 -0.2055936 -0.97117007 
0.045561977 0.2754049 -0.96024805 
0.1919237 0.047381647 -0.9802655 
0.46934792 -0.8560768 -0.21643741 
0.6288973 -0.45991644 -0.6268693 
0.57613933 -0.40351868 -0.71079963 
0.7636779 -0.62852097 0.14750433 
-0.2221664 -0.89609486 -0.38426065 
-0.70582247 -0.70030355 0.106722385 
-0.40457177 -0.84499544 -0.3497207 
-0.582111 -0.77604157 -0.24270669 
-0.3224114 -0.8881101 -0.32758403 
0.28539583 -0.7748392 -0.5640687 
-0.45225832 -0.6384746 -0.62274605 
0.3807102 -0.56728286 -0.7302396 
0.6880835 -0.34323686 -0.63931966 
0.6613884 -0.70974153 -0.24255396 
0.31331685 -0.94905066 -0.03369577 
0.15223227 -0.3974847 -0.90489304 
0.69665486 -0.70624316 -0.1260657 
0.46356782 -0.8459625 -0.26353836 
0.38089567 -0.8674066 -0.32019445 
-0.4538725 -0.7405232 -0.49560586 
0.17226732 -0.95776284 -0.23024876 
-0.087852895 -0.61039954 -0.7872067 
-0.056326453 -0.07355329 -0.99569947 
-0.38758248 0.545026 -0.7434558 
-0.28184524 -0.42434442 -0.8605203 
-0.2727593 -0.7692002 -0.5778698 
0.16574937 -0.74858934 -0.6419823 
-0.1276864 -0.7084317 -0.69413304 
-0.020192413 -0.49435616 -0.869025 
0.16871224 -0.61008185 -0.77416813 
0.6957046 -0.114863716 -0.70908505 
0.89880663 -0.28452796 -0.33345243 
0.64833015 0.5153605 -0.560421 
0.2844544 0.33276486 -0.89908475 
0.6124059 0.40479577 -0.67904305 
0.10494225 0.3116746 -0.94437605 
-0.068773285 0.08624596 -0.9938974 
-0.018175213 0.40943825 -0.91215676 
0.111548975 -0.05712678 -0.9921156 
0.68100953 0.20914313 -0.701773 
-0.19596687 -0.018243419 -0.9804408 
0.24620375 -0.7830809 -0.5711113 
0.3490771 -0.85241544 -0.38927266 
0.6277594 -0.60231185 -0.49309087 
-0.5864761 -0.4103531 -0.69832385 
-0.25147304 0.056711096 -0.9662015 
-0.43493146 0.092768386 -0.89567226 
-0.52009016 -0.1449737 -0.8417179 
0.22886913 -0.64375114 -0.73020786 
0.5724872 -0.43200493 -0.6968717 
-0.3388928 -0.17276464 -0.92482656 
-0.6702283 -0.3255783 -0.66692793 
-0.6118537 0.5122401 -0.60269827 
0.41545472 0.29460073 -0.86058575 
0.19035812 -0.55989766 -0.8063984 
-0.4464504 -0.0021632595 -0.89480585 
-0.052425742 -0.46913508 -0.8815691 
0.3358778 -0.6710691 -0.6609481 
0.21130592 -0.9688815 -0.12891294 
0.6371069 -0.5654913 -0.52375036 
-0.16329686 -0.29087242 -0.9427234 
-0.47646472 -0.53142524 -0.7004061 
-0.013572612 0.062888026 -0.9979284 
0.4145954 0.053132754 -0.9084534 
0.48791987 -0.72841614 -0.4809825 
-0.10797894 -0.15640853 -0.98177236 
0.21359299 0.16860646 -0.96226287 
0.35219625 0.12252158 -0.927872 
-0.029481128 0.5163759 -0.8558545 
0.45383886 -0.5948379 -0.6634743 
-0.13626415 -0.6007302 -0.78775346 
0.16177852 -0.32515463 -0.93172 
0.17424501 -0.64633495 -0.74289286 
-0.18761392 -0.8772566 -0.4418392 
-0.22657692 -0.25818637 -0.93915004 
0.12856379 -0.34837267 -0.9284977 
0.20661962 -0.039287586 -0.9776323 
-0.10373774 -0.03888081 -0.99384445 
-0.2738508 -0.02096988 -0.9615436 
0.2183276 -0.19003895 -0.95719296 
-0.21014468 -0.18347245 -0.9603005 
-0.4402265 -0.18381746 -0.87886965 
-0.6273753 -0.4400431 -0.64246583 
-0.30932885 -0.066086695 -0.948656 
-0.34919995 0.37914607 -0.85691756 
0.1090784 0.1235861 -0.9863207 
0.093675315 -0.58026093 -0.80902547 
-0.004966768 -0.47311255 -0.88098806 
-0.60329527 -0.48367682 -0.634107 
-0.2785608 -0.5478776 -0.7888181 
-0.6714651 -0.4582557 -0.58235425 
-0.50595033 -0.0066460823 -0.86253715 
-0.50785875 -0.108917296 -0.8545272 
-0.25795135 -0.7323053 -0.63023025 
-0.27208668 -0.311572 -0.91043496 
0.06880923 -0.85622627 -0.51199806 
0.35269988 -0.68117213 -0.64156634 
0.21457396 -0.5947912 -0.7747139 
-0.7627274 -0.48199907 -0.43118897 
-0.36311793 -0.68028355 -0.63667864 
-0.5420916 0.71488297 -0.44167766 
-0.054506075 0.074147396 -0.9957567 
0.413952 -0.5621675 -0.71596897 
-0.096804254 0.36032543 -0.92779016 
-0.2224945 -0.17337559 -0.9593942 
0.34634244 -0.09982953 -0.9327814 
-0.7318679 0.1164219 -0.67142785 
0.32498845 -0.09133028 -0.94129777 
0.15040344 -0.05078793 -0.98731935 
0.5432715 0.6636382 -0.5142378 
0.13883185 0.47019237 -0.8715761 
-0.09613394 0.62557393 -0.7742193 
0.4654695 -0.18266408 -0.8660093 
0.26852357 0.35282102 -0.89633286 
-0.34193584 -0.16204672 -0.9256462 
0.6151862 -0.2210033 -0.7567718 
0.6203931 0.3058526 -0.72219574 
0.37174797 0.18705192 -0.9092937 
0.011599567 -0.06364092 -0.99790555 
0.17421943 0.40133053 -0.8992116 
0.36017278 -0.14693627 -0.9212412 
-0.1873887 0.49852076 -0.846382 
0.6942026 0.16401848 -0.7008429 
0.83910066 -0.2160033 -0.49925226 
-0.075514495 -0.2986455 -0.9513719 
0.62497646 -0.34795928 -0.6988053 
0.09562239 -0.74817467 -0.6565753 
-0.04869535 -0.7017703 -0.7107371 
-0.5705035 -0.74151766 -0.35309687 
-0.38177463 -0.17434493 -0.90766305 
-0.09035435 0.122383244 -0.98836154 
0.05620896 0.6236744 -0.77966076 
-0.016968073 0.28923637 -0.95710737 
0.21858323 -0.1294339 -0.9671961 
-0.2987358 -0.20848052 -0.93128556 
0.069699466 0.017805463 -0.99740916 
-0.053619694 0.073557824 -0.9958485 
0.04846552 -0.5861478 -0.8087533 
0.19689558 0.16014531 -0.9672567 
-0.41504404 0.08416042 -0.9059005 
-0.94947666 0.08461633 -0.3022156 
-0.46432272 -0.084539846 -0.8816221 
-0.2341987 -0.21861613 -0.9472899 
0.38149193 -0.5596081 -0.73573285 
0.558879 0.51382667 -0.65087366 
0.79249877 0.037422065 -0.6087244 
0.9106241 -0.40564445 0.0788439 
0.66680646 -0.4880194 -0.56321067 
0.3406704 -0.8743655 -0.34558472 
0.5353597 -0.437103 -0.72272474 
0.5406992 0.398948 -0.74059767 
0.0037039896 -0.2662322 -0.9639018 
-0.37543058 0.20355923 -0.904221 
-0.6114002 0.13547285 -0.77963907 
0.029395059 -0.5314685 -0.84656787 
-0.22905737 -0.11441714 -0.96666515 
0.42271584 -0.61274385 -0.6677247 
0.5751902 -0.61390084 -0.5406312 
0.5132467 -0.2839978 -0.8098908 
0.47875744 -0.29968774 -0.8252144 
0.24259801 0.24911007 -0.9375983 
-0.31700084 0.4388672 -0.8407771 
-0.10283948 0.06334408 -0.99267906 
-0.41676015 -0.236917 -0.87759984 
-0.6204958 -0.7715975 -0.14007959 
-0.40996125 -0.8878732 -0.20883732 
-0.38162202 -0.80573565 -0.4529402 
-0.39551693 -0.21783067 -0.89225346 
-0.6224218 -0.192795 -0.7585653 
-0.51015824 -0.09818375 -0.8544581 
-0.044947818 -0.06882571 -0.99661565 
-0.48068914 -0.28353298 -0.8297873 
-0.3070067 -0.81974274 -0.4834964 
-0.0102444375 -0.2615915 -0.9651243 
-0.19084775 0.1606904 -0.9683779 
-0.11812698 -0.4266281 -0.8966797 
-0.7757411 -0.40226173 -0.48622155 
-0.13352431 -0.5333538 -0.8352874 
-0.1377892 -0.33554128 -0.93189394 
0.17613019 -0.17050856 -0.96948695 
0.75421697 0.3382355 -0.5628087 
0.4240932 0.5809997 -0.69468296 
0.09060847 -0.49497923 -0.8641676 
0.11900967 -0.3387312 -0.93332624 
-0.50828713 -0.45683494 -0.7300316 
0.07006588 -0.20990004 -0.9752092 
0.47688574 -0.4742021 -0.740076 
0.5759916 -0.031141907 -0.8168622 
0.21262103 -0.9428697 -0.25649363 
-0.04146497 -0.9813022 -0.18795423 
0.13507946 -0.6596317 -0.7393508 
0.06703601 -0.48649216 -0.87110937 
0.08866508 -0.4000343 -0.9122013 
-0.66634417 -0.487117 -0.5645375 
-0.18118471 -0.67976296 -0.71070004 
0.095656484 -0.044582207 -0.99441564 
-0.41329774 -0.49408308 -0.7648968 
0.470447 -0.31690088 -0.8235615 
0.99929076 -0.036350183 -0.009831268 
0.39586243 -0.9040023 -0.16147116 
0.6146169 -0.7477167 -0.25132832 
0.2258846 -0.8784347 -0.42110425 
0.805823 -0.55238867 -0.2133453 
-0.14080359 -0.764869 -0.62860954 
-0.15750556 -0.72225845 -0.67344993 
0.34254625 -0.87723637 -0.3363308 
0.26863065 -0.8696523 -0.41417715 
-0.17432962 -0.9812046 -0.082745194 
-0.726169 -0.61193377 -0.31339377 
-0.66834503 -0.6126169 -0.42191887 
-0.88482326 -0.15368712 -0.4398503 
-0.23106703 -0.09198142 -0.9685802 
0.05506999 -0.6941639 -0.71770734 
0.19191286 -0.5089288 -0.83914304 
0.7345529 -0.18783732 -0.65203464 
-0.14762905 -0.4869252 -0.8608773 
0.42915455 -0.6767751 -0.59816545 
0.5190655 -0.21563515 -0.82708675 
0.4610329 -0.05546085 -0.8856483 
-0.25808588 -0.025926694 -0.9657741 
0.77752197 -0.50956005 -0.36852148 
0.09017548 -0.98297185 0.16010901 
0.4993043 -0.15446052 0.85254747 
0.37073475 -0.014147888 0.928631 
0.91741943 -0.29124874 0.27113816 
0.35775924 -0.6541089 0.6664458 
-0.50814164 -0.40353578 0.7608883 
-0.18321232 -0.9631321 0.19700211 
-0.32926387 -0.58225787 0.7433446 
-0.6064731 -0.50422853 0.6147716 
-0.66672266 -0.5107866 -0.5427504 
0.21680473 -0.80961037 -0.5454602 
0.4066572 0.16756053 -0.89808315 
0.5038321 0.102058984 -0.8577513 
0.6694867 -0.26654643 -0.69335467 
0.44276485 -0.28748715 -0.8493001 
-0.120673135 -0.91824114 0.3771886 
-0.06362878 -0.98423386 -0.1650306 
-0.6547576 0.122776076 -0.7458007 
-0.911017 -0.38502744 -0.14765507 
-0.7031064 -0.26633587 -0.6593229 
-0.5150792 -0.1735591 -0.83938706 
-0.027923994 -0.0873976 -0.9957821 
-0.42817852 -0.7897178 -0.43932793 
-0.35044527 -0.2613174 -0.8993895 
-0.8996844 0.24509184 -0.3612451 
-0.21102946 0.2377389 -0.94812804 
0.030171994 -0.4572874 -0.88880706 
0.38262895 0.05931882 -0.9219959 
0.16249248 0.31121916 -0.9363434 
-0.2285151 -0.0050934907 -0.97352713 
-0.23499672 0.4035781 -0.8842519 
-0.1442273 0.59032404 -0.79417634 
-0.35583502 -0.39458546 -0.84716225 
0.2420712 0.20827486 -0.9476409 
0.5832576 -0.16525953 -0.79529864 
0.271187 -0.48921463 -0.8289311 
0.3482098 -0.30701312 -0.885716 
0.64244276 -0.32846695 -0.69237036 
0.55088735 -0.78196234 -0.2916474 
-0.33423525 -0.61841106 -0.71123457 
-0.8407458 -0.22212298 -0.49376923 
-0.71598625 -0.49184895 -0.4954275 
-0.47049916 -0.55355227 -0.68717575 
0.21917127 -0.36933064 -0.903083 
0.09390101 -0.33092 -0.93897533 
-0.08580972 -0.2857704 -0.9544485 
-0.10148899 -0.1550327 -0.9826825 
-0.049871687 -0.16156012 -0.98560196 
-0.34462768 -0.9186604 -0.19311902 
-0.022409217 -0.29545084 -0.9550951 
0.50677747 -0.5548576 -0.65978 
0.17823505 -0.85975564 -0.47859442 
0.03982933 -0.51100504 -0.85865444 
-0.13175534 -0.94934046 -0.28529483 
-0.46229002 -0.87796855 -0.12433553 
0.011384423 -0.84570277 -0.5335329 
0.2235827 -0.88251567 -0.41373554 
-0.0011574843 -0.8956132 -0.44483244 
0.0071676713 -0.43020958 -0.90270066 
0.35486546 -0.050082117 -0.9335751 
0.023471834 -0.43716744 -0.89907384 
0.6363778 0.035547204 -0.7705581 
0.2412605 0.06795172 -0.96807855 
0.107125044 -0.18654564 -0.9765885 
0.53714275 -0.3423304 -0.7709005 
0.48007938 -0.5170379 -0.7086576 
0.42479593 -0.6119839 -0.6671013 
0.09006306 0.119667955 -0.9887205 
0.5455966 0.2831193 -0.7887762 
0.23325723 -0.034364976 -0.97180766 
0.35164064 -0.010839306 -0.93607235 
0.18049102 0.5757687 -0.7974418 
0.17727274 0.364393 -0.9142167 
0.02921113 0.6651216 -0.7461635 
0.23479767 0.2577486 -0.937249 
-0.29447615 -0.06969758 -0.9531139 
0.17893907 -0.49957335 -0.8475892 
0.22158289 -0.54539824 -0.8083576 
0.46279722 -0.4766853 -0.7473887 
0.09335447 -0.08814475 -0.99172354 
0.2939372 -0.064392574 -0.95365334 
-0.2818911 0.2645869 -0.92224246 
-0.20138997 0.1463499 -0.9685163 
-0.7533356 -0.39125904 -0.5285848 
-0.22840257 -0.67966336 -0.6970581 
-0.6691703 0.36803156 -0.6455725 
-0.67817783 -0.44602254 -0.5840709 
-0.61618286 0.2144955 -0.75783277 