# OOMMF: rectangular mesh v1.0
# Segment count: 1
# Begin: Segment
# Begin: Header
# Desc: Time (s) :  7.030000000000016e-07
# Title: m
# meshtype: rectangular
# meshunit: m
# xbase: 2e-09
# ybase: 2e-09
# zbase: 5e-10
# xstepsize: 4e-09
# ystepsize: 4e-09
# zstepsize: 1e-09
# xmin: 0
# ymin: 0
# zmin: 0
# xmax: 1.024e-06
# ymax: 1.024e-06
# zmax: 1e-09
# xnodes: 256
# ynodes: 256
# znodes: 1
# ValueRangeMinMag: 1e-08
# ValueRangeMaxMag: 1
# valueunit: 
# valuemultiplier: 1
# End: Header
# Begin: Data Text
-0.9396363 0.33202988 -0.08270385 
-0.5147504 -0.59315985 -0.61902624 
-0.9851613 -0.054220155 0.16284215 
-0.5226821 0.3050231 -0.7960933 
-0.7813121 0.24547815 -0.57383966 
-0.74834245 -0.021407006 -0.662967 
-0.16590519 -0.058135096 -0.9844266 
-0.14277774 -0.283961 -0.9481459 
0.119097926 -0.12655139 -0.98478454 
0.57992554 -0.5233924 -0.624297 
0.3197752 -0.94372374 -0.08443538 
-0.69736 -0.65941656 -0.28081828 
-0.90609515 -0.3875729 -0.1696431 
-0.709575 -0.3062476 -0.6345989 
-0.30617198 -0.70282835 -0.642099 
-0.22277117 -0.58594114 -0.77913165 
0.03763377 -0.53390163 -0.8447088 
-0.3157536 -0.48868358 -0.81331915 
-0.561614 -0.48593956 -0.66966593 
-0.022634776 -0.12581295 -0.9917958 
0.38988468 0.17107736 -0.9048329 
-0.0068648183 0.3408413 -0.9400958 
0.72098935 -0.24577786 -0.64789474 
0.73345196 0.0015899008 -0.6797395 
0.49230054 0.1484438 -0.85767406 
0.884406 -0.25326928 -0.39202148 
0.8843681 0.16787608 -0.43555793 
0.7830479 0.4581587 -0.42062646 
0.77462643 0.1776856 -0.6069446 
0.10328443 -0.35767213 -0.928118 
-0.06134806 -0.11758567 -0.99116606 
-0.38013154 -0.009363627 -0.92488503 
0.25188857 -0.08537459 -0.9639831 
-0.21853426 -0.35212317 -0.9100836 
0.32134607 -0.28754634 -0.9022494 
0.13447051 -0.48844495 -0.8621712 
0.65911484 -0.75121975 0.0351672 
0.6025955 -0.20146184 -0.77219933 
0.7013786 -0.6574738 -0.27531138 
0.301636 -0.8708263 -0.38817167 
0.35683417 -0.8532525 -0.38030213 
0.35885704 -0.7345627 -0.57588124 
0.17036097 -0.94415474 -0.28204447 
0.5751099 0.1624954 -0.8017755 
0.021795234 -0.35319716 -0.935295 
-0.660806 -0.33057716 -0.67383546 
-0.077309795 -0.7935595 -0.6035617 
-0.51415396 -0.808982 -0.2849453 
0.019465828 -0.9412994 -0.33701128 
0.017007664 -0.96884024 -0.2471019 
0.44040412 -0.8421588 -0.31114763 
0.19975439 -0.94857347 0.24557392 
0.31844383 -0.46343413 -0.8269356 
0.15834816 -0.535318 -0.8296751 
0.68895924 -0.4653015 -0.5557245 
0.48161238 -0.734982 -0.47733748 
0.43248808 -0.90081066 -0.038656488 
-0.012393038 -0.9019802 0.43159965 
-0.25584826 -0.92494744 -0.28109396 
0.007074226 -0.20411083 -0.97892225 
-0.3360403 -0.016752424 -0.9416986 
-0.00062188134 -0.7761463 -0.63055277 
0.6251322 -0.3293011 -0.7076515 
0.10563257 -0.8707077 -0.4803226 
-0.26085073 -0.91314757 -0.31323886 
0.031380273 -0.7699202 -0.6373682 
-0.1326686 -0.54847616 -0.82557434 
-0.83217824 -0.13644618 -0.53745884 
-0.6380221 -0.7438479 0.19904314 
-0.82176584 -0.48895088 -0.2926225 
-0.3638626 -0.8523138 -0.3757194 
-0.9891724 -0.118854836 0.086090825 
-0.27648973 -0.5295423 -0.8019592 
-0.6834774 -0.5450094 -0.48561668 
-0.39197412 -0.8418801 -0.37093705 
-0.08713712 -0.605513 -0.7910507 
-0.52387327 -0.5812903 -0.6226222 
0.1618329 -0.95261717 -0.25754747 
0.7531876 -0.614118 -0.23572792 
0.013102008 -0.47723985 -0.8786754 
0.8138979 -0.2696496 -0.514645 
0.18576449 -0.7928732 -0.58038247 
-0.12956217 -0.98225594 -0.13559867 
-0.09824121 -0.97918355 0.17761849 
-0.52408445 -0.7843386 -0.33188638 
-0.2731196 -0.77739835 -0.56661946 
-0.6320878 -0.47843012 -0.6095651 
0.055572473 0.0621134 -0.9965208 
0.1694807 -0.25085282 -0.95307356 
0.49556944 0.08558875 -0.86434114 
-0.5124466 -0.5673129 -0.6446353 
-0.5987584 -0.41641977 -0.68416595 
-0.86395675 -0.20130292 -0.46157986 
-0.30685586 -0.8573767 -0.41321284 
0.3311316 -0.69492924 -0.63829875 
0.901565 -0.42065966 -0.10112413 
0.5846976 -0.707606 -0.396765 
0.35750222 -0.42567682 -0.8312589 
0.41454998 -0.20774482 -0.88599694 
0.5865279 0.023439744 -0.80958986 
-0.07131145 -0.52672446 -0.8470396 
0.99147946 -0.108578734 -0.07196629 
0.94467306 -0.32790336 0.008503397 
-0.77914774 -0.514623 0.35789943 
-0.19391511 -0.8053336 0.5602095 
-0.94194204 -0.10225188 0.31982777 
-0.7537092 -0.3838094 -0.53349125 
-0.49142963 -0.67991763 -0.5442508 
-0.2771576 -0.9449375 -0.17400229 
-0.48451856 -0.745475 -0.45772147 
-0.43211606 -0.43563446 -0.7896191 
-0.31380746 -0.11711408 -0.9422363 
-0.052952908 -0.23982964 -0.9693698 
-0.31325266 0.15912186 -0.9362442 
0.33004954 0.18166192 -0.92631865 
0.18017986 -0.17792119 -0.96740854 
0.47488356 0.23435865 -0.84826976 
0.95763373 -0.28559068 0.03708984 
0.34419578 0.8290927 -0.44060722 
0.11226267 0.60258484 -0.79011947 
-0.23499022 0.092846535 -0.96755326 
0.83818436 -0.54447734 -0.03148919 
0.5511082 -0.805292 0.21859677 
0.03569937 -0.90100557 -0.43233615 
-0.653149 -0.39552516 -0.64572144 
0.32215303 -0.64679813 -0.6912812 
0.08038626 -0.6642578 -0.74316865 
0.4106444 -0.8081746 -0.4221671 
0.262136 0.112359695 -0.9584676 
-0.18659759 -0.15404524 -0.9702842 
-0.12566939 -0.889294 -0.43973118 
-0.9573022 -0.1954535 -0.21300326 
-0.8104952 -0.5173746 -0.27462903 
-0.047820535 -0.97114635 -0.23364091 
-0.095081694 -0.7828284 -0.61493033 
0.5544141 -0.74840367 -0.3640288 
0.5829665 -0.6788753 -0.44640604 
0.11335498 -0.99247456 0.04631509 
0.16050093 -0.66339177 0.73085624 
-0.11529019 -0.9161543 0.38388732 
-0.4455275 -0.8808159 -0.16021454 
-0.6983216 -0.6857002 -0.20533457 
-0.95739335 -0.24003275 0.16056897 
-0.86043394 -0.50658065 -0.055042025 
0.06254165 -0.21881288 -0.9737605 
-0.8502466 0.35015002 -0.39303413 
-0.106657 -0.35122705 -0.93019557 
0.056243714 0.28663597 -0.9563872 
0.4711322 -0.06342179 -0.87977964 
0.098494746 -0.97090304 -0.21827997 
0.30197543 -0.76873994 -0.56378156 
-0.551243 -0.4107735 -0.72622055 
-0.46117184 -0.6447967 -0.6095555 
-0.23337097 -0.61664206 -0.75185823 
-0.08429567 0.1312131 -0.9877639 
-0.034708057 0.1335198 -0.99043816 
-0.41054788 0.06008658 -0.9098573 
-0.5756267 0.22483039 -0.78619677 
0.13906482 -0.5004266 -0.8545375 
0.31449214 -0.44378197 -0.8391379 
0.073023036 -0.62729084 -0.77535397 
0.29045865 -0.5163819 -0.80559516 
0.13570645 -0.64272743 -0.75397956 
-0.00046240495 -0.91133946 -0.41165552 
0.8045265 -0.5253311 -0.277064 
0.30320185 -0.7696567 0.56186944 
0.14767362 -0.76315004 0.6291221 
0.05959356 -0.9841904 0.16678743 
0.1197035 -0.9920131 -0.03976271 
0.8595979 -0.49885705 -0.11060275 
-0.14607209 -0.8710041 -0.46905735 
-0.2346725 -0.75932664 -0.6069201 
-0.18786722 -0.39859742 -0.8976782 
-0.17024082 -0.48478714 -0.85790426 
0.023597015 -0.266196 -0.9636301 
0.5288533 -0.049037557 -0.8472954 
0.5673171 -0.15371113 -0.8090268 
0.6569739 -0.21614169 -0.72226596 
0.64688444 -0.08424501 -0.7579204 
0.7779663 -0.52483267 -0.34542587 
0.12197314 -0.59408057 -0.7951043 
0.7093669 -0.33082384 -0.62237793 
0.15227245 -0.08028412 -0.98507243 
0.13891833 0.8098161 -0.5699997 
-0.20922509 -0.46045488 -0.8626739 
0.15751055 -0.022235855 -0.98726696 
-0.119643256 -0.14331417 -0.9824187 
-0.009012018 -0.2543324 -0.96707493 
0.6574889 -0.61753064 -0.4316994 
0.9759563 -0.18724002 -0.111581825 
0.08454815 -0.9361698 0.34122986 
0.16752648 -0.9786489 0.119085096 
-0.34111947 -0.7771897 0.5287852 
-0.59410906 -0.4813081 0.64449745 
-0.79968363 -0.58319527 0.14279132 
-0.5488122 -0.40988708 -0.72855866 
0.21341765 -0.33578143 -0.9174442 
-0.2975824 -0.7038492 -0.6450125 
0.09638034 -0.9861412 -0.13504297 
0.8965373 -0.38904834 -0.21180752 
-0.47207546 -0.21430044 -0.8551141 
0.6575826 -0.6239949 -0.422156 
-0.10285757 -0.9925263 -0.06566468 
-0.6978638 -0.65067387 0.29934877 
-0.9052703 -0.2861477 0.31401482 
0.22410466 -0.81357074 -0.53654426 
0.19486198 -0.820174 0.53790647 
0.267027 -0.95951486 -0.0895981 
-0.65966433 -0.7447421 0.10100602 
-0.06613176 -0.97931606 0.19122437 
-0.2228424 -0.94835067 -0.22577061 
-0.5494951 -0.8050986 -0.2233193 
-0.48149586 -0.71520084 -0.5066059 
-0.41622937 -0.34102032 -0.842887 
0.7058698 -0.6935433 0.1440331 
-0.028000822 -0.5091151 -0.8602429 
-0.6007176 -0.508753 -0.61669177 
-0.7486109 -0.24230848 -0.6171453 
-0.1614931 -0.8898055 -0.42680958 
-0.18316214 -0.9789698 -0.089832135 
0.04861304 -0.3140578 -0.9481585 
0.09165102 0.20029597 -0.97543925 
0.5203016 -0.45068127 -0.7253777 
-0.50862294 -0.682517 -0.5248556 
-0.7432094 -0.6679546 0.03842433 
-0.69014424 -0.4373323 -0.5765773 
0.21508586 -0.7275824 -0.6514308 
0.095272906 -0.0961691 -0.99079496 
0.48558947 -0.70127857 -0.5219304 
0.3063693 -0.94327116 -0.12797424 
0.36876976 -0.80348915 -0.4673479 
0.4785934 -0.06059292 -0.8759434 
0.16271313 -0.34367514 -0.92488486 
0.6065741 -0.38166177 -0.6974254 
0.7388552 0.06429028 -0.67079043 
-0.21171759 -0.71931076 -0.6616402 
0.22672594 -0.85631955 -0.4640176 
-0.6002084 -0.30919605 0.7376637 
-0.4527186 -0.42409334 -0.78434104 
-0.02710512 0.4009887 -0.91568196 
0.11269724 0.0013129263 -0.99362856 
0.5866683 -0.3513612 -0.7296339 
0.705851 -0.51554483 -0.48578593 
0.3925697 -0.1509237 -0.9072547 
-0.51204216 -0.6370437 -0.5761842 
-0.02624677 0.087085806 -0.9958551 
-0.49481687 0.24653614 -0.8332924 
-0.580233 -0.543552 -0.6065319 
-0.64925987 -0.22223566 -0.727374 
0.18328369 -0.6998 -0.6904253 
-0.52630985 -0.78675497 -0.3225132 
-0.7462953 -0.56433535 -0.35294333 
-0.516747 0.01729632 -0.85596347 
0.20552762 -0.3349493 -0.91954744 
-0.2029327 -0.34487337 -0.91645 
0.63972807 -0.34962767 -0.68447685 
-0.89047843 0.14959334 0.42973253 
-0.85095966 -0.3097892 -0.42414436 
-0.6081782 -0.063650474 -0.79124457 
-0.476645 0.30252692 -0.8254011 
-0.3220771 0.19541787 -0.92632514 
-0.59040046 -0.52852124 -0.609994 
-0.42623472 -0.2350042 -0.8735543 
0.15252644 -0.05567401 -0.98673004 
0.39297363 -0.06409988 -0.917313 
0.20816933 -0.19154102 -0.9591546 
0.39125958 -0.4548498 -0.8000172 
0.2529886 -0.10744148 -0.96148485 
-0.11878833 -0.92934394 -0.3495842 
-0.7033024 -0.6580659 -0.26891458 
-0.5833202 -0.31923378 -0.74687845 
-0.44061786 -0.025293577 -0.8973384 
0.004661756 0.1057748 -0.9943792 
-0.15648298 -0.48013574 -0.86312383 
-0.09089025 -0.5643505 -0.82051665 
0.14691053 0.086971834 -0.98531884 
-0.08826191 0.5326577 -0.84171593 
0.013574667 0.8768218 -0.48062396 
0.20875634 0.2896977 -0.934075 
-0.45362887 0.81229615 -0.36660045 
0.17935422 0.2085127 -0.9614336 
0.49118772 -0.18341891 -0.85152346 
0.7725981 0.59075874 -0.23258622 
0.50982636 0.29635647 -0.80762 
0.78095716 0.16935697 -0.6011856 
0.1792246 -0.067666635 -0.9814784 
-0.024426365 0.5671257 -0.8232691 
0.49742803 0.04765942 -0.86619514 
0.18701339 -0.69591403 -0.6933468 
0.4264454 -0.04107456 -0.90358025 
0.4592262 -0.2113355 -0.86281437 
0.40892637 -0.7636273 -0.49965233 
0.83562905 -0.52825767 -0.15055904 
0.65654874 -0.5269099 -0.53973114 
0.06261684 -0.889126 -0.45335862 
0.023135424 -0.99963504 0.013946615 
-0.6504026 -0.74905455 -0.12607048 
-0.13600133 -0.8228194 -0.5517896 
-0.35292107 -0.6789849 -0.6437596 
-0.55453557 -0.3658347 -0.74743253 
-0.51192874 -0.19873412 -0.8357235 
-0.24495822 -0.18903345 -0.95092684 
-0.40408075 -0.6574016 -0.6360361 
-0.77931565 -0.10348279 -0.618028 
0.2885542 -0.67201346 -0.6820077 
0.51104975 -0.22882149 -0.8285343 
-0.063911 -0.4428328 -0.8943235 
0.67904973 -0.6945724 -0.23761454 
0.20351169 0.14246845 -0.9686516 
0.3293818 -0.33473492 -0.88287044 
0.6347123 0.028323982 -0.7722294 
0.9270498 0.13852021 -0.34841198 
-0.33787945 -0.93885654 0.06622692 
0.5576947 -0.8131405 0.16667071 
-0.3602961 -0.71841776 0.59503174 
0.13107276 0.14504074 -0.9807055 
0.2954601 -0.0013007149 -0.9553542 
-0.08184097 -0.9243298 -0.372715 
0.50073373 -0.6157641 -0.60835874 
0.16572984 -0.983335 0.07474 
0.08839398 -0.94451004 -0.31636566 
-0.30567116 -0.15852936 -0.938847 
-0.19003269 0.03594209 -0.98111963 
-0.660963 -0.23156337 -0.7137971 
-0.9327261 -0.18621442 -0.30878204 
-0.6889962 0.25305894 -0.6791505 
-0.18227741 -0.5418173 -0.82049316 
-0.6475811 -0.6122498 -0.45363972 
-0.09001854 -0.5808665 -0.8090061 
-0.53830993 -0.78472424 -0.30729496 
-0.43945447 -0.5857628 -0.6810006 
0.21783793 -0.956886 -0.19213548 
0.11635045 -0.56078213 -0.8197476 
0.30180657 -0.8654032 -0.39998773 
-0.07002762 -0.8295121 -0.55408096 
0.060221046 -0.24410193 -0.9678779 
-0.03704084 -0.62193227 -0.78219455 
0.7523931 -0.6559598 -0.060178358 
0.42355812 -0.89346033 -0.14942354 
0.4409254 -0.8677576 0.22930656 
-0.17010292 -0.87278557 -0.4575046 
-0.39333907 -0.18942088 -0.89966893 
-0.50501066 -0.5626155 -0.6545442 
0.08828707 0.015477725 -0.99597484 
0.2428468 0.21722342 -0.9454308 
0.5261461 -0.13355403 -0.83984154 
-0.3525313 -0.4311356 -0.8305683 
-0.12693413 -0.14872879 -0.9806975 
-0.65340847 -0.3866974 -0.65078604 
-0.14683825 -0.6607559 -0.73609805 
-0.0015787794 -0.7038034 -0.7103931 
-0.3088723 -0.3514703 -0.88377976 
0.4336705 -0.5996142 -0.67260146 
-0.13557824 -0.107732855 -0.984892 
0.4013954 -0.8172571 -0.41348827 
0.86197376 -0.4744296 -0.17865564 
0.9287125 -0.3651358 0.06456874 
0.44291234 -0.09203909 -0.8918281 
0.50380397 -0.6215409 -0.5998905 
-0.028314475 -0.9864693 -0.16148284 
0.29759574 -0.9029704 -0.30996978 
-0.42233768 -0.8021156 0.42218643 
-0.3898823 -0.82555044 0.40799314 
-0.48752567 -0.42904782 -0.76041883 
0.023949906 -0.86701745 -0.4977019 
0.1451697 -0.53814304 -0.8302578 
0.3921296 -0.11898315 -0.9121828 
0.4820019 -0.29503587 -0.82500196 
0.4276143 0.18013169 -0.88583213 
-0.5116277 -0.18423884 -0.8392217 
0.0853196 -0.10857428 -0.9904203 
-0.3602053 0.2056395 -0.9099256 
0.6752033 -0.19465186 -0.71148527 
0.67132443 -0.5018178 -0.5454378 
0.9123088 -0.0845612 -0.40067714 
0.96956724 -0.066608496 -0.23559038 
0.92014813 -0.30092397 -0.2505436 
-0.08653213 -0.7372083 -0.6701015 
-0.2962063 -0.45615587 -0.8391566 
-0.24663581 -0.536249 -0.8072223 
0.015288865 -0.1699331 -0.9853371 
0.48001638 -0.10749185 -0.87064904 
0.68470424 -0.38626543 -0.6180447 
0.45341107 0.19878605 -0.8688513 
0.8716914 -0.3217092 -0.36967194 
0.6280009 -0.23208031 -0.7428012 
-0.0873454 -0.625411 -0.7753915 
-0.7968519 -0.56093735 -0.22444737 
-0.032833725 -0.33313507 -0.94230723 
-0.3101445 -0.9467412 -0.086553335 
-0.46171412 -0.37994775 -0.8015359 
-0.3517452 -0.19739982 -0.9150458 
0.12708522 -0.685614 -0.7167865 
-0.19377527 -0.86905545 -0.45518562 
-0.48046726 -0.8751288 -0.057453685 
-0.028382199 -0.9854861 0.16736668 
-0.59294593 -0.70620453 0.3868983 
-0.7176056 -0.62393177 -0.30943745 
-0.06573336 -0.9722361 -0.22457992 
-0.6825077 -0.7187076 -0.13282584 
-0.65543497 -0.38431004 -0.65016216 
-0.7695824 0.25936472 -0.5835005 
-0.6801555 -0.47351366 -0.559619 
0.27880177 0.04869041 -0.9591136 
0.44195095 -0.26228154 -0.857839 
0.6764099 -0.5254771 -0.51608485 
0.473032 -0.24064434 -0.84754413 
0.049201846 0.08703213 -0.99498975 
-0.48251876 -0.060024142 -0.87382656 
-0.46874064 -0.57137835 -0.67365354 
-0.6194929 0.37645036 -0.68884957 
-0.12045821 0.18654653 -0.97503346 
-0.590254 0.0047857985 -0.80720353 
0.13077274 0.4534437 -0.88163894 
0.44743183 0.17041603 -0.8779313 
0.5739559 0.11204813 -0.8111842 
0.54787886 -0.6260025 -0.55493224 
0.54160213 -0.70820534 -0.45289347 
-0.30376607 -0.12643556 -0.94432 
0.012451234 -0.5292737 -0.8483598 
0.08340848 -0.777885 -0.6228466 
0.2734212 -0.9005465 -0.33801898 
-0.016566137 -0.9505562 -0.31011075 
-0.6256774 -0.5104718 0.5898698 
-0.55100244 -0.6377424 -0.53822017 
-0.048004854 -0.7879739 -0.6138345 
-0.16952701 -0.82231647 -0.5431909 
-0.52390337 -0.75491035 -0.39450708 
0.07675911 -0.71805906 -0.69173646 
0.36606392 0.10344502 -0.9248224 
0.44145998 0.21123174 -0.8720633 
-0.0705664 -0.28037027 -0.9572946 
0.17733099 -0.41146564 -0.89400774 
0.65627563 -0.58906007 -0.47149822 
0.23297368 -0.3057679 -0.92316276 
0.6165932 0.5064375 -0.602772 
-0.2581542 -0.17445134 -0.95022273 
-0.10966446 -0.50823414 -0.8542083 
0.11702233 0.64845085 -0.7522084 
-0.50112003 0.3953129 -0.7698093 
0.29422614 0.08463932 -0.9519807 
-0.5561635 -0.32119358 -0.7664965 
0.082674205 -0.30496883 -0.9487671 
0.32660523 -0.47269288 -0.8184684 
-0.24700384 -0.5402212 -0.8044564 
0.8673749 -0.4971529 -0.022358092 
0.6234259 -0.77823454 0.0754406 
0.5065959 -0.83683985 -0.20750843 
0.3856145 -0.90855825 0.16069628 
-0.47694048 -0.73676 0.4792834 
-0.29053777 -0.85262007 -0.43431216 
-0.61289376 -0.5113582 -0.60239035 
-0.3710935 -0.665478 -0.6476332 
0.026533492 -0.72080255 -0.6926325 
0.4866167 -0.84304816 -0.22907205 
0.13920261 -0.9818417 -0.12887847 
0.42665815 -0.33049846 -0.8418632 
0.20762305 -0.20984896 -0.9554351 
-0.056142807 -0.6932573 -0.7185001 
0.5318311 0.0885176 -0.84221166 
-0.106912054 -0.9779074 -0.17962986 
0.033814304 -0.96653944 -0.25427967 
-0.14401269 -0.7881222 0.59843445 
-0.058790866 -0.72415096 -0.68713105 
-0.056220904 -0.62805593 -0.7761346 
0.10513037 -0.4375653 -0.89301974 
-0.17564228 -0.98072636 -0.085590154 
-0.7586663 -0.6491176 0.055424165 
-0.60647255 -0.7874204 0.11027314 
-0.75069684 -0.49472955 -0.43783233 
-0.32055193 -0.9210757 -0.22105657 
-0.5231827 -0.78849226 -0.32335702 
-0.19140767 -0.9141189 -0.3574211 
0.4027199 -0.16244264 -0.9007937 
0.45382777 -0.5373946 -0.71080756 
-0.045205947 -0.827921 -0.55901986 
0.20081805 -0.044822622 -0.97860265 
0.40530324 -0.14609697 -0.9024329 
0.398168 -0.906357 0.14134854 
0.61425376 -0.37715304 -0.69314355 
-0.052992485 0.0130015705 -0.99851024 
-0.58337575 0.21962088 -0.7819459 
0.102949515 -0.6087739 -0.7866358 
-0.43365344 -0.4523522 -0.77930874 
0.39549068 -0.06833881 -0.91592413 
-0.11352593 -0.38906127 -0.91419 
0.5544497 -0.05919331 -0.8301094 
0.88088393 -0.06367402 -0.46903017 
0.84353423 -0.16777787 -0.51019675 
0.9952145 -0.078746624 0.057855383 
0.981873 0.1639445 -0.09511997 
0.17220722 -0.39838442 -0.9009077 
0.7270109 -0.44560727 -0.52238816 
0.5610491 -0.5911294 -0.57947385 
0.6713132 0.534181 -0.5137989 
0.768628 0.19435799 -0.60945547 
0.5781727 0.38539517 -0.71915716 
0.37608713 -0.32717717 -0.86689895 
0.26362023 -0.28209025 -0.92245835 
-0.20439872 -0.37514976 -0.9041481 
-0.447633 -0.4928959 -0.7461089 
-0.5857699 -0.10600024 -0.8035158 
-0.50086963 -0.30565077 -0.8097576 
-0.56831044 -0.7229779 -0.39284396 
-0.57171756 -0.3936593 -0.71984124 
-0.34003067 -0.43986848 -0.8312009 
-0.57374465 -0.8184519 0.030882593 
-0.14946705 -0.74382013 -0.6514532 
-0.487906 -0.21854772 -0.84509444 
-0.34217295 0.07072249 -0.9369717 
0.2941169 -0.11067998 -0.9493394 
0.798093 0.14665462 -0.5844143 
-0.9922419 -0.013284454 -0.12361017 
-0.56373537 -0.026465757 -0.8255314 
-0.6212125 0.008634564 -0.78359455 
-0.60311663 0.39936507 -0.69047666 
0.045763638 0.26381657 -0.9634866 
-0.47321534 -0.048347693 -0.87961906 
0.037438747 0.63918847 -0.7681384 
-0.21941504 0.37584978 -0.90033 
0.14567256 -0.2926742 -0.94505095 
0.52542853 -0.06444248 -0.84839386 
-0.26755303 0.07382034 -0.96071124 
-0.17680302 0.10279363 -0.9788638 
-0.18132664 -0.688728 -0.70197904 
-0.24090506 -0.782894 -0.5736217 
0.09615374 -0.14418425 -0.9848682 
-0.125736 -0.20314278 -0.97104245 
0.18895261 -0.4512099 -0.87218493 
-0.018171998 -0.20287722 -0.9790356 
-0.7628621 0.21833755 -0.60858047 
-0.5095225 -0.09380232 -0.8553292 
-0.20075646 -0.51048815 -0.8361212 
-0.56362253 0.4140984 -0.71473926 
-0.2198132 0.60327387 -0.7666439 
-0.14110522 0.5421026 -0.8283805 
-0.038047146 0.544887 -0.8376458 
0.19560272 -0.558499 -0.8061132 
0.17265199 -0.65739524 -0.7335004 
0.50013006 0.27181274 -0.8221848 
0.44879535 -0.2606812 -0.8547678 
-0.51202947 0.27284104 -0.81448364 
-0.29977405 0.28921118 -0.9091163 
0.028760545 0.29656893 -0.9545783 
0.5759109 -0.0979568 -0.8116225 
0.36004236 0.1525372 -0.9203815 
0.6263159 -0.27788636 -0.7283595 
0.13392009 -0.44657227 -0.88466877 
0.8630178 -0.4424016 -0.24388742 
0.69044846 -0.64454365 -0.3283969 
0.08109293 -0.7752327 -0.626449 
0.11980612 -0.97469455 0.18872471 
-0.4270268 -0.90375453 -0.029595489 
0.11655746 -0.8320914 -0.54225314 
0.35366645 -0.8306426 -0.43006158 
-0.38738263 0.19740547 -0.9005365 
0.08641239 -0.72678953 -0.681403 
-0.077634506 -0.32991064 -0.94081455 
-0.20738308 0.12902553 -0.96971375 
-0.45534056 0.19024011 -0.869755 
-0.10613067 -0.3632186 -0.9256395 
0.13385895 -0.44311416 -0.886415 
-0.10137678 -0.3557172 -0.9290791 
-0.6569175 0.22531746 -0.71950775 
0.35187936 0.02393175 -0.9357394 
0.615963 0.682073 -0.394165 
0.40640587 0.0951117 -0.90872884 
0.85508996 -0.07379271 -0.5132016 
0.61066794 -0.24349144 -0.7535228 
0.1855967 -0.6926148 -0.6970213 
-0.2769351 -0.90204036 -0.33110464 
-0.77213657 0.10857146 -0.6261129 
-0.42406732 -0.4392471 -0.7919778 
-0.051359084 -0.13645011 -0.98931473 
-0.0970625 -0.7013893 -0.70613873 
0.049045235 -0.72014314 -0.69209 
0.51774627 -0.8373741 -0.17533822 
0.0018067003 -0.63771373 -0.77027136 
-0.63978547 -0.29266125 -0.71065044 
-0.7449053 -0.02597824 -0.6666643 
-0.8227498 0.15718517 -0.54623777 
-0.44567534 0.06703519 -0.8926813 
-0.30843526 0.017480226 -0.9510848 
-0.69733477 -0.43464485 -0.56991935 
0.13288072 -0.49849606 -0.8566472 
-0.026440285 -0.8746548 -0.48402473 
-0.11277278 -0.42416763 -0.89853454 
0.49577093 -0.8247997 -0.2718762 
0.3571762 -0.71716607 -0.59841293 
0.18777789 -0.9794985 0.07295253 
-0.36619607 -0.7547262 -0.54432434 
0.31451502 -0.3781217 -0.87069184 
0.19194698 -0.104033746 -0.97587574 
0.8601067 -0.3691442 -0.35206407 
0.42124692 -0.28341874 -0.8615248 
0.41916832 -0.7343779 -0.5338417 
0.124777794 -0.32266364 -0.93825305 
-0.22583136 0.09765796 -0.9692591 
0.0747235 -0.6099111 -0.7889391 
0.6286654 0.23300682 -0.7419486 
0.75475097 -0.0054079993 -0.6559892 
-0.04164131 -0.4632715 -0.88523763 
0.5939113 -0.2820608 -0.753466 
-0.24364713 -0.9615528 -0.12669823 
-0.8535803 -0.4281243 -0.29683402 
0.30321786 -0.32520205 -0.8957135 
-0.21524462 -0.53607285 -0.81626934 
-0.037766963 -0.320165 -0.9466087 
-0.033856772 -0.09169938 -0.995211 
0.06865379 -0.10452571 -0.9921498 
0.40466225 -0.6447444 -0.64850074 
-0.17288789 -0.85945415 -0.48109075 
-0.024068188 -0.86592895 -0.4995877 
-0.34193572 -0.6533376 -0.675448 
0.7296311 -0.3490276 -0.5880631 
0.34435818 -0.9242703 -0.16474794 
0.27656218 -0.9597788 -0.04835384 
-0.6999378 -0.5043157 0.5057201 
-0.9560024 -0.15566851 0.2486498 
-0.8075746 -0.16339114 -0.5666803 
-0.10773017 -0.15677686 -0.98174095 
0.03740257 0.05252983 -0.9979187 
0.36276916 -0.10803598 -0.92559534 
-0.88779813 -0.20330591 -0.41289377 
-0.35648692 0.4798343 -0.8016708 
-0.35671094 -0.30282235 -0.8837738 
0.2025574 -0.7295317 -0.65326416 
0.8055662 -0.5151281 -0.2927564 
0.9045467 0.41221178 -0.108981 
0.90210724 0.28624052 -0.32290697 
0.9680403 0.24996735 -0.020359771 
0.67437536 -0.3144181 -0.66810125 
0.7378008 0.0039736102 -0.67500687 
0.58309996 -0.22925389 -0.7793825 
0.5019846 -0.15098144 -0.8515962 
0.6980955 -0.09504486 -0.70966846 
0.0068972637 -0.6975483 -0.71650463 
-0.00950988 -0.07541368 -0.997107 
0.46641332 -0.59916025 -0.6507425 
0.18227655 0.018811509 -0.9830674 
0.8374474 0.2508147 -0.48556566 
-0.27692285 -0.9212728 -0.27307537 
-0.1804125 -0.8425976 -0.50742537 
-0.23287149 -0.61161107 -0.7561103 
0.17953539 -0.8167468 -0.54835373 
-0.51470274 -0.6250681 -0.5868313 
-0.17869574 -0.17398633 -0.96839905 
0.12420881 -0.76793194 -0.6283731 
-0.133761 -0.67151785 -0.7288154 
0.1330591 -0.8888451 -0.4384631 
-0.042955007 -0.9653818 0.25727993 
0.33378202 -0.74022394 0.5836593 
0.28312263 -0.95884615 0.021348614 
-0.69201064 -0.72130835 0.028905783 
-0.81302476 -0.55769217 0.16724305 
-0.3267981 -0.94499743 -0.013529575 
-0.66812444 -0.53145885 -0.5207315 
-0.5065996 0.8031004 -0.3136663 
-0.66663873 -0.4646695 -0.58281654 
-0.58494467 -0.47091195 -0.66036487 
0.28230202 -0.42556122 -0.8597694 
0.031510297 0.15411451 -0.98755044 
-0.38415217 -0.36599454 -0.84762913 
-0.6445979 -0.3149111 -0.6966524 
-0.20024596 -0.23973258 -0.9499631 
-0.040953692 -0.39026856 -0.91978985 
-0.46664804 0.24766569 -0.8490591 
-0.31047282 0.26511988 -0.91286254 
-0.33163714 0.2598507 -0.90691483 
0.16118467 0.3334491 -0.9288872 
0.23827481 -0.35591814 -0.90363014 
0.25299737 0.14140105 -0.95707786 
0.38006118 -0.119425565 -0.9172192 
0.48681182 -0.46611997 -0.7387466 
0.440733 0.38100478 -0.8127669 
0.22366178 -0.31279844 -0.9231103 
0.34502015 -0.7090077 -0.61503595 
-0.056125958 -0.97228307 0.2269702 
-0.5604594 -0.7404675 -0.37093565 
-0.74135095 -0.617358 0.2631879 
-0.86475515 -0.47928643 -0.14994396 
-0.8324561 -0.30884877 -0.4600318 
-0.55792946 -0.65800935 -0.505706 
-0.6229224 -0.71689093 -0.31310546 
-0.29978347 0.06465008 -0.9518143 
0.079774 0.2525188 -0.9642979 
-0.13617927 -0.27729484 -0.9510851 
-0.03243407 -0.33468026 -0.9417734 
0.3152366 0.2527595 -0.91473424 
0.30304214 0.13059637 -0.9439863 
0.7437358 0.46032074 -0.48472872 
0.4833078 0.40563858 -0.7758034 
-0.52562386 0.481714 -0.7011927 
-0.16357155 -0.29122636 -0.9425665 
0.19668154 -0.5690333 -0.7984469 
-0.1675049 -0.4218955 -0.8910366 
-0.40463412 -0.13080889 -0.9050747 
0.15178484 -0.653573 -0.7414875 
0.254522 -0.77915615 -0.5728301 
-0.114314005 0.083150454 -0.9899588 
-0.37461445 -0.48824573 -0.7882133 
0.44135523 -0.67257124 -0.5940147 
-0.18921052 -0.7928706 -0.57927173 
-0.010723655 -0.99054444 -0.13677295 
0.07079769 -0.8945318 -0.4413622 
-0.6113392 -0.3939063 -0.6863689 
0.12968582 -0.3327767 -0.9340456 
0.09346313 -0.4503914 -0.88792586 
-0.01843816 -0.45445347 -0.89057964 
0.07424125 -0.2961944 -0.95223796 
0.12709959 -0.82927257 -0.5441992 
0.08635579 -0.38535878 -0.9187173 
0.13319628 0.05845077 -0.9893646 
0.54279125 -0.46046895 -0.702386 
-0.063264124 -0.74433184 -0.6648066 
0.15759337 -0.7673245 -0.6215927 
0.76805085 -0.5506942 -0.32685438 
0.3291579 -0.4449406 -0.83287644 
-0.20363288 -0.93184924 0.30031794 
-0.1842426 -0.70756114 -0.6822111 
0.4261775 -0.7194389 -0.5484345 
0.7102562 -0.25473592 0.65623605 
0.23943841 -0.8314294 0.5013924 
-0.75691336 -0.52545255 -0.38856378 
-0.38508987 -0.6621634 -0.64284176 
-0.34055284 -0.84168655 -0.41903165 
-0.12219801 -0.97525764 -0.18422894 
-0.13224785 -0.80350375 -0.5804242 
0.35883304 -0.69856316 -0.6190706 
0.60842335 -0.45158952 -0.652601 
-0.059962433 -0.7911891 -0.60862505 
0.12430258 -0.9633497 -0.23771042 
0.095274016 -0.30167592 -0.9486383 
0.5893128 0.1543417 -0.7930253 
0.510187 -0.64762855 -0.5659386 
0.2629718 -0.6035292 -0.7527273 
-0.5006654 -0.3983229 -0.7685526 
-0.9952437 0.07250934 0.065056235 
-0.93097043 -0.097502686 -0.35183427 
-0.725484 -0.058005247 -0.6857903 
0.069456734 0.26915202 -0.96058995 
0.09112417 -0.22493887 -0.97010255 
0.47448525 0.21553074 -0.85346955 
0.5776647 -0.30963272 -0.75526893 
0.7810143 -0.19903609 -0.59194714 
0.8692343 -0.4751894 -0.13648017 
0.669421 -0.33626685 -0.6624199 
-0.0650738 -0.43718615 -0.89701384 
0.051423524 0.6385056 -0.76789725 
0.09706999 0.43543664 -0.89497066 
0.82684577 0.375409 -0.41880086 
0.5426369 0.23318525 -0.806951 
0.03535676 -0.009348286 -0.9993311 
0.039957397 -0.78427094 -0.61913055 
0.34054172 0.47735927 -0.81003666 
0.079224154 0.22241306 -0.9717284 
-0.47514328 -0.14926237 -0.867156 
-0.8189074 -0.27027798 -0.5063008 
-0.28047192 -0.3761682 -0.8830816 
-0.6182118 -0.7355031 -0.27721745 
-0.34217793 -0.8846313 -0.31676793 
-0.22318593 -0.934707 -0.27660608 
-0.6244446 -0.7369484 -0.2587972 
0.13199566 -0.5131033 -0.8481168 
0.38340145 0.036592033 -0.9228566 
0.46652377 0.33863896 -0.81711644 
0.10797878 -0.83431673 -0.5406072 
0.38477015 -0.7641818 -0.51766616 
-0.962823 -0.22382051 -0.15124916 
-0.5969255 0.34552816 -0.72407895 
-0.66100746 0.44000596 -0.6078354 
-0.51662624 0.68618673 -0.5120989 
-0.012508494 0.15801758 -0.98735714 
-0.5217562 0.36075065 -0.773065 
-0.30306897 0.29539293 -0.9060311 
0.08802824 0.7761639 -0.6243562 
-0.2359185 0.4302007 -0.871361 
-0.22372091 0.5789525 -0.7840683 
-0.26133978 0.6948141 -0.6700262 
-0.40260947 0.07940797 -0.9119211 
-0.71269906 -0.003164723 -0.7014628 
-0.75508183 -0.22958256 -0.61412007 
0.2837017 -0.40336984 -0.86994606 
0.49639386 -0.39944977 -0.7707354 
0.93888116 0.20116657 -0.2793462 
0.03334135 0.8223711 -0.5679738 
-0.46820349 0.086941026 -0.8793332 
-0.23265435 -0.35202536 -0.90661466 
-0.34387884 -0.27818722 -0.8968607 
-0.65975076 0.2958937 -0.69077927 
0.44385788 0.45623004 -0.77126145 
0.4543559 0.55466634 -0.6970696 
0.34261292 0.046462562 -0.93832713 
0.1490356 -0.6700669 -0.7271855 
0.8052233 -0.10644609 -0.5833394 
0.5634676 0.15738027 -0.8110091 
0.54458493 -0.1463895 -0.82583135 
0.060127042 0.3008357 -0.95177877 
-0.4816835 0.20015912 -0.8531807 
0.4456881 0.7262358 -0.52339625 
0.36686617 0.6138701 -0.6989798 
-0.298686 0.47393543 -0.8283549 
-0.027985666 -0.10300897 -0.99428666 
-0.8326394 -0.11981464 -0.5406998 
-0.21851459 0.2336666 -0.9474446 
-0.4017878 -0.06765745 -0.91323 
0.17046714 -0.48083252 -0.860082 
-0.053553406 -0.9858416 -0.15889789 
-0.81126857 -0.5669839 -0.14273268 
-0.69843805 -0.71556544 0.012271063 
0.17670263 -0.9165364 -0.35879976 
-0.6297916 -0.51403135 -0.58235246 
-0.000759457 -0.5104149 -0.859928 
0.64785415 -0.1968969 -0.7358781 
-0.18613093 -0.44620496 -0.8753608 
0.15962428 -0.38576734 -0.90868247 
-0.21633172 -0.41296843 -0.8846795 
-0.09503071 -0.4389342 -0.89347976 
-0.517918 0.1570735 -0.8408858 
0.22489569 0.0142635945 -0.97427845 
-0.318147 0.57996225 -0.7499509 
-0.8377512 0.26519933 -0.47732848 
-0.4648593 0.3132674 -0.82811195 
-0.31359583 -0.11670997 -0.9423569 
0.37257123 0.06156653 -0.92595917 
0.21391371 -0.21617806 -0.9526322 
-0.4024701 -0.3481229 -0.84665716 
-0.5117856 -0.41867334 -0.750192 
0.049915433 -0.5477691 -0.83513916 
0.5222573 0.4568381 -0.7201016 
0.21928743 -0.6642672 -0.7146063 
0.29190335 -0.5013373 -0.8145265 
0.30714488 -0.30744445 -0.90063316 
0.63141435 -0.14289857 -0.7621653 
0.21937242 -0.36827743 -0.90346426 
0.47863424 0.15579826 -0.8640811 
0.043303713 0.17034125 -0.9844332 
-0.30484048 0.69043237 -0.6560301 
-0.25254205 0.17044418 -0.9524554 
0.3868246 0.31632653 -0.86620104 
0.24149972 -0.29365844 -0.9249015 