# OOMMF: rectangular mesh v1.0
# Segment count: 1
# Begin: Segment
# Begin: Header
# Desc: Time (s) :  7.330000000000017e-07
# Title: m
# meshtype: rectangular
# meshunit: m
# xbase: 2e-09
# ybase: 2e-09
# zbase: 5e-10
# xstepsize: 4e-09
# ystepsize: 4e-09
# zstepsize: 1e-09
# xmin: 0
# ymin: 0
# zmin: 0
# xmax: 1.024e-06
# ymax: 1.024e-06
# zmax: 1e-09
# xnodes: 256
# ynodes: 256
# znodes: 1
# ValueRangeMinMag: 1e-08
# ValueRangeMaxMag: 1
# valueunit: 
# valuemultiplier: 1
# End: Header
# Begin: Data Text
-0.5618701 0.1358904 -0.8159876 
-0.49161673 -0.41456085 -0.7658017 
-0.5587868 -0.26063186 -0.78729177 
-0.89341325 0.20237333 -0.40107092 
-0.67263424 -0.20169957 -0.71195537 
-0.7258541 -0.6371791 -0.2591115 
-0.26934388 -0.8929117 -0.36078078 
-0.13923982 -0.8272788 -0.5442629 
-0.36251554 -0.5532804 -0.7499755 
-0.56455225 -0.61237204 -0.5534268 
0.3738993 0.20041214 -0.9055575 
-0.28596926 -0.43251082 -0.8550766 
-0.42280462 0.1916103 -0.88573235 
-0.5356442 -0.14738102 -0.8314832 
-0.30643344 0.5626577 -0.76779866 
-0.35568634 0.33325484 -0.87317145 
-0.07926115 -0.6934231 -0.7161579 
0.2579622 -0.5626704 -0.78540283 
0.8611863 -0.023989854 -0.5077231 
0.6310502 -0.42454675 -0.64925784 
0.26910362 -0.58665305 -0.76382035 
0.3940328 -0.91723543 -0.058458857 
-0.16162853 -0.884722 -0.43719944 
-0.48260224 -0.40811023 -0.7749459 
-0.5530056 -0.34363824 -0.75901103 
-0.048001274 -0.37006968 -0.9277631 
0.16815406 -0.3035521 -0.9378594 
-0.030768545 -0.54212236 -0.83973616 
0.93284947 -0.1855111 -0.30883285 
0.7573655 -0.08461883 -0.6474853 
0.39171878 -0.22265607 -0.8927378 
-0.10730534 0.05689813 -0.9925967 
-0.8076228 -0.18032286 -0.5614527 
-0.853978 -0.025415942 -0.5196882 
-0.4539542 -0.85521823 -0.2500548 
0.04809135 -0.6477308 -0.7603499 
0.5976949 -0.28923783 -0.74773145 
0.7981604 -0.32743818 -0.5056918 
-0.07315819 -0.7778345 -0.6241967 
0.23865336 -0.61721903 -0.7497235 
-0.11895498 -0.3972197 -0.90998155 
0.48327425 -0.0013686471 -0.8754681 
-0.090208724 -0.5586335 -0.8244944 
-0.2961181 -0.33472064 -0.8945816 
0.346644 -0.16834554 -0.9227663 
0.27909115 -0.9258972 0.25460267 
0.41427955 -0.7876574 0.45603547 
-0.36801654 -0.62051827 -0.6924745 
-0.397548 -0.5738157 -0.7160245 
0.12245808 -0.33841065 -0.9329964 
0.94463557 -0.26483858 0.19371212 
-0.6359286 -0.32738408 -0.6988666 
0.18976925 -0.5672108 -0.801411 
-0.44852754 -0.06306472 -0.8915413 
0.04289551 -0.21062948 -0.97662437 
-0.2907153 -0.25406575 -0.92246157 
0.109658 -0.22544992 -0.96806383 
-0.73143667 -0.5489544 -0.40453616 
0.21105881 -0.7119215 -0.66979253 
-0.79286873 0.02748841 -0.6087723 
0.4557697 -0.64869046 -0.6094873 
-0.28317732 -0.11149552 -0.9525646 
-0.6613172 0.06052578 -0.7476605 
-0.37335098 0.16053976 -0.9136937 
0.1747094 0.073708735 -0.9818573 
-0.1034072 0.034284815 -0.99404806 
0.19662458 -0.29999918 -0.9334556 
0.2091462 -0.651087 -0.72961885 
0.4079826 -0.90376127 0.12948248 
0.2901948 -0.8941897 -0.3408987 
-0.087594844 -0.6205137 0.7792882 
0.6981288 -0.12569374 0.70485264 
-0.13621815 -0.9086656 -0.39467898 
0.4212175 -0.7560184 -0.50101084 
0.14792114 -0.95076966 -0.27231652 
-0.47569314 -0.8680503 -0.14214389 
0.18741395 -0.6596914 -0.7277935 
-0.5299093 -0.80803335 0.2574457 
-0.5335659 -0.8457531 0.00305245 
-0.1040547 -0.96719366 -0.2317521 
0.22007348 -0.975068 -0.028461019 
-0.15947405 -0.83285284 0.53002274 
-0.5389114 -0.53084695 -0.6540459 
0.7768998 -0.053998474 -0.62730443 
0.31049886 -0.10771634 -0.94445103 
0.3534004 -0.9347682 -0.03628483 
0.39520493 -0.3177752 -0.861877 
0.12772377 -0.5745704 -0.8084279 
0.29688904 0.18282396 -0.9372472 
0.012632896 -0.07281292 -0.99726564 
-0.16551013 -0.6491405 -0.742444 
0.24215822 -0.4681659 -0.8498118 
0.2911421 -0.779382 -0.55479723 
0.6829809 -0.6016 -0.4142639 
0.65192807 0.14037022 -0.7451752 
0.4075302 -0.799868 -0.4406024 
0.6003415 -0.36864978 -0.7097095 
0.17369074 -0.06440431 -0.98269206 
0.87907964 -0.022794722 -0.47612953 
0.055477906 0.17175525 -0.9835763 
0.33681196 0.6269762 -0.70246613 
-0.09384334 -0.60305536 -0.79216015 
0.32165176 -0.68815607 -0.65037024 
0.3176728 0.43770856 -0.84112734 
0.3378752 0.8042933 -0.48882803 
0.097614944 -0.2528702 -0.9625633 
0.030270124 -0.29301134 -0.95562977 
0.15047102 -0.7782841 -0.6096166 
0.68994874 -0.6809617 -0.2454829 
0.283377 -0.93933564 -0.1932515 
0.044404343 -0.6770224 -0.73462164 
-0.18312456 -0.46711144 -0.8650274 
0.3455972 -0.92708224 -0.1451939 
-0.3318561 -0.6108767 0.7188194 
-0.05753894 -0.6935469 0.7181101 
-0.47823656 -0.87300086 -0.09570447 
0.16903009 -0.49827465 -0.8503829 
-0.6237237 -0.66822416 0.40551865 
-0.42374837 -0.7625583 -0.4888172 
-0.45062518 -0.5257153 -0.7214987 
-0.15352339 -0.9564178 -0.24838632 
0.083964996 -0.9858735 -0.14492507 
0.042653598 -0.88258106 -0.46822158 
-0.38973063 -0.8221441 -0.41495696 
-0.02642021 -0.76608664 -0.64219415 
-0.08098425 -0.99605113 -0.036383927 
-0.43509376 -0.18015023 -0.8821788 
0.035006795 -0.70423174 -0.7091067 
0.27207938 0.25969914 -0.9265685 
0.90890074 -0.068857424 -0.41128847 
0.86800355 -0.46501723 -0.17415215 
0.73687726 -0.65167576 -0.17980741 
0.03599896 -0.9489501 0.31336516 
-0.19940865 -0.9093178 -0.3652089 
0.29950988 -0.95316285 0.04212613 
-0.75995725 -0.52296466 -0.3859703 
-0.35166776 -0.5761001 -0.73786074 
-0.32006997 -0.6270225 -0.71020985 
-0.1379124 -0.86578846 -0.48103082 
0.4622134 -0.79528487 -0.3922764 
-0.075245075 -0.9697189 -0.23234333 
-0.67602026 -0.55480593 -0.48496097 
-0.12485685 -0.6858523 -0.7169501 
-0.31194118 -0.8370644 -0.4494618 
-0.21475802 -0.433807 -0.8750375 
0.73409116 -0.43701363 -0.5197397 
0.7929199 -0.5496651 -0.26295713 
-0.14894459 -0.47750568 -0.8659122 
-0.2207884 -0.95426273 -0.2015819 
-0.40927106 -0.89438283 -0.18048963 
-0.48090976 -0.5858826 -0.65227866 
-0.055348776 -0.99756044 0.042541344 
-0.32300678 -0.79577416 -0.5122598 
-0.21507443 -0.5140773 -0.83034176 
0.25134242 -0.78743976 -0.5628194 
0.4672061 -0.80724686 -0.36065352 
0.4713396 -0.850524 0.23334073 
0.824934 -0.538727 0.17104703 
0.76313776 -0.22084108 0.6073302 
0.83687305 -0.41635844 0.35537186 
0.64493334 -0.74718237 0.16056038 
0.21681799 -0.8465381 0.48617202 
0.2606191 0.1428768 0.954811 
-0.35130146 -0.24115716 0.90467155 
-0.6809131 -0.43477133 0.58934814 
-0.9826392 -0.01349099 0.18503585 
-0.044037275 0.047162466 -0.99791604 
0.3460578 -0.723316 -0.59754336 
0.4349157 -0.8298104 -0.34966162 
0.12096092 -0.4892891 -0.8636925 
0.5384737 -0.63921607 -0.5490436 
0.46746185 -0.8664509 0.1753349 
-0.7880601 -0.5485117 0.27945712 
-0.969246 -0.22681028 -0.095496126 
-0.10747271 -0.078042105 -0.9911403 
0.0008438593 -0.514921 -0.8572372 
0.42475083 -0.75312614 -0.50238216 
0.30195433 -0.86630714 0.39791387 
-0.44152403 -0.89429593 0.0727422 
-0.28017536 -0.7567923 -0.5905652 
-0.5836529 -0.74965173 -0.3120443 
-0.2666682 -0.50275344 -0.8222695 
0.015254771 -0.855936 -0.5168567 
-0.52167374 0.059790067 -0.8510474 
0.2513589 -0.6184244 -0.74456024 
0.44512716 0.24543943 -0.86117435 
-0.30999276 0.21491729 -0.9261291 
-0.224622 -0.06374631 -0.97235876 
-0.5893382 -0.5447537 -0.5965937 
-0.24545482 -0.74637127 -0.6186129 
-0.2824059 -0.7313652 -0.6207672 
-0.29011536 -0.39563164 -0.8713833 
0.75120753 -0.4945611 -0.43714592 
0.5847537 -0.8107128 0.028422974 
0.69785225 -0.42608514 -0.5757202 
0.91815734 -0.39249086 -0.054203957 
0.3538439 -0.1959981 0.9145377 
-0.10159593 -0.8828994 0.4584398 
0.49972314 -0.46780568 -0.7289957 
0.26198575 -0.88523203 -0.3843538 
0.124937266 -0.46839035 -0.87464356 
0.5194969 -0.108862326 -0.8475093 
0.7762523 -0.56677073 -0.27604958 
0.17388543 -0.5573334 -0.81187654 
-0.047463574 -0.9205649 -0.38769522 
-0.9018643 -0.19286196 -0.3865812 
-0.73570025 -0.6681796 -0.110821195 
0.0001140943 -0.18676548 -0.98240453 
-0.2175692 -0.076246 -0.97306234 
0.26442116 -0.8509271 -0.45387733 
-0.22498205 -0.24360512 -0.94341916 
0.43416518 -0.8456761 -0.31037483 
-0.770849 -0.45278284 0.44808444 
-0.14196403 -0.89833677 -0.41573712 
0.16864206 -0.9029568 -0.39525816 
0.013315696 -0.97981155 -0.19947937 
0.7473937 -0.028072324 0.66378814 
0.0018568541 -0.98816764 0.15336677 
-0.9481565 -0.31777903 0.0039861007 
-0.8946268 -0.44678405 -0.0051913094 
-0.5691036 -0.18036078 -0.8022414 
-0.0668584 -0.59535074 -0.80067945 
0.3784787 -0.87521 -0.3012666 
-0.3517684 -0.80976933 -0.46960914 
0.07135112 -0.85338926 -0.5163679 
0.75161314 -0.6530228 -0.092946105 
0.82923055 -0.4567671 0.3220881 
0.7676161 -0.50368017 -0.39632297 
-0.43259615 -0.6403749 -0.63465 
-0.04132477 -0.65686226 -0.7528774 
0.015178292 -0.36084467 -0.9325024 
0.6264329 -0.45269325 -0.6345477 
0.6324668 -0.74059504 0.22694688 
-0.4427374 -0.84253067 -0.30679905 
-0.60811996 -0.724244 0.32505512 
-0.20973705 -0.7574653 0.6182693 
-0.6942558 -0.6872153 0.21387865 
-0.75843817 0.42368567 -0.49523938 
-0.6195323 0.003539157 -0.7849632 
-0.57446986 -0.024062729 -0.818172 
0.14482862 -0.149102 -0.9781581 
0.106921434 -0.52946275 -0.84156823 
-0.12163399 0.038909916 -0.99181217 
0.13761853 -0.6630918 -0.7357788 
-0.5082124 -0.6632648 0.5493634 
-0.48864186 -0.8638871 0.12218138 
-0.6117424 -0.7910082 0.008805317 
-0.03376607 -0.8587336 0.51130867 
-0.12300088 -0.98517025 -0.1196264 
-0.61695397 -0.5957171 -0.5142849 
0.4961283 -0.5689612 -0.6558505 
0.6278294 -0.35839927 -0.6909271 
0.6296845 -0.39015335 -0.6717722 
0.22057389 -0.92301667 -0.315258 
0.30831805 -0.49263582 -0.8137875 
0.505914 -0.8617708 -0.037445396 
-0.56546676 0.4244095 -0.7071944 
-0.748127 -0.35720623 -0.5592046 
-0.6260853 -0.34369582 -0.6999217 
-0.92326516 -0.36101595 -0.13133581 
-0.53262913 -0.48938635 -0.6905123 
-0.5664821 -0.3763657 -0.7331077 
-0.45126173 -0.6415673 -0.6202857 
-0.548998 -0.45803452 -0.6991464 
-0.09424583 -0.40816244 -0.9080315 
0.61039 0.13868266 -0.7798661 
0.5551152 0.527997 -0.6427024 
-0.15149914 -0.17008322 -0.9737145 
-0.23136038 0.59789187 -0.76746184 
-0.3129955 0.039175455 -0.94894636 
-0.62423486 0.2617177 -0.73609424 
-0.30953512 0.25567374 -0.91587067 
-0.76523507 0.43002346 -0.47905663 
0.1768901 -0.68831825 -0.7035111 
0.609395 -0.38985452 -0.6903993 
0.69840795 0.122791745 -0.70508766 
0.5358482 -0.2888724 -0.7933597 
-0.31756574 -0.034259368 -0.9476172 
0.030971458 -0.7346385 -0.67775154 
-0.004752914 -0.45728037 -0.88930994 
-0.29316574 -0.73650795 -0.60959816 
-0.16332941 0.028858498 -0.98614943 
0.13711825 0.24016641 -0.9609989 
0.27341053 -0.15957896 -0.94856805 
-0.07355476 -0.22216472 -0.97223073 
0.11127055 0.2574739 -0.9598574 
0.48921016 0.17041221 -0.8553556 
-0.0808716 0.14781381 -0.98570323 
-0.58948654 -0.08945229 -0.80281013 
-0.9152646 -0.044289935 -0.40041122 
-0.1807604 -0.021489996 -0.98329246 
-0.34782252 -0.5852107 -0.7324944 
0.8028349 -0.116351016 -0.5847381 
0.62578076 -0.24378663 -0.7409228 
0.4269072 -0.5236032 -0.73728555 
-0.18146469 -0.6840596 -0.70649344 
0.5326908 -0.035017762 -0.84558517 
0.64016074 -0.42203498 -0.6419351 
0.4348258 -0.56548184 -0.7008259 
0.8850219 -0.28368872 -0.36913 
0.7057834 -0.037286215 -0.70744586 
0.42587325 -0.13554005 -0.894573 
0.09915495 -0.85583264 -0.5076602 
-0.27946943 -0.57896715 -0.7659595 
-0.19432735 -0.80977005 -0.553633 
-0.082618505 -0.47291195 -0.87722784 
0.7803751 -0.23671027 -0.578777 
0.1066327 0.10339562 -0.98890793 
-0.035569865 -0.44353214 -0.8955524 
-0.17724827 -0.31214666 -0.9333528 
0.013358879 -0.4720754 -0.881457 
0.55135244 -0.03330561 -0.8336073 
0.04998422 -0.68494445 -0.7268788 
-0.09729181 -0.37625822 -0.92139244 
-0.090930015 -0.29824325 -0.95014876 
-0.14541239 -0.8139179 -0.5624882 
-0.5747041 -0.5349747 -0.61928785 
0.37754744 -0.68321115 -0.62504435 
0.28579384 0.069210745 -0.95578855 
-0.1872095 0.66486984 -0.7231188 
0.08972894 0.7065705 -0.7019308 
0.12571684 0.40941823 -0.9036438 
0.51578933 0.058920085 -0.854687 
0.22065021 -0.67084926 -0.7080077 
0.34964344 -0.67702395 -0.64760184 
0.47206134 -0.88091063 -0.033981375 
0.6558127 -0.70385486 0.2729435 
0.44371358 -0.683566 0.57953084 
0.39759362 -0.4601398 -0.7938456 
-0.0173935 -0.9764918 -0.21485184 
0.017845843 -0.5777476 -0.8160204 
-0.3362906 -0.6771301 -0.6545254 
0.49640787 -0.50759006 -0.7042241 
-0.26852646 -0.16187255 -0.94957405 
-0.66898054 -0.54423445 -0.50623506 
-0.417545 -0.71960336 -0.5548218 
-0.121798016 0.08515318 -0.98889554 
0.42430595 -0.7735153 -0.47078502 
0.53315693 -0.391036 -0.75022304 
0.75115097 -0.47176197 -0.4617498 
0.5170661 -0.6355068 -0.57338804 
0.26967627 0.12315584 -0.95504314 
0.3454807 -0.21243839 -0.91406405 
0.62151885 -0.33608127 -0.70764667 
0.10452163 0.10805627 -0.988635 
-0.43563852 -0.25515372 -0.86320096 
-0.6419575 -0.7585398 -0.11183964 
-0.17062874 -0.5113148 -0.8422845 
0.49295533 -0.7820157 -0.38137433 
-0.8488424 -0.015044454 -0.5284319 
-0.40409636 -0.55318207 -0.72848874 
0.59820217 -0.08942598 -0.7963399 
0.917638 -0.16650654 -0.36085492 
0.2413113 -0.13868731 -0.9604867 
0.28772506 -0.0010612493 -0.9577125 
0.274541 0.39480847 -0.8767859 
0.2956416 0.06606587 -0.9530118 
-0.018878205 -0.28764844 -0.95755005 
0.33410004 -0.17187859 -0.92673343 
0.3983757 0.7786353 -0.48479283 
-0.1625523 0.5666648 -0.8077548 
0.17287718 0.591688 -0.7874128 
-0.1828868 0.5941615 -0.7832781 
0.16399156 -0.55155575 -0.81785876 
0.30250502 -0.88449645 -0.35518563 
-0.015218838 -0.97668815 -0.21412304 
0.16850664 -0.38493574 -0.90743047 
-0.030396676 -0.4786412 -0.87748426 
0.20836586 -0.8798902 -0.4270563 
-0.44458258 -0.8409915 -0.30835027 
-0.3158852 -0.58837044 -0.74433655 
-0.026012272 -0.9807994 -0.19327736 
0.3254304 -0.92577577 -0.19244297 
-0.51458645 -0.85504127 -0.06407322 
-0.5794128 -0.20697376 -0.78831637 
-0.73369026 -0.17009905 -0.65784883 
0.1377125 -0.498328 -0.8559815 
0.08305015 -0.7082545 -0.70105505 
0.14130849 -0.26277336 -0.9544539 
-0.12037655 -0.4615736 -0.8788966 
-0.22867218 -0.705069 -0.6712577 
-0.60859245 -0.71586 -0.3422861 
-0.5680386 -0.10295198 -0.81653726 
0.52946836 -0.47094116 -0.7056045 
-0.0065076756 -0.039302137 -0.99920624 
0.6993572 -0.15924446 -0.6968076 
0.07476974 -0.48771846 -0.8697933 
-0.17346816 -0.7067074 -0.68591064 
-0.18577364 -0.23575994 -0.9538896 
-0.07245749 -0.30477363 -0.9496647 
0.0021919971 -0.2260189 -0.97412044 
-0.16044803 -0.68697816 -0.7087436 
0.0025536283 -0.7260705 -0.6876156 
0.13214372 -0.60061413 -0.7885435 
0.31365734 -0.75178045 -0.58003896 
0.46316308 -0.56304497 -0.6844417 
0.35674036 -0.7579777 -0.5460825 
-0.074223794 -0.6557194 -0.7513475 
-0.75739074 0.05194343 -0.6508926 
-0.5030337 -0.5874599 -0.63391477 
-0.12860481 -0.3878787 -0.9126944 
-0.2032632 -0.4700943 -0.858892 
-0.53860545 -0.33769572 -0.7719234 
0.30899945 -0.09115333 -0.946684 
0.56573623 -0.50923187 -0.6485564 
0.1458614 -0.98043007 -0.13221776 
0.12886909 -0.60365075 -0.7867647 
0.35493362 -0.93021196 -0.09342289 
-0.024926627 -0.8664226 -0.49868897 
0.5482805 0.0027126886 -0.83629024 
-0.2509951 -0.12934482 -0.9593078 
0.85879177 0.058439624 -0.50898105 
0.22394888 -0.93649936 -0.26984397 
0.7750724 -0.15910178 -0.6115141 
0.4871523 -0.83447015 -0.25757015 
0.3783267 -0.15470608 -0.91265273 
0.25989956 -0.54783344 -0.79519224 
0.72765565 -0.4664355 0.5029465 
0.28166062 -0.34564608 0.8950956 
-0.031517573 -0.5570015 0.82991326 
-0.47875124 -0.6063849 0.6348975 
-0.82405 -0.5548858 -0.114207916 
-0.4880604 0.32839674 -0.8086734 
0.41381755 -0.61452055 -0.6716544 
0.30306268 -0.91247714 -0.2748431 
0.67597544 -0.7264758 -0.123653874 
0.5379644 -0.6251464 -0.56549656 
0.4168069 -0.8787899 -0.2323799 
-0.6839749 -0.6996106 -0.2066962 
-0.69784886 -0.27518103 -0.6612734 
-0.38113713 -0.34560922 -0.8574898 
-0.5904864 -0.045817655 -0.8057461 
-0.20738332 -0.28050822 -0.9371806 
0.10306316 -0.8487337 -0.51868016 
-0.3306759 -0.93933046 -0.091169655 
0.639726 -0.12914178 -0.7576762 
-0.27026144 -0.2941767 -0.9167436 
0.28065217 -0.2676033 -0.9217499 
0.5960944 -0.6771576 -0.43142682 
0.33129662 -0.9405709 -0.07462668 
0.33953983 -0.85739744 -0.386759 
-0.1234343 0.24355124 -0.9620015 
-0.3132627 0.14405718 -0.9386768 
-0.061268296 0.1149703 -0.9914778 
-0.06282634 -0.017405415 -0.99787277 
0.053655956 -0.564382 -0.8237682 
-0.16613899 -0.17214738 -0.97095996 
0.13286316 -0.37078646 -0.9191653 
-0.20216823 -0.5386054 -0.81794393 
-0.23865886 -0.37178665 -0.8971157 
0.66289884 -0.13213477 -0.736957 
0.45783812 -0.8561159 0.23968741 
0.77122635 -0.6365512 -0.003541045 
0.7038421 -0.59829164 -0.38295355 
0.52715135 -0.61234534 -0.5891898 
0.23482202 -0.7198869 -0.65316266 
0.6403206 -0.07139694 -0.7647824 
0.11483017 -0.183589 -0.97627306 
0.19867173 -0.4275275 -0.8819013 
0.53600955 -0.32493365 -0.7791739 
0.32111654 -0.52929044 -0.7853253 
0.17636947 -0.9134525 -0.36674026 
-0.6543464 -0.5532605 -0.5154936 
-0.26573732 0.29666984 -0.9172626 
-0.6079845 0.41270965 -0.678252 
-0.513217 -0.00086038257 -0.8582586 
0.38160568 -0.19120678 -0.9043324 
0.31550688 -0.5310433 -0.786415 
-0.7012057 -0.51630324 -0.49167237 
-0.6938626 -0.60494757 -0.39063174 
-0.25375417 -0.40253857 -0.8795291 
-0.10505958 -0.67643553 -0.72897017 
0.71764493 -0.60760427 0.34029824 
-0.41313758 -0.7387747 0.53247476 
-0.5746568 -0.7026825 -0.4195318 
-0.8273828 -0.29854673 -0.47571802 
-0.7935915 -0.3450772 -0.50113297 
0.07047996 -0.6551023 -0.7522458 
0.5538564 -0.4292896 -0.7134099 
-0.28147054 -0.92895687 -0.24044462 
0.335762 -0.7861303 -0.5189056 
0.409741 -0.26466453 -0.8729634 
0.9454576 -0.24398328 -0.215829 
0.53692997 -0.8042412 -0.2547595 
-0.27128783 -0.2986627 -0.91498834 
0.12978776 -0.92745626 -0.35068503 
0.12666386 -0.96218324 -0.24116337 
-0.43757465 -0.26898602 -0.85800636 
-0.06335834 -0.61704165 -0.78437585 
-0.026241656 -0.6994339 -0.71421546 
0.5171881 -0.7185106 -0.4650365 
0.7683452 -0.6244498 0.14038613 
-0.47300786 -0.84776413 0.23991574 
-0.5812433 -0.65944046 -0.47675422 
-0.8090797 0.16864993 -0.5629807 
-0.15159388 -0.71330494 -0.6842627 
-0.53854895 -0.6852725 -0.49027205 
0.69095945 -0.58370346 -0.42645687 
-0.69539493 -0.67716247 -0.24057649 
-0.60305345 -0.6711746 -0.43110472 
-0.4619411 -0.83020866 -0.31203225 
-0.2162967 -0.9630077 -0.16072321 
-0.20756997 -0.5428008 -0.8138072 
-0.29671955 -0.5907396 -0.75032276 
-0.0040084347 -0.9051389 -0.42509705 
-0.56299764 -0.68308294 -0.46522197 
0.03113827 -0.47324184 -0.8803822 
0.24823044 -0.089250356 -0.96458083 
0.4933723 -0.11657871 -0.8619706 
0.3088031 -0.803117 -0.50955254 
0.81462145 -0.45047307 -0.36533 
0.33541358 -0.28021884 -0.8994305 
-0.6721464 0.5447652 -0.50144815 
-0.91347563 -0.11089274 -0.391491 
-0.7322499 0.011345385 -0.6809415 
-0.5853199 -0.3188618 -0.74547154 
-0.34765527 -0.33534762 -0.8756015 
-0.13744703 0.19669828 -0.9707822 
-0.33209807 0.17784968 -0.92632633 
-0.24583833 -0.05660243 -0.96765685 
-0.03818352 -0.11153156 -0.9930271 
0.35210854 0.3647809 -0.8619481 
0.52195287 0.43763798 -0.7321463 
0.33809748 0.23975323 -0.91005963 
0.119535424 0.97142106 -0.20506704 
-0.21244018 0.17192213 -0.96193147 
-0.19423568 0.40067577 -0.8953946 
-0.6108136 -0.011868532 -0.79168546 
-0.8628431 -0.40202513 -0.30639455 
-0.79408246 -0.4269714 -0.43258357 
0.33083197 -0.10844976 -0.9374375 
0.3184373 0.5872746 -0.7441144 
-0.014535971 0.5640283 -0.82562757 
-0.20416968 -0.06448375 -0.97680944 
-0.059863713 0.060732536 -0.9963574 
0.5441054 -0.08230211 -0.8349705 
0.5266934 -0.5822681 -0.61932063 
-0.091971956 -0.55677754 -0.8255544 
-0.22491148 -0.5877714 -0.77713555 
0.38535658 -0.3864013 -0.83797044 
0.26826838 0.4502666 -0.8516409 
0.21528073 0.5832143 -0.7832723 
0.16303353 0.822575 -0.54478496 
-0.070329644 0.71229845 -0.6983443 
0.23859628 0.030133069 -0.9706513 
-0.3309369 0.22538206 -0.9163426 
-0.0280723 0.28268865 -0.95880085 
-0.7585345 -0.38842762 -0.5232108 
0.17891029 -0.7602693 -0.62448514 
-0.5374663 -0.47243837 -0.6985213 
0.46622294 -0.49406248 -0.7338518 
0.60107017 -0.42000386 -0.6799349 
0.35122612 -0.20073539 -0.9145193 
0.19771396 0.27257347 -0.9416012 
0.55653906 0.038514663 -0.8299283 
0.21247254 -0.109561495 -0.97100556 
0.7661432 -0.32218412 -0.5560774 
0.34991306 -0.15219523 -0.92433625 
-0.1965993 -0.38411435 -0.9021114 
0.28815347 -0.30193037 -0.90873855 
-0.58871144 -0.6337713 -0.5017497 
-0.39585096 -0.11886641 -0.91058934 
0.45447862 -0.01828449 -0.89057 
-0.22982183 0.28212187 -0.9314447 
-0.052860998 0.49018556 -0.87001383 
-0.07497637 0.32982278 -0.9410609 
0.23877254 0.055940073 -0.969463 
0.08437013 0.2313422 -0.96920717 
0.60302955 0.07405963 -0.7942737 
-0.090548955 -0.14726114 -0.9849442 
-0.26510867 0.027435936 -0.96382815 
-0.43790546 -0.73315704 -0.52030724 
-0.33976248 -0.9315274 -0.12968563 
0.14817874 -0.5071161 -0.8490444 
-0.40312794 0.021393416 -0.9148936 
-0.5039349 -0.3824297 -0.77446574 
0.48268875 0.47387034 -0.7365178 
0.63534814 0.12003094 -0.7628403 
-0.10714184 -0.70730865 -0.6987383 
-0.12369773 -0.91763514 -0.3776833 
-0.41967678 -0.5760045 -0.7014914 
0.15736102 -0.5103636 -0.8454388 
0.6016548 -0.7841388 -0.15211163 
0.19171669 -0.97235495 -0.1333067 
0.13060077 -0.84173465 -0.5238572 
0.1784139 -0.685752 -0.70562935 
0.046173394 -0.3008959 -0.9525386 
-0.26259586 -0.5670476 -0.78070515 
0.051174145 -0.15179642 -0.9870862 
-0.31619993 -0.52554095 -0.78982556 
-0.43226075 -0.6134646 -0.6609175 
0.04602239 -0.034997217 -0.99832726 
0.09660027 -0.26847437 -0.95843107 
0.46401086 -0.047011882 -0.8845812 
0.14697857 -0.45826265 -0.8765802 
0.66151816 -0.3166642 -0.6797923 
0.30356178 -0.37204647 -0.87717265 
-0.34221473 0.33689958 -0.8771476 
-0.06373797 0.27210277 -0.96015495 
-0.10080861 0.0022507212 -0.9949033 
-0.3691416 0.15513134 -0.9163344 
-0.22885527 -0.6859606 -0.6907122 
0.38826823 -0.49351916 -0.77825874 
0.33575094 0.015573992 -0.9418221 
-0.40074393 -0.29002234 -0.86907494 
-0.06132119 0.04721089 -0.99700093 
0.1847718 -0.028111413 -0.9823794 
0.43202123 -0.47339714 -0.76762795 
0.90073425 -0.42224097 -0.10193343 
0.5202798 -0.184761 -0.83377 
0.12478876 -0.6498812 -0.74972147 
-0.109804794 0.019077886 -0.9937701 
0.21089517 -0.24077825 -0.9473907 
0.17392223 -0.20599863 -0.96297234 
0.28397098 -0.62307006 -0.7287964 
0.39169875 0.272306 -0.8788752 
-0.30764672 0.58996636 -0.7465208 
0.15261675 0.33498493 -0.9297814 
-0.81505036 0.33800018 -0.4705836 
-0.75790405 0.3261487 -0.5649854 
-0.5172573 -0.3466534 -0.78248096 
0.08737154 -0.6641734 -0.7424554 
0.5864312 -0.6173179 -0.5244208 
-0.45892766 -0.33567744 -0.8226215 
-0.43564937 -0.7985283 -0.41540623 
-0.6758893 -0.46113357 -0.5749169 
0.036491685 -0.49333867 -0.8690716 
-0.31068662 -0.53127164 -0.78817785 
-0.25021595 -0.44855222 -0.85801685 
-0.11821097 -0.27622616 -0.9537952 
-0.6341036 -0.2058089 -0.74535596 
-0.5974968 -0.482579 -0.64040226 
-0.5831817 -0.68093276 -0.44297838 
-0.06444005 -0.51425743 -0.8552116 
-0.53322387 0.27353707 -0.80053097 
-0.8508721 -0.09394224 -0.51690584 
-0.21602526 -0.8197696 -0.5303875 
-0.4372842 -0.88154703 -0.17792538 
0.28804114 -0.40236196 -0.86898625 
0.5560551 -0.39477852 -0.73140466 
0.0049909703 -0.6704263 -0.74195933 
0.41071597 -0.2550811 -0.87535477 
0.49066356 -0.48408997 -0.7245041 
-0.11794583 -0.3432708 -0.9318015 
-0.11693338 0.22708406 -0.96682954 
-0.14368336 -0.1392195 -0.97978216 
0.08629947 -0.2096069 -0.97396994 
-0.23707905 0.015682794 -0.97136384 
0.2875302 0.15489928 -0.9451628 
0.15821074 -0.56520283 -0.80963886 
0.37821168 -0.54262537 -0.7500092 
-0.010493793 0.22457443 -0.97440046 
-0.1948559 -0.18446346 -0.96332985 
-0.42137927 -0.53949094 -0.72896445 
-0.7114948 -0.3410352 -0.6143861 
-0.1455296 -0.28241768 -0.94818854 
0.008978784 -0.15662931 -0.9876167 
0.020258687 -0.7644721 -0.6443383 
-0.12735811 -0.57513523 -0.8080839 
0.051902615 -0.09979199 -0.9936538 
0.30943662 -0.35555887 -0.8819449 
0.21354951 -0.119994216 -0.969535 
-0.57574856 0.19096483 -0.7950133 
0.17498788 -0.6664367 -0.7247355 
-0.16012576 -0.8524916 -0.49761206 
-0.12672727 -0.0986865 -0.9870164 
-0.16960767 0.01725738 -0.9853606 
0.69580525 -0.5049403 -0.51077425 
0.11165625 -0.6346801 -0.764666 
0.32731542 -0.7328651 -0.5964675 
-0.19416416 -0.6837448 -0.7034155 
-0.044191178 -0.29663786 -0.95396703 
0.0884012 -0.80011225 -0.5933006 
-0.20149879 -0.9743069 0.10062081 
0.050008908 -0.8887118 0.45573077 
0.1654999 -0.20575754 -0.9645069 
0.3663789 -0.9251406 -0.09940487 
-0.36844417 -0.5033936 -0.78156507 
-0.16631612 -0.18702172 -0.9681746 
0.76209295 -0.6364219 -0.11908652 
0.6270004 -0.53417706 -0.5670321 
0.43235058 -0.754713 -0.49343848 
0.28038904 -0.65414375 -0.70247996 
0.075811416 -0.9455394 -0.31655636 
-0.40261748 -0.88499093 -0.23385978 
-0.6031357 -0.4179411 -0.6793767 
-0.691233 -0.21351783 -0.6903674 
-0.29536793 -0.17807625 -0.93864083 
-0.5232462 0.007578299 -0.85214794 
0.15213093 0.090898134 -0.98417157 
-0.42019835 0.1585407 -0.8934754 
0.7280595 -0.4377243 -0.52756697 
0.509791 -0.49936792 -0.7005319 
-0.048552714 -0.50085044 -0.8641711 
0.23952365 -0.4028869 -0.8833519 
0.25341743 -0.8382153 -0.48288175 
0.22654621 -0.30522355 -0.9249408 
-0.271273 -0.3636662 -0.8911554 
0.13434975 0.10466689 -0.98539084 
0.48761284 -0.20238364 -0.8492788 
0.012813757 -0.0542969 -0.9984426 
-0.31948593 -0.08485401 -0.94378424 
-0.2864346 -0.0897763 -0.95388436 
0.051217765 -0.36174774 -0.9308681 
-0.06470637 -0.03352127 -0.99734116 
-0.11204868 -0.63969725 -0.76041603 
0.53161097 -0.618147 -0.5790373 
0.52597916 -0.1503665 -0.8370996 
0.30501732 -0.9440002 -0.12581015 
0.23896688 -0.9185103 -0.3150137 
0.12608956 -0.8954785 -0.42687201 
0.44414762 -0.76118666 -0.47257584 
0.27049553 -0.20278877 -0.94112116 
0.005082727 -0.5292347 -0.84846026 
-0.3827117 -0.44488475 -0.80969715 
-0.4654568 -0.6227227 -0.62894076 
-0.5378366 -0.27680427 -0.796311 
-0.49330324 -0.37422243 -0.7852449 
-0.48051384 -0.82748634 -0.2904701 
-0.54784405 -0.097840354 -0.83083946 
0.22645853 -0.249743 -0.94145894 
0.8240441 0.16746235 -0.5412096 
0.87114865 -0.41479492 -0.2627646 
0.8049947 -0.2949291 -0.51478195 
-0.7139815 -0.24847822 -0.6545907 
-0.29813275 0.15328096 -0.94213694 
-0.25519788 -0.55736524 -0.79007477 
0.467744 -0.3236438 -0.82247806 
0.006590388 -0.81268364 -0.58266795 
-0.48949772 -0.86245185 -0.12872043 
0.15824324 -0.9846287 -0.07392935 
0.03452419 -0.6138687 -0.78865284 
-0.32833582 -0.79628325 -0.5080637 
-0.10443719 -0.63968366 -0.7615102 
0.19621348 -0.89720154 -0.39563838 
-0.14266695 -0.8159867 -0.5601892 
0.4525927 -0.703339 -0.54815525 
0.46611255 -0.21504857 -0.8581919 
-0.40406582 -0.6926766 -0.59743613 
0.23189236 -0.453043 -0.86080086 
-0.4177754 -0.5670179 -0.7098975 
0.13916458 -0.7463457 -0.65084666 
-0.32372376 -0.9364618 -0.13506392 
0.022543883 -0.9229018 -0.3843749 
-0.07961395 -0.4498525 -0.8895474 
0.12907374 -0.8826608 -0.45194015 
0.5179666 -0.84108794 -0.1558255 
0.78711414 -0.5231764 0.32670766 
-0.009794495 -0.9991428 -0.04022281 
-0.5386244 -0.83122206 -0.13767225 
0.05582517 -0.14209375 -0.9882778 
-0.25270927 -0.4328606 -0.86531484 
-0.32021582 -0.6350742 -0.7029528 
0.014070057 -0.46128118 -0.8871425 
-0.6566394 -0.40216568 -0.63803416 
-0.5626657 -0.49790066 -0.659926 
0.29697067 -0.9535735 -0.05005989 
0.35202813 -0.9355532 -0.028576476 
0.34949225 -0.5035837 -0.79010034 
0.17981449 -0.85966504 -0.47816625 
-0.24332413 -0.9690627 -0.041364685 
-0.7132509 -0.50217724 -0.4889696 
-0.50759256 0.61125135 -0.60722446 
0.39541325 0.19815496 -0.89687407 
-0.12841058 0.06587073 -0.9895311 
0.03334359 -0.09117916 -0.99527615 
0.16397221 0.080127314 -0.9832053 
0.4824695 0.22829218 -0.84563935 
-0.87748706 -0.2155339 -0.42844108 
-0.79551286 -0.5965388 -0.106305204 
-0.697693 -0.156241 -0.6991518 
-0.3950565 -0.07974355 -0.9151892 
-0.5324735 -0.5490691 -0.6442012 
-0.37555665 0.06813586 -0.92429143 
-0.10996786 -0.26716885 -0.9573546 
0.0064515774 -0.44008616 -0.8979324 
0.17315392 -0.05961719 -0.9830888 
0.38331074 0.5590975 -0.7351754 
0.010219834 0.25727016 -0.96628547 
-0.12251945 0.6769456 -0.7257643 
0.27763632 0.8861745 -0.37096217 
0.3197471 0.7512744 -0.57736355 
0.26239315 0.31785306 -0.91110885 
-0.000944329 0.3367887 -0.9415798 
0.10422957 -0.4638495 -0.8797612 
-0.06037335 -0.43275768 -0.8994864 
0.094837196 0.56609124 -0.8188692 
0.012060196 0.5278293 -0.8492649 
0.19994763 -0.33681145 -0.92009735 
-0.10109177 -0.06076524 -0.9930197 
0.07413061 -0.8009143 -0.5941726 
0.18977314 -0.55002105 -0.8133038 
-0.24646993 -0.24928857 -0.93654037 
0.6528245 -0.6971951 -0.29620814 
0.20729679 -0.7987858 -0.5647737 
-0.012177862 0.009853857 -0.99987733 
0.45186415 0.4308982 -0.7811182 
-0.13463572 0.8682835 -0.47744834 
-0.4212927 0.61628264 -0.6653633 
0.044757858 0.42490974 -0.9041286 
0.05883304 0.36632705 -0.92862445 
-0.5403832 0.23911574 -0.8067277 
-0.25806764 -0.1627129 -0.9523265 
-0.12804666 0.15999734 -0.97877735 
-0.19233324 0.21067293 -0.95844924 
-0.8902332 0.08124823 -0.44820046 
-0.21525492 0.36925268 -0.9040563 
-0.025448088 -0.1541704 -0.98771656 
-0.053640094 0.12993906 -0.99007 
0.21428762 -0.024353629 -0.97646695 
0.25982997 -0.1864865 -0.94747627 
0.24312912 -0.36041087 -0.9005511 
0.19784595 -0.6151515 -0.7631812 
0.4378341 -0.25217032 -0.86296666 
0.24183802 -0.34804562 -0.90574753 
0.8451084 -0.14445403 -0.5147085 
0.106638044 0.12305549 -0.98665386 
0.020298472 -0.38957182 -0.92077243 
0.31273583 -0.09745088 -0.9448279 
0.5899575 -0.0020690646 -0.80743176 
0.5518959 0.20245193 -0.8089648 
0.033466563 -0.006330888 -0.99941987 
0.22726136 -0.14406514 -0.9631187 
0.59190214 -0.48054156 -0.6470948 
0.54656506 -0.834701 -0.06738768 
-0.50260305 -0.5245672 -0.6871823 
-0.45211676 -0.35761338 -0.8171311 
-0.24109577 -0.069235586 -0.96802855 
-0.6734121 -0.23029287 -0.70248234 
0.15452905 -0.41471422 -0.8967346 
0.39923754 0.16942997 -0.9010565 
0.27759248 0.2721402 -0.9213481 
0.2339348 -0.2797072 -0.93114907 
0.6842852 -0.22055589 -0.6950604 
0.69736254 -0.6493368 -0.30339283 
-0.47055033 -0.86632097 -0.16754219 
-0.180922 -0.77445227 -0.60621035 
0.43030378 -0.34436893 -0.83441514 
0.27171853 -0.309378 -0.9112927 