# OOMMF: rectangular mesh v1.0
# Segment count: 1
# Begin: Segment
# Begin: Header
# Desc: Time (s) :  7.360000000000017e-07
# Title: m
# meshtype: rectangular
# meshunit: m
# xbase: 2e-09
# ybase: 2e-09
# zbase: 5e-10
# xstepsize: 4e-09
# ystepsize: 4e-09
# zstepsize: 1e-09
# xmin: 0
# ymin: 0
# zmin: 0
# xmax: 1.024e-06
# ymax: 1.024e-06
# zmax: 1e-09
# xnodes: 256
# ynodes: 256
# znodes: 1
# ValueRangeMinMag: 1e-08
# ValueRangeMaxMag: 1
# valueunit: 
# valuemultiplier: 1
# End: Header
# Begin: Data Text
0.46695292 -0.52823037 -0.70917404 
0.62811106 -0.52723587 0.57227516 
0.30198398 0.21509054 0.92873126 
-0.7206382 -0.67916304 0.1393494 
0.26887363 -0.9559038 -0.11813124 
-0.5751151 -0.58520037 0.57164955 
-0.2761856 -0.8902597 -0.36215925 
-0.10653372 -0.76144403 -0.6394167 
-0.2071735 -0.42602485 -0.8806713 
0.36419907 -0.76573217 -0.5301069 
0.5757037 -0.107434325 -0.8105697 
0.2810115 0.09686016 -0.95480406 
0.30129713 -0.57742226 -0.7588174 
0.5287853 -0.80074865 0.28140318 
0.31126562 -0.5163231 -0.7978246 
-0.47858176 -0.43200648 -0.7644147 
-0.15535408 -0.493714 -0.8556353 
-0.31164262 -0.8869458 0.34089026 
-0.45923185 -0.786996 -0.41199937 
0.37220404 0.030325864 -0.92765546 
0.05074876 0.17358468 -0.9835105 
-0.13911733 -0.3836318 -0.9129474 
0.56214833 -0.4801791 -0.67336273 
0.59600276 -0.042527325 -0.8018555 
0.35831332 -0.22921729 -0.9050255 
0.076372385 0.3995188 -0.9135382 
0.24915564 -0.31457087 -0.9159513 
0.47422013 0.5743473 -0.6672634 
0.11505581 0.6878094 -0.7167151 
0.52400225 0.088108785 -0.8471473 
0.18234217 -0.36051977 -0.9147551 
0.5128114 -0.7776274 -0.36375824 
0.13692014 -0.42191324 -0.8962378 
0.23945169 -0.7661698 -0.59636134 
0.6445449 -0.5809466 -0.49705434 
0.9836235 -0.17314756 0.050048023 
0.04207041 -0.89935154 0.4351976 
0.5505563 -0.40668142 -0.7290391 
0.26761404 -0.8810431 -0.3900586 
0.035237152 -0.7056227 -0.70771116 
0.5029589 -0.15485492 -0.8503248 
0.7246771 -0.6639037 0.18459453 
0.8659653 -0.46599817 -0.1815208 
0.054394744 -0.11472774 -0.99190664 
-0.2991384 -0.73772544 -0.6052086 
-0.4258333 -0.8264056 -0.36840174 
-0.16749455 0.28344178 -0.9442491 
0.1224777 -0.27612773 -0.9532852 
0.19641109 0.05248636 -0.97911584 
0.18344365 -0.36142308 -0.91417825 
-0.0696673 -0.70889986 -0.70186 
0.20219223 -0.68295544 -0.701919 
-0.58020604 -0.36929867 -0.7259336 
0.26762235 -0.46171194 -0.84569514 
-0.1480712 -0.21316083 -0.9657315 
0.39328504 0.14013334 -0.90867466 
0.5519913 0.18320963 -0.81347406 
0.059382368 0.2118128 -0.9755045 
0.13279033 0.19420525 -0.97193164 
0.2791691 0.19497553 -0.94023895 
0.2875431 -0.9576258 -0.016483821 
-0.14941706 -0.7920502 -0.5918879 
0.51667637 -0.33871645 -0.7863312 
0.76532084 -0.53186727 -0.3624931 
0.48592913 -0.86330336 -0.13630974 
0.71861094 -0.6883327 0.09897772 
0.730423 -0.6216794 -0.28283742 
0.21683866 -0.7545206 0.6194189 
0.09234447 -0.990346 0.10337916 
-0.65110534 -0.5880006 -0.47991377 
-0.19130465 0.06012552 -0.9796875 
0.103627175 -0.46978512 -0.8766775 
0.46806297 -0.18645488 -0.86380076 
0.3227621 -0.05892632 -0.9446441 
0.6166971 -0.52544105 -0.58617115 
0.6350411 0.10596962 -0.7651754 
0.31861517 -0.7272517 -0.60793865 
-0.39155474 -0.87086755 -0.29711065 
-0.70762736 -0.51668334 -0.48197702 
-0.24509439 -0.5076972 -0.8259372 
-0.29837132 -0.7122987 -0.63529927 
0.2280587 0.40056133 -0.88743436 
0.9025 -0.22377573 0.3679924 
-0.1395863 -0.61492497 0.77613336 
0.53585905 -0.53703445 -0.65149766 
-0.2234588 -0.9720351 0.07220846 
0.18587686 -0.78052825 -0.5968463 
-0.3356086 -0.06846026 -0.9395106 
0.17468311 -0.49441603 -0.8514921 
0.12873928 -0.4274194 -0.8948402 
0.40008047 0.007070142 -0.91645277 
0.13895382 -0.27386233 -0.9516782 
0.66161764 0.24150433 -0.7098858 
0.86575603 -0.49258822 0.08845068 
0.52362686 -0.85064304 -0.04713062 
-0.50563025 -0.68376786 -0.52611744 
-0.16163947 -0.25952244 -0.9521139 
0.75448984 -0.41286469 -0.5101843 
0.35149848 -0.864027 -0.36042488 
-0.34094793 -0.85372967 -0.39357364 
0.19305915 -0.8613328 -0.4699299 
0.1825506 -0.55765617 -0.80974984 
0.10836198 -0.39040107 -0.9142455 
-0.29554954 -0.08538477 -0.95150405 
0.61075425 -0.7341916 -0.29655033 
0.26807973 -0.94864935 0.16792178 
0.66973966 -0.6841559 -0.28875536 
0.08277027 -0.9536341 -0.2893633 
-0.38535568 -0.29873765 -0.8730733 
0.5603528 -0.49567887 -0.6635566 
0.022626808 -0.5055956 -0.8624739 
0.20362702 -0.8776452 -0.43390676 
0.2620782 -0.8506794 -0.45569703 
0.82385474 -0.56205094 0.07322723 
0.82494664 -0.5644165 0.029952383 
0.5553784 -0.7665439 -0.32243627 
-0.73483104 -0.01981984 -0.6779607 
-0.8402528 -0.038261887 -0.540843 
-0.16693136 -0.109320775 -0.9798892 
0.33701566 -0.09339701 -0.93685514 
0.49652526 -0.225107 -0.8383255 
0.109755196 -0.73296744 -0.6713514 
-0.13287902 -0.8830427 -0.45008773 
0.14280404 -0.67761886 -0.7214151 
0.33890674 -0.22263643 -0.9140981 
0.3604566 -0.877063 -0.3175401 
0.5278562 -0.5202124 -0.671377 
0.56742233 -0.6221812 -0.5393724 
0.8156231 -0.4156605 -0.402474 
0.28403413 0.14717728 -0.9474511 
0.26833987 0.2134653 -0.93937546 
-0.5776608 -0.81232476 -0.080227315 
-0.6417033 -0.7668155 -0.014524363 
-0.3552168 -0.77377075 -0.52449965 
-0.28724176 -0.8318354 -0.4749126 
-0.23284093 -0.9106781 0.34124872 
-0.35822755 -0.525444 -0.7717395 
-0.3261695 -0.63288766 -0.7021871 
0.1268204 -0.44216082 -0.8879248 
-0.6509383 -0.44211322 -0.6171024 
0.6536731 0.33273885 -0.6797032 
-0.081893936 0.3749239 -0.92343134 
-0.19645384 -0.5879153 -0.78470486 
-0.10382091 0.041545868 -0.993728 
-0.63075984 -0.67429304 -0.38401955 
-0.49376154 -0.8256197 -0.2730415 
-0.36648464 -0.82582337 -0.428608 
-0.3030595 -0.95172155 -0.04879632 
-0.701593 -0.5204981 -0.48667154 
-0.274064 -0.63177127 -0.725089 
0.17187686 -0.85831165 -0.48348695 
-0.12882937 0.06589772 -0.9894749 
-0.2793344 0.11279455 -0.95354587 
-0.53665775 -0.094343565 -0.83850926 
-0.23962162 -0.81728065 -0.5240553 
-0.12019809 -0.66286093 -0.73903173 
0.23815271 -0.74825835 -0.6191873 
0.28293496 -0.5302513 -0.79923797 
0.5310402 0.27615678 -0.80108285 
0.60042375 -0.07735802 -0.7959316 
0.696007 -0.6053087 -0.3862327 
0.4915439 -0.87006396 0.03705917 
-0.0009005996 -0.5131899 -0.8582746 
0.28338033 0.49224314 -0.8230384 
0.15203284 -0.33892062 -0.9284497 
0.45563975 -0.59700996 -0.6602814 
0.2681826 -0.4947993 -0.8265905 
0.15249966 -0.8997306 -0.40893608 
0.2212981 -0.8663456 -0.44774163 
0.058751795 -0.5114834 -0.85728246 
-0.067379534 -0.49360776 -0.8670706 
-0.1993946 -0.71379364 -0.67137206 
-0.11964445 -0.48270497 -0.867572 
0.090194404 -0.16487393 -0.9821821 
0.68428975 0.0358724 -0.7283274 
0.53283185 -0.05788127 -0.8442393 
0.6479043 -0.31492305 -0.693573 
-0.048303775 -0.74231994 -0.6683023 
-0.028967634 0.053042848 -0.998172 
-0.38948673 0.4679094 -0.79332286 
0.36397165 -0.2938357 -0.8838468 
0.5918328 -0.14935727 -0.7921025 
0.70614725 -0.016138624 -0.70788115 
0.9630581 0.2016586 -0.1784743 
0.795272 -0.38497564 -0.46833342 
0.5503448 -0.64221716 0.5335521 
0.9151138 -0.36545867 0.17031336 
-0.5506186 -0.77845246 -0.3013818 
-0.14688993 -0.3970328 -0.9059738 
0.13524467 -0.89183635 -0.4316677 
0.101313375 -0.96167284 -0.25479588 
-0.6119097 -0.029053416 -0.79039395 
0.06377175 -0.6165381 -0.78473824 
-0.83696294 -0.224254 -0.4992025 
-0.60464346 -0.7553032 0.25283068 
-0.70336646 -0.3137059 -0.6378591 
0.4710894 0.4773987 -0.7417313 
-0.3885596 0.8273831 -0.40553504 
0.0860441 0.96877956 -0.23251379 
-0.29202288 0.28403732 -0.9132609 
-0.032537576 0.20016696 -0.97922134 
-0.62284154 0.18895109 -0.75918776 
-0.04180356 -0.3702767 -0.9279804 
0.22661524 -0.9716003 -0.0681064 
0.0415984 -0.7440713 -0.66680396 
-0.2611556 0.047547355 -0.96412504 
-0.018930813 0.062655345 -0.9978557 
-0.039061084 -0.27474663 -0.9607229 
-0.11658026 -0.2230182 -0.96781814 
-0.2827669 -0.028931899 -0.9587522 
-0.40936464 -0.38808486 -0.82571834 
-0.21079238 0.16675521 -0.9632027 
0.030212425 0.16151185 -0.98640823 
-0.16075999 0.26860458 -0.94974095 
-0.17211872 -0.37505567 -0.91088337 
0.3346255 0.14435299 -0.93122935 
-0.70751464 0.5998143 -0.3736923 
-0.75491506 0.017168734 -0.6555979 
-0.05318799 -0.4991619 -0.8648748 
-0.61705637 -0.76674324 -0.17704868 
-0.35808027 -0.9083837 -0.2159111 
-0.022883184 -0.92117846 -0.38846725 
0.05275658 -0.80650425 -0.5888699 
-0.7341219 -0.1616727 -0.65949 
0.2882749 -0.52592045 -0.80019075 
-0.07657888 -0.7617721 -0.64330316 
0.53903085 0.06074654 -0.84009266 
-0.15849744 -0.62532896 -0.76409584 
0.2759347 -0.90210736 -0.33175647 
0.71048623 -0.5707244 -0.41168314 
0.54797405 -0.03557795 -0.8357384 
0.3196209 -0.25896382 -0.9114715 
0.80367416 -0.1795259 -0.56734335 
0.018167503 -0.6946173 -0.7191501 
-0.21971673 -0.8535686 -0.47238255 
-0.112968355 -0.5613011 -0.81986535 
0.764739 -0.5765463 -0.28769547 
-0.06076486 -0.97928697 -0.19314396 
0.10673413 -0.858684 -0.5012681 
0.31326818 -0.7918636 -0.5242281 
0.20095044 -0.61553055 -0.76206374 
-0.2316763 0.0017328658 -0.9727914 
-0.04709591 -0.7869068 -0.61527205 
-0.40957823 -0.42594594 -0.8067315 
-0.07656482 -0.9372269 -0.34021097 
-0.40366554 -0.752266 -0.5207208 
-0.0155460015 -0.88244766 -0.47015363 
0.44829652 -0.8600481 0.24361378 
0.20962836 -0.97404194 0.08542993 
0.017471949 -0.7372058 0.67544234 
-0.0045428914 -0.94610703 -0.3238225 
-0.61080724 -0.6137221 -0.5002597 
-0.3902877 -0.84167427 0.37317568 
-0.5009629 -0.021168116 -0.86520994 
-0.4928305 -0.42444625 -0.7595812 
0.4370531 -0.687452 -0.5799952 
0.016191348 -0.98376334 0.17873935 
0.09699654 -0.92206526 0.3746829 
-0.44340706 -0.82515764 0.35000736 
-0.40520602 -0.798576 0.44506678 
-0.48309997 -0.7792127 0.3993018 
-0.5127072 -0.8368378 0.1919211 
-0.22279169 -0.912709 0.34252915 
-0.22285053 -0.9745966 -0.02233905 
-0.29875836 -0.37676293 -0.8768085 
-0.375899 -0.10612439 -0.92056376 
-3.6544556e-05 0.43705857 -0.89943314 
0.5724591 -0.21430561 -0.7914315 
0.6494409 -0.14898193 -0.74567485 
0.6008481 -0.32899454 -0.728522 
0.43617144 -0.32052383 -0.8408442 
0.08601108 -0.66834337 -0.7388635 
0.5056614 -0.43109688 -0.74730325 
0.9686814 -0.24775305 -0.016581569 
-0.09219121 -0.7678798 -0.63392544 
0.2887171 -0.2275996 -0.9299682 
0.12268829 -0.5496358 -0.8263462 
-0.09379028 -0.7086667 -0.69928175 
-0.08884659 -0.8780613 -0.47022825 
0.32781076 -0.43955994 -0.83625793 
-0.06771463 -0.25682697 -0.9640823 
0.46820882 0.3355923 -0.8174096 
-0.39357337 -0.24311447 -0.8865639 
-0.23718373 0.11583285 -0.96453446 
0.24292824 0.24770473 -0.937885 
0.10494133 0.2909192 -0.950975 
-0.016554544 -0.4225817 -0.9061737 
0.60191286 -0.4863177 -0.63340044 
0.2796728 -0.7383233 -0.61372787 
0.7908567 -0.21604873 -0.5725983 
0.71441096 -0.5733562 -0.4010982 
0.78811926 -0.6155196 -0.0019269099 
0.018262424 -0.70588505 -0.70809096 
0.29781651 -0.5485816 -0.7812578 
0.48938388 -0.29226863 -0.82163405 
-0.5111228 -0.08837761 -0.854952 
-0.41911057 -0.36968654 -0.82926375 
0.2482235 -0.7321743 -0.6342759 
-0.06964337 -0.6825475 -0.7275155 
0.55414563 -0.43116975 -0.71205014 
0.19953668 0.15177675 -0.9680646 
-0.07148831 -0.29462382 -0.95293564 
0.29291415 0.32963583 -0.8975197 
-0.08366893 -0.5583706 -0.8253617 
-0.0026837548 -0.75995034 -0.6499756 
0.17860731 -0.08299718 -0.9804137 
-0.15016192 -0.7379957 -0.6578859 
0.32253027 0.35011944 -0.8794263 
0.31114253 -0.24633378 -0.9178835 
-0.11129136 -0.08416068 -0.99021786 
0.260488 -0.11584152 -0.9585024 
0.21851966 0.45883372 -0.86123216 
0.29192057 0.59334046 -0.75015295 
-0.42638615 -0.20758832 -0.8803987 
0.052826356 -0.44583538 -0.8935549 
0.44784826 -0.47835815 -0.7553843 
0.56219816 -0.57771003 -0.5917639 
0.3725983 -0.3679002 -0.8519507 
0.13685663 -0.83643574 -0.5307028 
0.37280297 -0.5194441 -0.7688925 
0.38031214 -0.5254172 -0.76111734 
0.09067517 0.009107631 -0.9958389 
0.7645746 -0.40332168 -0.5027498 
0.87300336 -0.16817568 0.45780137 
-0.3463135 -0.934614 -0.08101607 
-0.8292083 -0.37928894 -0.4105528 
0.04233131 -0.78149056 -0.6224794 
0.099568635 -0.5610802 -0.8217512 
0.5017337 -0.7348434 -0.4563646 
-0.24489573 -0.49426258 -0.8341047 
-0.33316663 -0.39463174 -0.85630953 
0.111711234 -0.9795069 -0.1675911 
0.21973829 -0.81856346 -0.5307251 
-0.6059234 -0.41334808 -0.679706 
-0.77496976 -0.6292467 0.05891112 
-0.47410184 -0.43958429 -0.76288486 
0.029237607 -0.14599435 -0.9888533 
-0.72424215 -0.18765816 -0.6635193 
0.33806598 -0.81694704 -0.46723545 
-0.5530405 -0.7699416 -0.3183335 
-0.07462554 -0.6314262 -0.77183676 
-0.51182514 -0.79088265 -0.33546945 
0.07868625 -0.7766516 -0.62499666 
-0.59760636 -0.7659548 -0.23702332 
-0.48416904 -0.45970252 -0.7444824 
-0.27267596 -0.48999277 -0.8279825 
0.5564637 -0.68411297 -0.47152686 
0.39939243 -0.88344294 -0.24497825 
0.6188855 -0.51062053 -0.59686464 
0.57334137 0.27028522 -0.77345043 
-0.22144908 -0.28157383 -0.9336362 
0.18420738 -0.2476045 -0.95118856 
0.685518 -0.50938374 -0.52018577 
0.10428317 -0.94963115 -0.29550946 
0.3560724 -0.7881793 -0.5019821 
0.2886386 -0.6142919 -0.7343932 
0.18166657 -0.87999576 -0.43886775 
-0.31171978 -0.4175909 -0.8534921 
0.66715187 -0.31457853 -0.6752398 
-0.32553437 -0.4672106 -0.822035 
0.5846918 -0.5818955 -0.5652727 
-0.0152238505 -0.9988727 -0.044964295 
-0.19634385 -0.6938807 -0.692805 
-0.25556543 -0.36903083 -0.8935897 
-0.8562576 -0.13683408 -0.49809578 
-0.082180455 -0.49002478 -0.86782616 
0.007659015 -0.53219235 -0.84658897 
0.43730822 -0.8959391 -0.07781179 
0.529617 -0.37169474 -0.7624623 
0.5192713 -0.66200066 -0.54047424 
0.8739192 -0.30858192 -0.3755562 
0.5690747 -0.035358485 -0.8215254 
0.23005426 -0.6553074 -0.7194771 
-0.13815717 -0.7702679 -0.6225754 
-0.3824314 -0.2444891 -0.89105076 
0.105695195 -0.3332495 -0.9368956 
0.6955231 -0.23665954 -0.67840993 
0.0064058355 -0.2579833 -0.96612823 
0.48838 -0.6078022 -0.6261481 
0.21425568 -0.24029808 -0.94675833 
-0.4285082 -0.73186356 -0.52986467 
-0.37790552 -0.28107214 -0.88214844 
0.13121541 -0.8499081 -0.510332 
-0.029116914 -0.96262616 -0.26926413 
0.53226346 -0.70620394 -0.46687442 
0.43216708 0.1084677 -0.8952466 
0.12928335 -0.019134201 -0.99142313 
-0.14552423 -0.6584268 -0.7384422 
-0.8824143 -0.2675984 -0.38695753 
-0.7073115 -0.5241773 -0.4742876 
-0.32772523 -0.6077689 -0.7233347 
0.044077653 -0.5851321 -0.8097392 
-0.8986089 -0.19823493 -0.39141417 
-0.5244308 -0.2182697 -0.823001 
-0.54168236 -0.20995905 -0.8139395 
-0.14501496 -0.947705 -0.28429937 
0.3893899 0.32932016 -0.8601883 
0.12186441 0.6193537 -0.7755967 
-0.15281358 0.7635636 -0.6273904 
-0.3658018 0.20984274 -0.9067277 
-0.94994986 -0.07329007 -0.30368382 
-0.6038982 -0.7950734 -0.05626042 
-0.75118256 -0.32334447 -0.57547647 
-0.17680743 -0.5603627 -0.80915564 
-0.6249774 -0.6386753 -0.4488844 
-0.5046015 -0.21408744 -0.83638746 
-0.041012634 -0.6480192 -0.760519 
-0.44053417 -0.38938478 -0.80889374 
-0.8509352 -0.33613864 -0.40363365 
-0.51792604 0.23455659 -0.8226396 
-0.6563743 -0.39942834 -0.6400233 
-0.5594428 -0.05864929 -0.8267915 
-0.12412234 -0.29803613 -0.9464503 
-0.18822621 -0.5440449 -0.81767106 
0.6001937 -0.07263935 -0.79654956 
0.542471 -0.019373506 -0.8398512 
0.809378 -0.58624935 0.034914654 
-0.047169875 -0.99875444 0.016266298 
0.28560823 -0.35190222 -0.89139944 
-0.114325635 0.0038197597 -0.993436 
0.13175552 -0.013257707 -0.9911936 
0.22479844 -0.115033366 -0.96759135 
-0.08756001 -0.4534624 -0.886964 
0.35725597 -0.0031418568 -0.93400127 
-0.45560214 -0.5073704 -0.73143834 
-0.0031599847 -0.5619549 -0.82716185 
0.31288624 -0.20366308 -0.92769796 
-0.3494458 -0.47482994 -0.8077279 
0.05185358 0.066611916 -0.99643075 
0.07047155 -0.42373654 -0.90303993 
-0.086513676 -0.034084387 -0.9956675 
0.73541254 0.42296177 -0.5294071 
0.35087493 -0.39015397 -0.85127354 
-0.4126987 0.07329369 -0.90791404 
-0.22433715 -0.17920202 -0.95789325 
-0.53060293 0.3691336 -0.763021 
-0.29591155 0.18266246 -0.9375878 
-0.07435699 0.6696154 -0.7389766 
-0.093101084 -0.05128203 -0.9943351 
-0.18891834 -0.04747053 -0.98084474 
0.0013272408 -0.15712704 -0.9875775 
-0.016663825 -0.8288981 -0.55915153 
0.46948442 -0.86545473 -0.17485021 
-0.4323239 -0.7969792 -0.421806 
-0.5308598 -0.6263741 -0.570827 
-0.66344976 -0.5970009 -0.45102605 
-0.001984903 -0.64695513 -0.7625255 
-0.7414256 0.002299049 -0.67103124 
-0.5978668 -0.44818828 -0.6645921 
-0.5400967 -0.21166329 -0.81455165 
0.029191284 -0.32894796 -0.9438968 
-0.3331552 -0.71421623 -0.6155509 
0.41962197 0.67076105 -0.6115531 
0.4860849 0.5208998 -0.7017014 
0.071771495 0.40456605 -0.9116882 
0.23412444 0.5589955 -0.79543054 
-0.2170345 -0.025770621 -0.9758237 
-0.06661152 -0.16091529 -0.9847179 
0.13512166 -0.293552 -0.9463453 
0.22068517 -0.44250715 -0.8691868 
0.16211586 -0.12277564 -0.97910404 
0.3028639 -0.06131255 -0.9510596 
0.057817362 0.60076624 -0.79733133 
-0.12500915 -0.11377501 -0.9856105 
0.516607 -0.18203841 -0.83664775 
-0.4527266 0.05849212 -0.88972884 
-0.7202534 0.5768399 -0.385345 
-0.8918194 -0.053294323 -0.44924152 
-0.60802203 0.15152453 -0.7793264 
-0.5126179 -0.43415514 -0.74076474 
-0.007832806 -0.53779703 -0.8430379 
0.039385118 -0.055879243 -0.99766046 
-0.15126906 0.16905573 -0.9739291 
-0.042907868 0.033101268 -0.9985306 
-0.52770346 0.25011194 -0.8117715 
-0.40128288 -0.62059766 -0.6736695 
-0.4933899 -0.6206398 -0.6094036 
-0.18721619 -0.23927447 -0.95273185 
0.31524462 -0.22976778 -0.92077553 
-0.21414556 0.17927985 -0.9602086 
-0.16975604 -0.3376334 -0.9258438 
0.6252041 -0.4269609 -0.653318 
0.35443282 -0.26418868 -0.8969848 
-0.5207855 -0.6942819 -0.49674457 
-0.55425256 -0.56873685 -0.6077357 
-0.20769371 -0.5492887 -0.80941045 
0.31567726 -0.5462952 -0.77582824 
0.30858648 -0.19781512 -0.9303997 
0.19672428 -0.10762864 -0.97453356 
0.23683529 -0.34108505 -0.9097088 
0.6064014 -0.05824382 -0.79302275 
0.91119784 -0.33619532 -0.23809923 
0.52853423 -0.42726135 -0.7335525 
-0.4117154 -0.81666154 -0.40441877 
-0.09936712 -0.9710307 -0.21731453 
-0.5994862 -0.5713113 -0.56055325 
-0.22046871 -0.25442487 -0.941627 
-0.63415456 -0.09067323 -0.7678714 
0.13138995 -0.8691728 -0.47673428 
-0.6237357 -0.47215515 -0.62291527 
-0.32338214 -0.78455776 -0.52904934 
-0.048316594 -0.067880966 -0.99652284 
0.6860915 -0.6618882 -0.30196458 
-0.02094033 -0.94682795 -0.32105818 
0.12805383 -0.85106516 0.5092057 
-0.3049836 -0.94911385 0.07853664 
-0.64080006 -0.4676748 0.6088149 
-0.57428205 -0.46545795 -0.6734605 
-0.24773552 -0.9306961 -0.269132 
-0.48992756 -0.6415972 -0.5901899 
-0.6831765 -0.32367164 -0.6546041 
0.41103172 -0.8187058 -0.40096593 
-0.45678315 -0.88792026 -0.05428431 
-0.51232785 -0.8188828 -0.2587492 
-0.49864265 -0.77723163 -0.38375348 
0.24955003 -0.9681734 0.019106386 
0.18407351 -0.7144373 0.6750528 
-0.7693223 -0.63385683 -0.07980473 
0.17657338 -0.9453848 0.27398822 
-0.33559945 -0.9274123 0.16516551 
-0.5759501 -0.7307491 -0.36645254 
-0.24064192 -0.88697696 -0.39416173 
-0.29740548 -0.57797354 -0.75993204 
-0.000784397 -0.16376124 -0.9864997 
0.51404804 -0.15207319 -0.8441733 
0.73807037 -0.087945886 -0.66896766 
-0.18914689 0.12436905 -0.97404104 
0.5733193 -0.04494661 -0.8180983 
0.7462896 0.38939035 -0.53983986 
-0.03694219 -0.31105173 -0.9496748 
-0.09058897 -0.4087782 -0.9081267 
-0.03766992 -0.26177618 -0.96439326 
-0.45608705 0.07015157 -0.88716596 
-0.119106814 -0.23871829 -0.9637568 
0.28439897 -0.49073902 -0.82358515 
-0.7487993 -0.61924547 -0.23629381 
-0.35319737 -0.56319886 -0.7470333 
-0.18828377 -0.43565878 -0.88019925 
-0.9190037 -0.19868256 -0.3405254 
-0.6828688 -0.007326133 -0.73050433 
-0.3725595 0.27624482 -0.88593924 
-0.6983623 0.37257057 -0.6111312 
-0.18944113 0.36995053 -0.9095321 
-0.21847565 -0.4013318 -0.88949496 
0.55609614 -0.21530864 -0.80274487 
0.28016824 -0.4373387 -0.8545412 
0.15639198 -0.5904183 -0.7918003 
-0.5528594 -0.33531082 -0.76283234 
-0.4371712 -0.24677774 -0.86485964 
-0.25123408 0.19952497 -0.94713855 
-0.5002852 0.036627866 -0.8650856 
-0.66691303 0.13978629 -0.73190635 
0.20638053 -0.21870826 -0.95371586 
0.68653536 0.16018632 -0.70923173 
-0.053579614 -0.6295266 -0.7751293 
0.41025797 -0.57372653 -0.70889086 
0.757808 -0.39585158 -0.51867974 
0.2873871 -0.3274518 -0.9001022 
0.4249656 0.34117165 -0.8384547 
0.55563456 0.03885934 -0.830518 
-0.179881 0.054154053 -0.9821966 
0.37910867 -0.19180718 -0.905255 
0.3194216 0.24303015 -0.91591823 
-0.07975165 0.20056972 -0.9764279 
-0.2756727 -0.019195428 -0.96106 
-0.02803063 0.25380933 -0.9668481 
-0.011387511 -0.13247576 -0.9911209 
-0.47341305 -0.23966017 -0.84761024 
-0.14641371 -0.85608584 -0.4956613 
-0.54499525 -0.6968564 -0.4662312 
-0.6585086 -0.4595478 -0.59597176 
0.04114295 -0.2877678 -0.9568161 
0.26962483 -0.1168341 -0.9558516 
0.070947275 -0.8610477 -0.50355077 
0.11595496 -0.583579 -0.803735 
-0.08713289 -0.15963016 -0.98332405 
-0.3253079 -0.39648214 -0.85847354 
-0.19473642 0.046278488 -0.9797633 
0.5484979 -0.04031043 -0.8351798 
0.44431657 0.20608237 -0.87184453 
0.11640853 -0.6943351 -0.71017456 
-0.10459232 -0.382093 -0.9181859 
-0.2647198 -0.59785056 -0.7566361 
0.46517628 -0.7731054 -0.43118343 
0.2690527 -0.56267315 -0.7816711 
-0.041232284 -0.84696895 -0.5300412 
-0.3919024 -0.4329438 -0.81177104 
-0.124503076 -0.560207 -0.8189427 
-0.30540475 -0.46818274 -0.829176 
-0.53638685 -0.073366985 -0.84077734 
-0.023223652 -0.9979373 0.059849318 
-0.8722213 -0.48304737 0.07678025 
-0.37860498 -0.28307933 -0.88120615 
-0.7701293 -0.2865128 -0.56992227 
-0.14432135 -0.95389503 -0.26316458 
-0.21939334 -0.5937958 -0.7741274 
0.006351937 -0.45426294 -0.89084506 
0.20981795 -0.5225155 -0.8264105 
0.10773772 -0.7809978 -0.6151707 
-0.24282308 -0.8665367 -0.43606344 
-0.09093722 -0.68365973 -0.7241132 
0.16676132 -0.12801738 -0.9776515 
0.14825036 -0.6484439 -0.74668765 
0.2435093 -0.6510694 -0.7188964 
0.48171183 -0.68022716 -0.55248964 
0.2092533 0.103999406 -0.9723154 
0.23535804 0.76820105 -0.5953769 
0.7354318 -0.33728006 -0.5876923 
0.66014344 -0.58285123 -0.4738091 
0.39596575 -0.6288655 -0.66913337 
0.33198962 -0.43231297 -0.8383844 
0.23136266 -0.38317987 -0.89422846 
0.14562812 -0.17762896 -0.97326285 
-0.23969857 -0.45109233 -0.8596862 
0.63121 0.09186234 -0.77015287 
-0.007803249 -0.58111656 -0.81378293 
0.046989724 -0.7562491 -0.65259415 
-0.14562126 -0.3961966 -0.9065444 
-0.36588383 0.29746854 -0.88183993 
-0.20514241 -0.6747213 -0.7089907 
-0.15694943 -0.41898042 -0.8943278 
0.15374748 -0.41570094 -0.896412 
0.32627958 0.57362753 -0.75132763 
0.18157686 -0.0019180813 -0.9833749 
0.23299046 -0.22048193 -0.9471553 
0.3153215 -0.1951478 -0.92870325 
0.3736135 -0.8724043 -0.31515676 
0.24440835 -0.95413077 -0.17291367 
-0.3245498 -0.7461722 -0.581287 
-0.6357222 -0.20392272 -0.744495 
-0.4515922 -0.65173763 -0.60934603 
0.52415645 0.22664744 -0.8209086 
0.6655411 -0.17159538 -0.72636783 
0.21210921 0.3216086 -0.92280966 
0.8184864 -0.024863182 -0.5739877 
0.30375504 0.636173 -0.7092368 
0.41310826 -0.46413043 -0.78353333 
-0.122656636 -0.14560758 -0.9817096 
-0.44235063 -0.090558544 -0.8922584 
0.09940768 -0.6950144 -0.71209073 
-0.0011225202 -0.6286436 -0.77769274 
-0.2768104 -0.16926262 -0.9458997 
0.02388159 -0.36442372 -0.93092704 
-0.04353202 -0.36413494 -0.93032825 
-0.8690319 -0.39046872 -0.30383852 
-0.18513305 -0.92192763 -0.3402577 
-0.78475475 -0.17092156 -0.5957733 
-0.47349218 -0.44013572 -0.76294535 
-0.68528616 -0.31069028 -0.6586763 
-0.87648726 -0.44788304 -0.1765527 
-0.6483587 -0.393592 -0.65170276 
-0.49593195 -0.7085492 -0.5020056 
0.18393153 -0.4803931 -0.85754985 
-0.4192273 0.22773547 -0.8788545 
-0.36675772 0.1825287 -0.91223466 
0.47297084 -0.0045950077 -0.8810661 
-0.43710533 0.055404123 -0.89770234 
-0.4514587 -0.6068486 -0.65415585 
-0.58530223 -0.31551966 -0.7469061 
-0.2218336 -0.0118806455 -0.9750121 
-0.2098465 -0.0726393 -0.9750323 
-0.5236245 0.6124162 -0.59225327 
-0.42379138 -0.15810873 -0.8918535 
-0.12231257 -0.7462465 -0.6543362 
0.09868874 0.42201218 -0.90120274 
-0.69435626 0.49964085 -0.51790774 
-0.65091455 -0.5784358 -0.49165258 
-0.257009 -0.6831068 -0.683602 
0.030467885 -0.32233432 -0.9461355 
0.33515403 -0.2558053 -0.9067721 
0.39776066 -0.0051589366 -0.91747475 
0.53086203 0.15949902 -0.8323134 
0.8423304 -0.08701983 -0.5318903 
0.8215711 -0.36954308 -0.43411863 
-0.17082633 -0.13825779 -0.97555274 
-0.026489586 -0.028648652 -0.9992385 
0.18199155 0.06161398 -0.9813678 
0.2595891 -0.75599176 -0.60090774 
0.12007974 -0.70055944 -0.7034184 
0.053187534 -0.4705668 -0.8807599 
0.23239832 -0.23703574 -0.9432949 
-0.34016368 -0.8046787 -0.48660135 
-0.06905747 -0.75458956 -0.6525533 
0.02508999 -0.6335595 -0.7732871 
0.13622253 -0.3283103 -0.93469554 
0.31525037 0.24561146 -0.9166746 
0.46916747 -0.02622897 -0.8827197 
0.61225325 0.17827338 -0.7703017 
-0.23488429 -0.3721082 -0.89797825 
-0.7173023 -0.30004013 -0.6288509 
0.044449084 -0.3037214 -0.9517236 
-0.34327638 0.2688713 -0.8999276 
-0.54660326 0.35876077 -0.7566477 
-0.84285015 0.44774082 -0.2985495 
-0.51802903 -0.52914834 -0.6720476 
-0.54772556 0.08031876 -0.83279395 
0.13913697 -0.33980316 -0.93014777 
0.19755967 -0.6275168 -0.7531221 
0.3488291 -0.67991453 -0.64500743 
-0.7092048 -0.14970295 -0.68892497 
-0.45387533 -0.8316018 -0.3200556 
-0.32843995 -0.8498429 -0.4121824 
-0.6033204 -0.34815037 -0.7174927 
0.015087811 -0.21966566 -0.97545856 
-0.27986926 -0.49412793 -0.8231105 
0.13956447 -0.49519157 -0.85750055 
0.015939398 -0.41255438 -0.9107936 
0.19242217 -0.60028356 -0.7762947 
0.32467562 0.04820799 -0.94459605 
0.68391854 0.22047299 -0.69544744 
0.42655537 0.24963975 -0.86932766 
0.47239998 -0.84522957 -0.24985057 
-0.390008 -0.5426116 -0.7439532 
0.29977906 -0.3952839 -0.8682645 
0.32009512 -0.21341273 -0.92303526 
0.71195483 -0.2491638 -0.6565347 
0.46789292 -0.13259622 -0.87378174 
0.26125106 0.83994645 -0.47564492 
-0.054991275 0.34983763 -0.935195 
-0.20424183 0.4754253 -0.85571975 
-0.42917743 0.23102622 -0.8731745 
-0.7605864 0.3906997 -0.51851934 
-0.4550728 0.61331946 -0.64556026 
0.08909508 -0.61046237 -0.78701836 
-0.8104314 -0.10410516 -0.5765093 
-0.2389552 -0.20878202 -0.94831985 
-0.73520607 -0.10446534 -0.66974556 
-0.6590272 -0.16243608 -0.734369 
-0.76677066 -0.35004938 -0.5380783 
-0.20647556 0.20157865 -0.95746225 
-0.43298534 0.068226546 -0.8988153 
-0.37321877 -0.20635517 -0.9045028 
-0.19082546 0.014516762 -0.9815167 
-0.02989373 -0.19002864 -0.9813234 
-0.62963396 0.096688725 -0.77085173 
-0.39320567 0.6555646 -0.6446894 
-0.3166446 -0.053536907 -0.9470323 
0.19709872 -0.12791586 -0.97200286 
0.309456 -0.049815718 -0.949608 
-0.11803182 -0.43435562 -0.8929747 
-0.42478886 -0.66749525 -0.6115592 
-0.00094976864 -0.49447057 -0.869194 
0.06983581 -0.769652 -0.6346328 
0.21012115 -0.46812043 -0.8583195 
-0.2526838 -0.42453465 -0.86943734 
0.092044465 -0.4179226 -0.9038078 
0.68925524 -0.66830206 -0.27982074 
0.90466803 -0.32081902 -0.28044763 
0.7008689 -0.33070287 -0.63199556 
-0.030417752 -0.9988918 0.035917323 
-0.06538521 -0.96367294 -0.25895807 
-0.43976897 0.30075723 -0.8462555 
0.16687903 0.77826625 -0.60535383 
-0.33468014 -0.48032963 -0.8107236 
-0.27168274 -0.450603 -0.85037965 
-0.59743017 -0.75048643 0.282573 
0.20930332 -0.96765673 0.14082862 
0.5605161 -0.5911867 -0.579931 
0.28664258 -0.8197811 -0.49577704 
-0.062262625 -0.7348439 -0.6753725 
0.5954599 -0.80338484 0.00057826494 
0.37420532 -0.58541846 -0.7192049 
-0.04587492 -0.59125775 -0.8051769 
-0.3983599 -0.67488897 -0.6211556 
-0.2820601 -0.95860535 -0.03896192 
-0.2824663 -0.8431935 -0.4574249 
-0.023394223 -0.0723215 -0.99710697 
0.93287086 0.34988824 0.085616864 
-0.28997546 -0.71276087 -0.6386598 
-0.02143054 -0.47562405 -0.8793877 
-0.29676813 -0.5111864 -0.80660844 
-0.006230731 -0.74202013 -0.67034876 
-0.15569577 -0.97348154 0.16760837 
0.23719572 -0.308709 -0.9211064 
-0.24464047 -0.9637278 -0.10667672 
-0.38292778 -0.8651733 -0.32379264 
-0.9830392 -0.06387254 0.17191398 
-0.4348915 -0.2522722 -0.8644237 
-0.072785296 -0.23090802 -0.97024935 
0.47308853 -0.06261574 -0.878787 
0.24613315 0.0051998226 -0.96922207 
0.51048326 0.18173803 -0.84046304 
-0.256048 0.7014321 -0.66515595 
0.33921608 0.4194211 -0.8420324 
0.51516473 0.6027934 -0.60929924 
0.5044668 0.056630608 -0.86157197 
0.5621267 -0.4256519 -0.709108 
-0.81108034 -0.081824385 -0.5791836 
-0.17874797 -0.11089731 -0.9776252 
-0.6502356 0.011652278 -0.75964326 
-0.057358816 -0.39225844 -0.918065 
0.38759753 -0.9038948 -0.18094899 
0.045121953 -0.5092441 -0.8594386 
-0.006698316 -0.6557789 -0.7549233 
-0.79407203 -0.4999399 -0.34570193 
-0.65775007 -0.19528677 -0.7274806 
-0.6775428 -0.087181725 -0.73029804 
-0.24905945 0.42327043 -0.8710979 
-0.008552397 0.46921772 -0.8830411 
0.3158636 0.38992354 -0.86497974 
0.14888382 0.22924282 -0.9619155 
0.09943582 -0.5337221 -0.8397937 
0.1721462 -0.5645736 -0.8072313 
0.33027932 0.00160875 -0.9438819 
0.38273647 -0.34580448 -0.85669845 
-0.08215186 -0.28925824 -0.95371944 
-0.13234152 -0.3841103 -0.91375333 
0.12706901 0.37891608 -0.91666573 
-0.5473615 -0.093145125 -0.83169675 
0.07590711 -0.39597905 -0.9151167 
0.025991658 -0.16506198 -0.9859407 
0.25711623 0.42017177 -0.87025684 
0.78424025 0.087089784 -0.6143148 
-0.13911381 0.23478933 -0.96204025 
0.08621373 0.29609594 -0.9512594 
0.43415073 0.0387382 -0.90000707 
0.039751086 -0.39293706 -0.9187058 
0.34004384 -0.20715167 -0.9173104 
0.20676154 0.45288748 -0.8672616 
-0.20352907 -0.20744811 -0.95683926 
0.38964427 0.23160431 -0.891368 
0.38768956 0.046499528 -0.9206165 
0.4506584 0.2821011 -0.846951 
0.27043992 0.36351156 -0.8914717 
-0.14884928 -0.115934186 -0.98204035 
-0.08773016 -0.901289 -0.42424265 
-0.73563033 -0.64775985 -0.19812953 
-0.74021 -0.10615105 -0.6639437 
0.2212682 -0.6801567 -0.6988758 
0.43021148 -0.081830285 -0.8990117 
-0.012883329 0.11178282 -0.9936491 
0.12595302 -0.218875 -0.9675896 
-0.0036445435 0.071869485 -0.9974074 
0.21600409 0.34275237 -0.91425544 
-0.27634847 0.46386573 -0.8417007 
-0.48289523 0.22445223 -0.8464239 
0.039581683 -0.4308266 -0.9015663 
0.3744134 -0.47212887 -0.7980657 