# OOMMF: rectangular mesh v1.0
# Segment count: 1
# Begin: Segment
# Begin: Header
# Desc: Time (s) :  7.420000000000017e-07
# Title: m
# meshtype: rectangular
# meshunit: m
# xbase: 2e-09
# ybase: 2e-09
# zbase: 5e-10
# xstepsize: 4e-09
# ystepsize: 4e-09
# zstepsize: 1e-09
# xmin: 0
# ymin: 0
# zmin: 0
# xmax: 1.024e-06
# ymax: 1.024e-06
# zmax: 1e-09
# xnodes: 256
# ynodes: 256
# znodes: 1
# ValueRangeMinMag: 1e-08
# ValueRangeMaxMag: 1
# valueunit: 
# valuemultiplier: 1
# End: Header
# Begin: Data Text
-0.14463393 -0.93717825 0.3174556 
-0.3968609 -0.68255556 0.61369324 
0.1888446 -0.4478029 -0.87396246 
-0.7034247 -0.3808595 -0.60011643 
-0.43568528 -0.10403347 -0.8940669 
0.631966 -0.51814365 -0.57632136 
-0.4257323 -0.8729437 -0.23816256 
-0.86297077 -0.48491693 -0.14190581 
0.2345841 -0.22060485 -0.94673324 
-0.23411469 -0.4266938 -0.8735691 
-0.09609258 0.17713991 -0.9794834 
0.023676975 -0.65195817 -0.7578853 
-0.62781984 -0.76653945 -0.13512845 
-0.6930622 -0.69313043 -0.19807853 
-0.82764256 -0.29603395 -0.47683525 
-0.20422053 -0.3821804 -0.9012392 
0.40055344 0.22062977 -0.88931406 
0.12865224 0.5021476 -0.8551587 
0.47917217 0.39393982 -0.78435034 
-0.2008284 0.14067277 -0.96947366 
0.19128008 0.5391552 -0.8201973 
0.4406025 0.50435835 -0.7426252 
-0.025913795 0.9508641 -0.3085223 
0.66154003 -0.07441468 -0.7462086 
0.41383144 -0.3722812 -0.83075285 
0.8513113 -0.16610992 -0.49767107 
0.67767024 -0.50872135 0.5310045 
-0.20926717 -0.0044500604 0.9778484 
0.22549243 -0.5958175 0.77081436 
-0.62744445 -0.17051585 0.75976175 
-0.9957551 0.010706522 0.09141856 
-0.96079034 -0.26837942 -0.0696749 
-0.8917769 -0.4493756 0.052872516 
-0.99696845 0.05849159 -0.05130879 
-0.4039736 -0.9125998 -0.06298419 
0.032955978 -0.88961846 -0.45551392 
-0.25218394 -0.92672706 0.27853233 
-0.1905316 -0.86111385 0.4713605 
-0.02433185 -0.8900012 -0.45530877 
0.26524594 -0.6638274 -0.6992695 
-0.37575707 -0.8405778 -0.39017403 
-0.21927615 0.37742716 -0.89970374 
-0.43724027 -0.2181953 -0.8724745 
0.92312646 -0.34639812 -0.16687116 
0.97702116 -0.058870748 0.20485093 
0.5058806 -0.48384026 0.71413124 
0.21352561 -0.96206826 0.16979824 
0.3476049 -0.5431909 -0.76427394 
0.3994743 -0.57517797 -0.71385616 
0.24747363 -0.8657777 -0.43495485 
0.11316364 -0.6876796 -0.7171408 
0.13426037 -0.37129277 -0.91875774 
-0.18825333 -0.49006844 -0.85111326 
0.24796891 0.24485843 -0.937313 
0.56190723 0.11834027 -0.81869155 
0.5234594 -0.8245521 0.2147188 
0.14278355 -0.8969153 -0.418516 
0.56723094 -0.7039455 -0.42744574 
0.099652424 -0.52926147 -0.8425863 
0.64697313 -0.22227754 -0.729396 
0.6315156 -0.4198509 -0.65185374 
0.58888876 -0.33807024 -0.7341108 
0.95203924 -0.1917633 -0.23842873 
0.69351435 -0.17127046 -0.6997888 
0.7397066 -0.3948759 -0.5448919 
0.79065675 -0.6121073 0.013664911 
0.7376821 -0.21443208 -0.6401906 
0.9983172 0.0068395655 -0.057585906 
0.9375675 -0.29484305 0.18448533 
0.4078145 -0.88833743 0.21105419 
-0.09247382 -0.9700858 -0.22445968 
-0.18929772 -0.26412684 -0.945729 
0.05566069 -0.72868264 -0.6825859 
-0.2604858 -0.7926103 -0.5512859 
-0.59608966 -0.5180435 -0.61343956 
0.63254726 -0.43412495 -0.64142 
-0.8122207 -0.5467429 -0.2033959 
-0.17016833 -0.56071824 -0.81033194 
-0.46177787 -0.8343284 -0.3010938 
0.15775286 -0.5113687 -0.8447581 
0.080477886 -0.98628503 -0.14410113 
-0.12587573 -0.9719108 0.19885911 
0.16007435 -0.61868507 -0.7691586 
-0.09968458 -0.98530257 -0.13871497 
-0.19339259 -0.9710392 -0.14029388 
-0.13966951 -0.66434956 -0.73425627 
-0.222176 -0.044388242 -0.9739956 
-0.20781548 -0.54577196 -0.8117547 
-0.6173201 0.32653472 -0.7157451 
-0.6468362 -0.5080972 -0.568718 
0.1289742 -0.94952494 -0.2859515 
0.21396619 -0.7455461 -0.6311732 
-0.37766245 -0.28565958 -0.8807779 
-0.49267155 -0.83179665 -0.2557132 
0.1554847 -0.602193 -0.7830633 
0.13166715 0.048709806 -0.99009657 
0.18529285 -0.49832708 -0.8469574 
0.50382787 0.088548794 -0.8592536 
0.53192717 -0.08456406 -0.8425571 
0.6593047 0.062251326 -0.7492945 
0.52634275 0.1686216 -0.8333847 
0.72300655 -0.02303062 -0.6904572 
0.5882517 -0.26922357 -0.7625475 
0.25741333 -0.5856754 -0.76858497 
-0.18988173 -0.97822595 -0.08377926 
-0.5681619 -0.59903795 -0.5642213 
-0.27090138 -0.5521711 -0.7884919 
0.15548296 -0.941844 -0.29791775 
0.16490975 -0.83500713 -0.52494574 
0.08241906 -0.98969007 0.11713552 
0.55741364 -0.29357514 -0.77659744 
0.15334034 -0.49383822 -0.8559268 
0.207369 -0.9605034 -0.18555687 
0.082208894 -0.2734073 -0.9583789 
0.81162065 -0.2632691 -0.52149916 
0.09169112 -0.9054436 -0.4144452 
-0.49723187 -0.67141175 -0.54951507 
-0.46250218 -0.69816196 -0.54649943 
-0.5980237 -0.23385085 -0.76660395 
0.3794072 -0.4805911 -0.79062164 
0.9057022 0.23077127 -0.35559577 
0.55793774 -0.23075005 -0.79715735 
0.14497931 -0.4060272 -0.9022876 
0.42873335 0.10625901 -0.8971604 
0.6718516 0.16059752 -0.7230657 
0.64563996 -0.7492564 0.14752662 
0.09597885 -0.9316109 0.3505556 
-0.035727326 -0.6010236 0.79843235 
-0.30940142 -0.8420584 -0.44182405 
-0.39387974 -0.6422661 -0.6575356 
-0.5198306 -0.1838522 -0.83425087 
0.3760103 -0.30389068 -0.8753667 
0.9052782 -0.1444671 -0.39950046 
0.72266793 -0.4976244 0.4797093 
-0.06340956 -0.9785005 0.19625509 
-0.3966852 -0.77693915 -0.48888278 
0.16541699 -0.187316 -0.9682717 
0.78704387 0.15690927 -0.5966084 
0.24991962 0.0021575154 -0.9682642 
0.39608955 0.12595259 -0.90953237 
0.18327403 -0.08173908 -0.9796578 
0.08554825 -0.8225141 -0.5622741 
0.3135596 -0.94954985 -0.005960888 
0.24534789 -0.96648914 -0.07552056 
-0.23991013 -0.5474849 -0.8016879 
-0.2071601 0.029627552 -0.9778584 
-0.524899 -0.0693507 -0.84833455 
-0.15883873 0.06720641 -0.9850145 
-0.80068105 -0.11081166 -0.58875364 
-0.75488317 0.49707347 -0.42786607 
-0.46710426 0.19046415 -0.863445 
-0.8460868 0.037800558 -0.53170335 
-0.696679 -0.6686806 -0.25981686 
-0.035432365 -0.08220549 -0.9959854 
0.070376046 -0.7343365 -0.6751276 
0.3679875 0.044311862 -0.92877424 
0.120499626 -0.46688125 -0.8760718 
0.21362486 -0.6354468 -0.74200535 
-0.6999896 -0.54834014 -0.45753437 
-0.33175725 -0.68129295 -0.652516 
0.09257001 -0.3584776 -0.9289374 
-0.20106344 -0.16040094 -0.96635664 
0.7722299 0.02185509 -0.6349673 
0.35851628 -0.32900152 -0.87362695 
0.4084051 -0.4622344 -0.78711164 
0.23004629 -0.8190635 -0.5255605 
0.70371664 -0.5590014 -0.43852085 
0.6211651 -0.1541052 -0.7683785 
0.34885758 -0.89133614 -0.28951415 
0.62972975 -0.6246991 -0.46172664 
0.6304636 -0.56629086 0.53087693 
-0.18875381 -0.9567154 -0.2215124 
-0.46402118 -0.38060197 -0.7998917 
0.056472924 -0.23961705 -0.96922374 
0.07592778 -0.21623798 -0.9733839 
0.6629752 -0.3166339 -0.67838556 
0.53021353 -0.43999124 -0.72476304 
0.034153976 -0.8069112 -0.58968467 
0.35490903 -0.7617292 -0.5420409 
0.40641403 -0.8962991 0.1774138 
-0.5372961 -0.6202003 0.57154584 
-0.9324742 -0.25236562 0.25846395 
-0.9474781 -0.24784698 -0.2021315 
-0.0589859 -0.4360004 -0.8980113 
-0.14889437 -0.15103878 -0.9772501 
-0.12483724 -0.9694423 -0.21118088 
-0.20126627 -0.6475548 -0.73495895 
-0.30455437 0.25648335 -0.9173129 
0.30157837 0.5596566 -0.7719035 
-0.18020724 0.24485037 -0.95266664 
-0.58659333 0.22483422 -0.77804744 
-0.4921268 -0.44447136 -0.7485028 
-0.37215146 -0.03717697 -0.92742723 
-0.27828518 -0.6054907 -0.74561286 
-0.30068618 -0.7277247 -0.61644524 
0.3307696 -0.65646607 -0.67797035 
0.4974684 0.17200086 -0.85025936 
-0.45534685 0.13866024 -0.8794502 
-0.038566697 -0.1043796 -0.99378955 
0.11347506 -0.5027143 -0.85697246 
-0.29182714 -0.6662838 -0.68622375 
-0.42560557 -0.84711105 -0.31821808 
-0.30883226 -0.13320646 -0.94174236 
-0.7054007 -0.2710961 -0.6549174 
0.0074007227 -0.5350505 -0.84478766 
-0.46679586 -0.39568192 -0.79090935 
-0.06145107 -0.44551286 -0.89316416 
0.85458285 -0.3021995 -0.42233142 
0.43362665 -0.843112 -0.31800976 
-0.084731854 -0.92885035 -0.36063486 
0.089353144 -0.69193834 -0.7164059 
-0.8607491 -0.5057123 -0.058018424 
-0.76214397 -0.64591235 -0.043975662 
-0.15178351 -0.8718789 -0.46560594 
-0.2706652 -0.14593601 -0.9515478 
-0.37010178 -0.5661383 -0.7365542 
-0.14504987 -0.8022052 -0.579161 
0.48515677 0.14319512 -0.8626229 
0.30025122 -0.2024166 -0.93213564 
0.8571776 -0.06685059 -0.51066387 
0.64037997 -0.34370232 -0.6868641 
0.29327536 -0.46194884 -0.83701426 
0.32075572 0.00552896 -0.9471459 
-0.42892015 -0.4922656 -0.7574313 
-0.31672335 -0.4953671 -0.8088868 
0.48143375 0.0022267855 -0.8764797 
0.94282883 -0.12133255 -0.31040683 
0.2767291 -0.9200419 -0.2773878 
0.19060063 -0.96585536 -0.17548464 
0.5111664 -0.85818 -0.047287576 
0.12364003 -0.57662606 -0.8075987 
-0.10371829 -0.7725378 -0.6264405 
-0.5149717 -0.5878778 -0.62386215 
-0.05213201 -0.6717687 -0.7389243 
0.25245982 -0.7570641 -0.60259277 
0.38272294 -0.2775573 -0.88118386 
-0.04306624 -0.6243151 -0.7799847 
0.27471393 -0.5809218 -0.7661998 
-0.52549773 -0.66811824 -0.5267544 
0.35570684 -0.14785776 -0.92282766 
0.9914087 -0.02738833 -0.12790106 
0.5227235 -0.2186388 -0.8239887 
-0.16972452 -0.7838469 -0.59730875 
0.10990708 -0.99393827 0.002689559 
0.15100232 -0.6378881 -0.7551802 
0.18333215 -0.89676976 -0.40273237 
0.13209043 -0.8366635 -0.53155106 
0.2026946 -0.7015413 -0.6831945 
-0.07990122 -0.9115838 -0.4032752 
-0.35817397 -0.79408824 0.4910554 
-0.9265928 -0.23576629 0.2929848 
-0.016529199 -0.32862478 -0.9443159 
0.3940029 -0.18201482 -0.90090644 
0.06947557 0.33861214 -0.9383576 
-0.16478053 -0.62949103 -0.75933415 
-0.59034675 -0.49454984 -0.637896 
-0.4197241 -0.525047 -0.7403766 
-0.98508334 -0.17103748 0.018893631 
-0.4570582 0.31743836 -0.8308614 
-0.46538734 0.0310057 -0.884564 
0.27609387 -0.38433656 -0.8809413 
0.43558154 -0.3580667 -0.82586753 
-0.24846432 -0.7195051 -0.6485198 
0.18077749 -0.7727315 -0.60844517 
0.032331157 -0.6110642 -0.79092056 
0.07529711 -0.7667298 -0.63753885 
-0.12019963 -0.15655376 -0.980328 
-0.038374 -0.38886443 -0.9204955 
0.1387193 -0.7371505 -0.6613366 
-0.33606833 -0.32122055 -0.8853675 
-0.3293606 -0.61588645 -0.7156854 
-0.3521666 -0.41848424 -0.8371676 
0.2557187 -0.15689547 -0.95393497 
-0.25130868 0.15904261 -0.95475096 
-0.2777514 -0.5994639 -0.75066465 
0.28808656 -0.9124881 -0.2904682 
-0.28800455 0.592863 -0.7520419 
0.31270492 0.68344635 -0.6596338 
0.83623743 0.1491187 -0.52770305 
0.72204494 0.026150918 -0.6913517 
0.33767894 0.04493452 -0.94018817 
0.45827854 -0.74122757 -0.4904717 
0.5948534 -0.7713846 -0.22608694 
0.16691723 -0.9857322 -0.02169812 
0.55632967 -0.5763873 0.5985608 
-0.23911007 -0.69957066 0.67337006 
-0.21436931 -0.9694991 0.11881625 
-0.68095833 -0.6433755 -0.34980518 
-0.41499782 -0.8819071 0.22364458 
-0.97601277 -0.16760628 0.13895012 
-0.61586165 -0.32028997 -0.7198116 
-0.34915358 -0.3927046 -0.8508083 
-0.46412855 -0.7132843 -0.52517647 
-0.52939653 -0.81656414 0.23013562 
-0.76459366 -0.38989115 -0.5132071 
-0.4061452 -0.17209488 -0.8974572 
-0.50669885 -0.0031691024 -0.8621174 
-0.39657655 -0.3708909 -0.8397423 
0.058602933 -0.59243774 -0.803482 
0.65450716 -0.701294 -0.28250167 
0.70896316 -0.5769839 -0.40553764 
0.50411826 -0.8635301 0.013440503 
0.20153515 -0.88042533 -0.429226 
0.880547 -0.26544663 -0.39265135 
0.7327263 -0.3870126 -0.55976194 
0.21926273 -0.95445085 0.2023551 
-0.5053886 0.28899634 -0.8130582 
0.18430793 0.01489005 -0.9827558 
0.24526007 -0.04486531 -0.9684187 
0.030449213 -0.6788326 -0.7336616 
0.28654128 -0.5831552 -0.7601474 
-0.40889987 -0.72348475 -0.5562112 
0.895992 -0.41956535 -0.1454763 
0.87277186 -0.030534431 -0.48717242 
0.74367577 -0.6529643 0.14347166 
0.8949348 -0.42859262 0.124097124 
0.4711157 -0.8420833 -0.26257536 
0.55782 -0.69997185 -0.44595554 
0.67943287 -0.6098273 -0.40802166 
0.74267393 -0.1437946 -0.6540325 
0.62770545 -0.22582124 -0.744977 
0.5106011 -0.09621141 -0.85441786 
0.41364953 -0.032441452 -0.9098581 
0.873069 -0.32301816 -0.365253 
0.5250301 -0.84999114 0.043110438 
0.3751841 -0.84806347 -0.37419945 
0.22960621 0.2467979 -0.9414732 
-0.34927875 -0.031388268 -0.9364931 
0.1157548 0.11235441 -0.98690295 
0.336182 0.2663056 -0.9033621 
0.31429982 -0.27496472 -0.9086309 
-0.076189205 0.21860859 -0.97283375 
0.14232437 0.30111822 -0.94290596 
0.11830859 0.072814174 -0.99030364 
-0.26886934 -0.25961894 -0.9275276 
0.20131484 -0.16193974 -0.96604764 
0.1288165 -0.9266211 -0.35324192 
-0.32511118 -0.89921236 0.2927796 
-0.27332312 -0.7495989 -0.6028233 
-0.17624827 -0.20336947 -0.9631083 
-0.17474213 -0.8720729 -0.4571151 
-0.21584404 -0.34068754 -0.91506463 
0.30963215 -0.8175265 -0.4855703 
-0.35375115 -0.26624432 -0.896646 
-0.45843777 0.35792655 -0.8134639 
-0.09925324 -0.9067942 -0.40972325 
-0.12002456 -0.9900271 0.07375928 
-0.36552325 -0.85764676 -0.3617109 
-0.28485844 -0.5608112 -0.7773972 
-0.06269267 -0.7602841 -0.6465583 
-0.044986784 -0.9048448 -0.42335814 
-0.19114393 -0.23343082 -0.9534014 
0.01707664 -0.6978275 -0.7160623 
0.86146325 0.04902767 -0.50544775 
0.64572275 -0.3169159 -0.6946989 
0.41360283 0.55837363 -0.71913254 
0.33805627 -0.47194868 -0.81423736 
0.278944 -0.22708318 -0.9330721 
-0.072186366 -0.51587623 -0.85361636 
-0.37215778 -0.5417589 -0.75365496 
-0.70591396 -0.5491418 -0.4473576 
-0.55229753 -0.67633355 -0.48738113 
-0.35905364 -0.732868 0.5779144 
0.746034 -0.27079934 -0.6083593 
0.0038654706 -0.9821094 -0.18827169 
0.37656567 -0.8775133 -0.29693237 
-0.19886044 -0.32081506 -0.9260304 
-0.3213364 -0.25651735 -0.9115602 
0.2411744 0.056655105 -0.96882665 
0.30292293 0.19349709 -0.93316483 
0.71207446 0.611874 -0.34432593 
0.6870734 -0.30906 -0.6575805 
-0.016035572 -0.97074807 -0.23956463 
0.15782025 -0.7245781 -0.67087966 
-0.059181824 -0.6961381 -0.7154644 
0.2631129 -0.3250752 -0.9083489 
-0.20515786 0.6597712 -0.7229193 
0.58244497 0.39578748 -0.7100072 
0.30729654 -0.45807746 -0.8341066 
0.41922143 0.015653398 -0.90774906 
0.9366721 -0.22045389 -0.2721132 
0.84481066 -0.534727 -0.019031169 
0.69496006 -0.7184809 -0.028561527 
-0.30204198 -0.91017735 0.283457 
-0.2303173 -0.83364874 -0.5019798 
-0.7121769 -0.11507261 -0.69250447 
-0.6404966 0.059200875 -0.76567584 
0.16289978 -0.19551648 -0.96707654 
-0.1818473 -0.63749135 -0.74868983 
0.11067752 -0.7481183 -0.65427023 
0.1317723 -0.40721506 -0.9037765 
0.10512988 0.18382058 -0.97732174 
0.3820524 0.048806116 -0.9228511 
0.23106843 -0.73373306 -0.63893914 
0.120125294 0.21816905 -0.96848965 
-0.35033393 -0.20443873 -0.9140411 
0.32659313 0.5164939 -0.79156244 
0.12226592 0.24023531 -0.96298397 
0.1268535 -0.9878898 0.08934221 
-0.31678116 -0.60221463 -0.73279417 
0.2090778 0.14149292 -0.9676085 
-0.70749456 0.49810496 -0.5013412 
-0.6350635 -0.27576238 -0.7215604 
-0.5840521 -0.37129563 -0.7218191 
-0.53045547 0.26848024 -0.80407417 
-0.4599419 -0.20011285 -0.865106 
-0.026307117 -0.22190356 -0.97471374 
-0.5775289 -0.6024913 -0.5508762 
-0.5188416 0.23681955 -0.8214133 
-0.26568794 0.11804741 -0.9568045 
-0.31197488 -0.23652223 -0.9201788 
-0.568703 -0.048807688 -0.8210937 
0.107536934 -0.2974642 -0.94865745 
0.12519771 -0.49551338 -0.8595302 
0.17792906 0.24447212 -0.9531918 
0.5948381 0.28422084 -0.7519217 
0.18856703 0.3663052 -0.91118777 
0.08360737 0.37813216 -0.9219686 
0.31881708 0.06680197 -0.9454593 
0.36601642 0.25328097 -0.89547795 
0.5890577 0.21191727 -0.7798092 
0.7161606 -0.57400084 -0.39703533 
0.8386369 -0.523375 -0.15088701 
0.65244675 0.055056106 -0.75583214 
-0.3456082 -0.005596991 -0.93836224 
0.5693004 -0.45016247 -0.68793225 
0.2647155 -0.96062887 0.08436741 
-0.097793944 -0.81998056 -0.5639756 
-0.091216885 -0.8043079 -0.5871698 
0.30133206 -0.40796462 -0.8618375 
0.520318 -0.6739482 -0.52446455 
0.36355323 0.40578356 -0.83855164 
-0.011199574 0.41612387 -0.90923905 
0.20931722 0.13519275 -0.9684571 
0.31569386 -0.4964523 -0.80862397 
0.28753933 -0.95144176 -0.10990818 
-0.49044403 -0.8659141 -0.0982725 
-0.73710763 0.058008127 -0.67328113 
-0.15878303 0.42013326 -0.893463 
-0.06429849 -0.12619293 -0.9899198 
-0.28562823 0.14547057 -0.9472354 
0.11969361 -0.1929009 -0.9738905 
-0.4364683 -0.4463208 -0.7812127 
-0.58837384 -0.17539397 -0.7893373 
-0.49768198 0.48586684 -0.71850276 
-0.5796896 0.38786602 -0.71660304 
-0.4776855 0.2527182 -0.8413977 
-0.19959079 0.02870649 -0.9794588 
-0.8146533 -0.24757506 -0.52444905 
-0.13955839 -0.47461683 -0.8690584 
-0.5634211 -0.5781235 -0.59019494 
0.12726511 -0.5661782 -0.81439906 
0.1943722 -0.12852599 -0.9724714 
0.17325534 0.08835317 -0.98090595 
-0.36897734 0.30593848 -0.87764317 
-0.26292393 -0.15183531 -0.95279443 
-0.09831237 -0.024847906 -0.99484545 
-0.20602034 -0.97760665 0.042906508 
-0.6920797 0.25722954 -0.67443216 
-0.2841122 -0.3490588 -0.89299405 
0.21096556 -0.19333008 -0.95818424 
0.16729288 -0.4542575 -0.8750219 
-0.08148805 -0.3564168 -0.93076676 
0.70411193 -0.69149387 0.1614392 
-0.14273712 -0.98648036 -0.08051499 
-0.2274402 -0.87455916 -0.42827252 
-0.49604312 -0.6812123 -0.53841543 
-0.5045687 -0.78489244 -0.35965848 
-0.7059832 -0.7014092 -0.09804519 
-0.521978 -0.5419922 -0.6586224 
-0.073763065 -0.9193137 -0.38655052 
-0.501551 -0.47790718 -0.721146 
-0.5278932 -0.2315039 -0.8171505 
0.16073082 -0.4066349 -0.89934075 
0.52760667 -0.37866783 -0.76042217 
0.32903472 -0.4056585 -0.85274696 
0.16790248 -0.35578224 -0.9193628 
-0.27121386 0.24159092 -0.9317064 
0.34138227 0.53668535 -0.7716391 
-0.006467773 -0.29587343 -0.95520526 
-0.2464157 -0.6404092 -0.72743076 
0.06729374 -0.26473033 -0.96197164 
0.73011005 -0.6672839 0.14721294 
0.78407425 -0.35681638 0.50784814 
0.19903505 -0.90782034 0.3691169 
-0.4316373 -0.73149526 -0.52782947 
0.3312736 -0.08776328 -0.93944424 
0.12172629 -0.51716167 -0.8471874 
0.24423242 -0.65994895 -0.7105054 
0.34748587 -0.069205575 -0.935128 
0.31818965 -0.6997086 -0.63965875 
-0.15416887 0.17159608 -0.97302973 
0.0873294 -0.9170762 -0.38903064 
0.08935353 -0.24050431 -0.9665267 
0.3351257 -0.7185291 -0.6094316 
-0.22193338 -0.061483804 -0.97312146 
0.57121927 0.031111464 -0.82020766 
0.42287987 -0.30083457 -0.8547931 
0.5165996 -0.32524773 -0.7920472 
0.55261797 -0.20031154 -0.80900484 
0.22393636 -0.39464518 -0.89112717 
0.41090453 -0.3494322 -0.84205383 
-0.09129347 -0.8512096 0.5168248 
-0.29880995 -0.82270867 -0.4835941 
-0.5955301 -0.62099046 -0.5096223 
-0.77548856 -0.53946936 -0.3280097 
-0.8142565 -0.046712212 -0.5786229 
-0.5100148 -0.53427446 -0.67411846 
-0.22417814 -0.23100227 -0.94677466 
-0.05410256 -0.44312325 -0.89482665 
-0.5309368 -0.075605325 -0.84403205 
-0.07935489 -0.6990872 -0.7106194 
-0.8829831 -0.013587218 -0.4692083 
-0.5692007 0.47245347 -0.6729029 
-0.42239398 0.797579 -0.43064055 
-0.57373285 0.06702414 -0.81629556 
0.13035531 -0.18879265 -0.97332674 
0.51778364 -0.07768771 -0.851977 
0.18778391 -0.6528529 -0.7338395 
-0.68214154 -0.7312127 0.003316086 
-0.13288315 -0.559727 -0.81795347 
0.07198641 -0.5060098 -0.85951847 
-0.14739668 -0.051031843 -0.9877601 
-0.15429328 0.25384948 -0.9548581 
-0.22967835 -0.38102773 -0.8955812 
0.26946896 -0.41372004 -0.8696105 
-0.2240402 0.03412671 -0.9739822 
0.24930379 -0.4304811 -0.86748695 
0.26374662 0.37592947 -0.8883214 
0.056888364 -0.38274056 -0.92210275 
-0.07723615 -0.41093978 -0.9083849 
0.8826642 -0.46919683 -0.027536381 
0.07307235 0.0760349 -0.99442405 
0.72318166 0.11128697 -0.681633 
0.6317543 0.010733118 -0.77509445 
0.10908978 0.2887211 -0.95117795 
-0.37910998 -0.72842216 -0.5706811 
0.063939676 -0.16370197 -0.98443556 
0.7476448 -0.49362984 -0.44424883 
0.36610666 -0.92963064 0.04186829 
-0.4841212 -0.8039573 0.34536847 
-0.5459102 -0.8372 -0.03283768 
-0.34300238 -0.908646 0.23814267 
-0.6356521 -0.76466644 -0.105979875 
-0.8552151 -0.26545092 -0.44513246 
-0.55510044 0.1411184 -0.8197251 
-0.37992504 -0.21308196 -0.9001406 
-0.32083333 -0.06193634 -0.9451085 
-0.0570095 0.16281444 -0.9850083 
0.028335826 -0.0097359745 -0.9995511 
0.23361138 -0.122286804 -0.9646096 
-0.055827234 -0.5489835 -0.8339668 
-0.55120325 0.04196678 -0.8333149 
-0.02042577 -0.094483346 -0.9953169 
-0.4694439 -0.3413058 -0.8143297 
0.3571096 -0.71475536 -0.6013299 
-0.034134306 -0.66892236 -0.74254817 
0.3100569 -0.74121255 -0.59537274 
0.006945904 -0.70165753 -0.71248055 
0.5883171 -0.57696986 -0.56655884 
0.4778967 -0.36552453 -0.7987532 
-0.37734532 -0.706999 -0.59813297 
-0.39585805 -0.89789784 -0.19255096 
0.09388575 -0.18698165 -0.9778667 
0.20668645 0.11119692 -0.97206795 
0.3936679 -0.24443246 -0.88615936 
0.26792967 -0.47485638 -0.8382871 
0.4452033 -0.17212568 -0.8787303 
0.58732736 -0.108995765 -0.8019767 
0.743297 -0.22033434 -0.6316347 
0.7637505 -0.567242 -0.30809355 
0.97069085 -0.23289563 -0.059320975 
0.66212785 -0.74584484 0.072816215 
-0.1396106 -0.97775334 0.15654819 
0.008668779 -0.6574731 -0.7534282 
-0.5261761 -0.5245461 -0.66932064 
-0.12411869 -0.07183066 -0.9896641 
0.25747737 -0.10254493 -0.9608278 
0.38360527 -0.12979715 -0.9143302 
0.72498065 -0.094956286 -0.6821923 
0.7137368 -0.6414059 -0.28138646 
-0.27433535 -0.9572856 -0.09134875 
0.3867609 -0.47761 -0.7888629 
0.31102914 -0.3169332 -0.8959991 
0.25841767 0.45472288 -0.8523189 
0.7660736 0.51083857 -0.39009625 
-0.24128765 0.06264476 -0.9684296 
0.041651133 0.13207653 -0.9903641 
0.23922089 -0.06427206 -0.96883565 
0.7384327 -0.038414087 -0.6732322 
0.32527107 0.24414393 -0.91356033 
0.5537755 0.12328431 -0.82348883 
0.19011919 -0.13007121 -0.9731065 
-0.60393393 -0.79600877 0.04042218 
-0.9110198 -0.3570467 -0.2063025 
0.3963119 -0.31773427 -0.8613836 
0.24503848 -0.7246782 -0.6440479 
0.69113106 -0.7040244 0.16336374 
0.85796463 -0.50110435 0.113098904 
-0.67103946 -0.58461684 -0.4559927 
-0.6391796 0.16226965 -0.7517434 
-0.9419028 -0.1281672 -0.3104711 
-0.06103717 -0.6726814 -0.73741055 
-0.58964133 -0.5758764 -0.56629455 
-0.079607025 -0.68237936 -0.72665066 
0.10058672 -0.58411664 -0.805413 
-0.2544387 -0.5709287 -0.78057766 
-0.23025657 0.6335756 -0.738623 
0.13715175 -0.19573519 -0.9710186 
0.63405573 -0.028899672 -0.7727473 
0.74572694 0.042776812 -0.6648771 
0.28337395 -0.20330173 -0.93721265 
0.48933938 -0.29681602 -0.82002884 
0.5609243 0.404288 -0.72243696 
0.4156803 -0.084521554 -0.905575 
-0.29149327 -0.47288603 -0.83151096 
-0.040917087 -0.35572758 -0.93369365 
0.25400156 -0.57072204 -0.7808711 
0.27900144 -0.92375153 -0.26237637 
0.10818875 -0.98726314 0.116647765 
-0.6451945 -0.6103767 0.45952624 
-0.6792172 -0.7080658 -0.19314982 
-0.24800162 -0.8348749 -0.49140528 
-0.8884055 -0.42339176 -0.17741217 
-0.33508644 -0.15903215 -0.928669 
-0.1923358 0.22253881 -0.9557633 
0.42090175 0.38529894 -0.8212103 
0.6508382 0.12307814 -0.7491738 
0.052426845 -0.4617761 -0.88544583 
0.21293652 -0.29756466 -0.9306521 
-0.0025656186 0.4196161 -0.9076981 
0.36773944 0.20000255 -0.9081667 
-0.010336861 0.16637367 -0.9860086 
-0.46112105 -0.083428815 -0.8834066 
-0.5554423 -0.19482121 -0.8084112 
0.48128667 0.36161172 -0.7984987 
0.531905 -0.24753618 -0.8098166 
0.83098865 -0.41442856 -0.3710888 
0.27083576 -0.51491153 -0.8133352 
-0.1416261 -0.23849893 -0.9607603 
-0.34649986 -0.5655285 -0.7484086 
0.19448158 0.016641513 -0.98076504 
0.12943879 -0.20033304 -0.9711397 
0.107400894 -0.31038913 -0.944523 
-0.19782697 0.5089914 -0.83773047 
0.33522 0.32456285 -0.8844696 
0.38470027 0.20296042 -0.90045154 
0.5159763 -0.3125184 -0.79755926 
0.09799064 -0.1122963 -0.98883134 
0.060312055 -0.38393012 -0.92139035 
0.0068352227 -0.11006763 -0.9939006 
-0.067183666 -0.13290398 -0.9888493 
0.16971387 0.105412275 -0.9798395 
0.24223025 0.17456193 -0.95438606 
-0.11278044 -0.3299328 -0.93724334 
-0.59143907 -0.30205545 -0.7476379 
-0.94340664 -0.32158267 0.081047386 
-0.6730186 -0.38931617 -0.62887126 
-0.7276805 -0.49789703 -0.4717836 
-0.31388795 -0.51307327 -0.7988932 
0.66232973 0.3329032 -0.6711892 
0.29015902 -0.38677347 -0.8753365 
-0.18411647 0.52229625 -0.8326511 
-0.14347866 0.5841717 -0.79884744 
-0.33357835 -0.087211564 -0.9386797 
0.41948652 -0.1123726 -0.9007794 
0.44185534 -0.60792905 -0.6596864 
-0.19345775 0.042168625 -0.980202 
0.34250966 0.013687266 -0.9394146 
0.050641872 -0.2057085 -0.97730213 
0.33864304 0.3610916 -0.8688693 
0.2842241 0.24243256 -0.9276008 
0.04195303 0.27369976 -0.9608998 
0.45136008 -0.0068749334 -0.89231545 
0.23288788 0.05673976 -0.970847 
0.7981775 -0.107799225 -0.59269905 
0.31290418 -0.07812872 -0.9465658 
0.47653145 -0.41270083 -0.77627045 
0.31867757 -0.902959 -0.28828758 
0.28144225 -0.48980126 -0.8251575 
0.23838338 0.1724921 -0.9557301 
0.46392113 -0.4466517 -0.7650356 
0.62188613 -0.667635 -0.4092934 
-0.03766625 -0.9423161 -0.33259818 
0.21581171 -0.85842746 -0.46532544 
0.4140763 -0.2729101 -0.8683669 
-0.44052595 -0.6092449 -0.65936154 
-0.22190815 -0.12680751 -0.96678686 
-0.21673381 0.53999984 -0.81328154 
0.07650309 -0.013151656 -0.99698263 
0.8168364 0.045390144 -0.57508093 
0.44629946 -0.5180974 -0.72965187 
-0.7652842 -0.3886291 -0.5131351 
-0.29683283 -0.3127092 -0.9022767 
0.33332136 0.039900105 -0.9419687 
0.23180209 0.22047418 -0.9474487 
-0.2782179 -0.37902728 -0.8825719 
-0.046737123 0.03090256 -0.9984291 
-0.804997 -0.2155466 -0.5527381 
-0.8091669 -0.18462987 -0.557818 
-0.5549426 0.5875145 -0.58895284 
-0.7112085 0.5191393 -0.47400102 
-0.34005636 0.55322605 -0.7604621 
-0.68837327 -0.19865191 -0.6976244 
-0.74587506 -0.23187135 -0.6244246 
-0.58906233 -0.40305826 -0.70039254 
-0.2737574 -0.4272525 -0.8616915 
0.2862542 0.15494527 -0.94554245 
0.35131025 -0.07245663 -0.93345124 
0.3451544 -0.041401226 -0.9376323 
0.25435644 0.28461805 -0.924281 
-0.6205763 0.45247465 -0.64043087 
-0.026160097 0.2037564 -0.97867215 
-0.51576525 -0.21698044 -0.8287978 
0.06270359 0.1459243 -0.9873067 
0.0023267139 0.19840151 -0.9801181 
-0.09506156 0.19568616 -0.97604835 
0.23686284 -0.011119989 -0.97147954 
0.40438655 -0.09972888 -0.9091346 
-0.2534589 -0.8257203 -0.50392914 
-0.123394415 -0.717547 -0.68549263 
-0.76455057 -0.6394859 0.08074825 
-0.474341 -0.8696447 -0.13681674 
-0.49582148 -0.43484387 -0.75171274 
-0.088905215 -0.9959167 -0.01567614 
-0.19141865 -0.78121954 -0.59418446 
-0.21308745 -0.34133798 -0.91546834 
0.26538095 -0.4990089 -0.8249626 
-0.35888684 -0.42564264 -0.8306796 
0.14952911 -0.5784227 -0.80191535 
0.27136904 0.23465231 -0.93343306 
0.44496197 0.3197295 -0.8365296 
-0.32698113 0.48238453 -0.81264305 
-0.17070435 0.68641657 -0.7068893 
-0.25944722 0.7443942 -0.6152759 
0.13646168 0.48946634 -0.8612787 
-0.34026334 -0.48105124 -0.80796695 
0.16283377 -0.37892014 -0.910991 
0.09921299 -0.47944528 -0.87194556 
0.5655377 -0.79258597 0.2279795 
-0.22622967 -0.9437632 0.24110435 
-0.2403343 -0.7785501 -0.57974064 
0.3303961 -0.80208874 -0.49748582 
-0.27574527 -0.8665592 -0.4159805 
-0.39301547 0.12437461 -0.91108173 
0.19548732 -0.18236539 -0.96360135 
0.28314844 0.27497575 -0.9188119 
0.3704968 0.31944767 -0.87217283 
0.09003169 -0.6891175 -0.7190351 
-0.06663591 -0.52868927 -0.8461958 
0.6921425 0.030144803 -0.7211312 
-0.2434394 -0.25250432 -0.9364715 
0.07840874 0.5570004 -0.8268028 
0.55701387 -0.19647719 -0.80692774 
0.64622056 0.32497963 -0.6904979 
0.63662165 0.15998313 -0.7543993 
0.54491544 -0.13706154 -0.8272129 
0.63556606 -0.05256402 -0.7702551 
0.4782509 -0.6461465 -0.5947864 
0.14054152 -0.9490937 -0.28190297 
-0.27306616 0.04538064 -0.96092427 
-0.31080127 -0.53129476 -0.7881172 
-0.2816042 -0.518128 -0.80761534 
-0.07843549 -0.6736902 -0.7348398 
-0.04262484 0.18765116 -0.9813105 
0.3349062 0.14222118 -0.93145645 
0.09361605 0.11821651 -0.98856515 
0.32453197 -0.8411641 -0.43257597 
-0.75492686 0.24855924 -0.60688037 
-0.6634839 0.016433813 -0.74801004 
-0.7498013 -0.45350024 -0.4818045 
-0.5795805 0.17813563 -0.7952071 
0.44145223 -0.4253681 -0.7900518 
0.39472663 -0.13797332 -0.90838003 
0.267006 -0.085083626 -0.95993155 
-0.15929116 -0.83372563 -0.52870405 
0.30809382 -0.6852587 -0.6599234 
0.5025084 0.15094322 -0.8512941 
0.33741328 0.15932274 -0.9277761 
0.3706979 -0.37878996 -0.84799844 
-0.13007373 0.084137 -0.9879281 
-0.1177499 -0.31813732 -0.94070387 
0.67511016 -0.09507562 -0.73156476 
0.3682633 -0.011756337 -0.9296472 
-0.06595817 0.29034355 -0.9546467 
-0.63566816 -0.455948 -0.62292653 
-0.069912605 -0.19691072 -0.97792566 
0.27523062 -0.8960316 -0.3483898 
0.26712668 -0.7347544 -0.62352175 
0.16241764 -0.023625156 -0.9864393 
-0.28462157 -0.14422996 -0.947728 
-0.39392573 0.12939791 -0.90998834 
-0.3446641 0.08844541 -0.9345502 
0.08079684 0.059784226 -0.99493605 
0.054605316 -0.6495321 -0.7583709 
0.4464396 -0.49508995 -0.7453708 
-0.288246 -0.94969016 -0.1224866 
-0.719506 -0.67724085 0.15380503 
-0.65165406 -0.7572625 0.043596067 
-0.6948526 -0.71144575 -0.10499912 
-0.16839828 0.420719 -0.89142454 
-0.1065655 0.30766243 -0.9455092 
0.02164882 -0.08320805 -0.996297 
-0.42584172 0.19054201 -0.88450694 
-0.15265605 0.20057511 -0.9677116 
-0.39602596 0.40325364 -0.8249545 
-0.03230056 -0.44953582 -0.8926782 
-0.25122592 0.08562344 -0.964134 
-0.39562324 -0.4694387 -0.7893729 
0.42922747 0.5624334 -0.70670545 
0.2007578 0.033041917 -0.97908354 
0.2819349 -0.15420613 -0.94696003 
0.09468602 0.1617212 -0.9822835 
0.19573042 0.40080866 -0.8950095 
0.04704021 -0.3880051 -0.920456 
0.28757024 -0.38727617 -0.87596834 
0.45070142 -0.21878262 -0.86544925 
-0.60465527 -0.096050374 -0.7906747 
-0.27519557 -0.749898 -0.60159826 
0.58869714 -0.21477671 -0.7792989 
-0.3362235 0.01647657 -0.9416381 
-0.19993022 0.10429704 -0.9742434 
0.50817275 -0.5377987 -0.6727058 
-0.10674729 -0.36251858 -0.92584306 
0.5490766 -0.6571266 -0.5164296 
0.54518706 -0.81865555 -0.18048288 
-0.4038079 -0.41268888 -0.81647235 
0.5237958 -0.47818354 -0.704967 
0.17891023 -0.98383635 -0.0075722015 
0.03745047 -0.9758613 -0.21515632 
0.11191943 -0.6280715 -0.7700652 
-0.303031 0.06400517 -0.95082885 
-0.31982028 -0.41187432 -0.853273 
0.51748085 -0.01318648 -0.85559314 
0.28297782 -0.045419257 -0.95805043 
-0.16604392 -0.54193276 -0.8238559 
-0.72120166 -0.65425617 -0.22763373 
-0.2969709 -0.5007087 -0.8130801 
-0.45519188 0.36394984 -0.81261367 
0.30330896 0.24492458 -0.92087764 
0.15030514 0.18478726 -0.9712168 