# OOMMF: rectangular mesh v1.0
# Segment count: 1
# Begin: Segment
# Begin: Header
# Desc: Time (s) :  7.570000000000018e-07
# Title: m
# meshtype: rectangular
# meshunit: m
# xbase: 2e-09
# ybase: 2e-09
# zbase: 5e-10
# xstepsize: 4e-09
# ystepsize: 4e-09
# zstepsize: 1e-09
# xmin: 0
# ymin: 0
# zmin: 0
# xmax: 1.024e-06
# ymax: 1.024e-06
# zmax: 1e-09
# xnodes: 256
# ynodes: 256
# znodes: 1
# ValueRangeMinMag: 1e-08
# ValueRangeMaxMag: 1
# valueunit: 
# valuemultiplier: 1
# End: Header
# Begin: Data Text
0.055298507 -0.9062475 0.4191153 
-0.5944565 -0.7919753 0.13927148 
-0.8049917 -0.53768504 -0.25076544 
-0.6580438 0.25908542 -0.7070029 
0.8917197 0.17473434 0.41749716 
-0.18808171 -0.9378922 -0.29151946 
0.5237035 -0.30515265 -0.795372 
0.8470991 -0.43106246 -0.31081888 
0.64020616 -0.65621537 -0.39939648 
0.27736512 -0.10533269 -0.9549731 
0.9151977 -0.26348978 0.3049367 
0.91361475 -0.3971294 0.087158024 
-0.2630158 -0.65317446 -0.7100605 
0.17391895 -0.91784024 -0.35682148 
0.87942 -0.0070323967 -0.47599494 
0.9490218 0.1076431 -0.29626122 
0.9521296 0.30245903 0.044359464 
0.7267941 -0.16280618 -0.6672814 
0.2987134 -0.9207283 -0.25105742 
0.23593679 -0.92648506 -0.29318833 
0.06502279 0.21737862 -0.9739192 
0.031066572 -0.32607025 -0.94483495 
0.041924074 0.68154013 -0.7305789 
-0.41701683 0.39937133 -0.8164555 
0.18038161 -0.73438674 -0.6543231 
-0.17470533 -0.5601333 -0.8097709 
0.3899112 -0.303447 -0.8694189 
-0.096426055 -0.43388727 -0.89579237 
0.37300408 -0.7655271 -0.52424824 
-0.015547039 -0.5390331 -0.84214115 
-0.13585992 -0.2400581 -0.9612045 
0.37566057 -0.3212367 -0.86930215 
0.7692024 -0.13219042 -0.6251826 
0.31221643 -0.59840345 -0.7378578 
-0.5981476 -0.44683787 -0.66524833 
-0.12150343 -0.9250098 -0.35999158 
-0.1385126 -0.59480983 -0.7918432 
0.377491 -0.35885382 -0.85365367 
0.70811063 -0.6114071 -0.3532149 
0.7040252 -0.4697986 -0.5325766 
-0.8361574 -0.38606942 -0.38960412 
-0.1854037 -0.4072608 -0.8942954 
-0.34173837 -0.30303043 -0.8895997 
-0.61038536 0.79078734 -0.04566379 
0.035557527 -0.8507767 -0.5243232 
0.29790992 -0.88791984 0.35049677 
0.29439476 -0.78981483 -0.53807473 
0.58626693 -0.7698885 -0.2521167 
-0.050651643 -0.78103584 -0.62242883 
0.49634552 -0.8332559 -0.24356896 
0.41533157 -0.85514444 0.31020617 
-0.041801937 -0.97153 -0.23319973 
0.52586496 -0.8433437 -0.11062303 
0.52967393 -0.8439688 -0.08463036 
0.679109 -0.7054128 -0.20298745 
0.9257613 -0.25111678 -0.2826773 
-0.010951445 -0.12113476 -0.9925757 
0.54917324 -0.7802796 0.2992867 
0.11742351 -0.66901296 0.73391646 
0.6006292 -0.4157094 -0.68295705 
0.28458798 -0.86761254 -0.40774763 
-0.15213747 -0.961816 -0.22751778 
0.40546587 -0.62270254 -0.66920775 
-0.665915 -0.5952387 -0.44972017 
-0.53534895 -0.12258899 -0.8356874 
-0.24657074 0.17307705 -0.9535446 
-0.37648797 0.082041994 -0.9227817 
-0.22261119 -0.87225455 -0.43544963 
-0.21674226 -0.44308656 -0.8698835 
-0.26752466 -0.6675405 -0.69485277 
0.6395752 -0.37016192 -0.67373866 
0.49178126 -0.8421326 -0.22127822 
0.7922689 -0.08932344 -0.6035987 
-0.18743274 -0.9520927 -0.24163733 
-0.5146405 -0.2575973 -0.81779516 
-0.2948189 -0.8338718 -0.46662593 
-0.5362676 -0.840858 0.07331369 
-0.008677605 -0.23962845 -0.9708259 
0.47665864 -0.25935873 -0.8399581 
-0.41043198 0.39841223 -0.82025194 
-0.021184873 0.52266055 -0.8522777 
-0.2502974 -0.543139 -0.80146813 
-0.14362358 -0.72590005 -0.6726377 
-0.038948976 0.12887397 -0.99089587 
-0.12574865 0.11026743 -0.98591506 
0.5336888 -0.35314852 -0.76841563 
0.8590833 -0.4989663 -0.11405491 
0.10422248 -0.91395146 0.3922123 
-0.122978106 -0.9017083 0.41448602 
-0.53931755 -0.6412706 0.54581016 
-0.49843252 -0.8665704 0.024915513 
-0.5260166 -0.77878183 -0.3417681 
-0.49900058 -0.43934068 -0.74697936 
0.030776162 -0.99171287 -0.12473363 
0.6477587 -0.70416003 0.29080465 
0.56000656 -0.82843894 -0.009042278 
-0.31323016 -0.27859417 -0.90789443 
-0.32916442 -0.78995603 -0.5173203 
-0.3812501 -0.65069884 -0.6566883 
0.19850756 -0.95708346 0.21115397 
-0.33472422 -0.8885487 -0.31375328 
-0.04522691 -0.64003897 -0.7670102 
0.17522947 -0.67143965 -0.72004414 
0.70258504 -0.68894047 -0.17814441 
0.23592274 -0.8039112 -0.54595536 
0.16528864 -0.7671118 -0.61985415 
-0.39555374 -0.27834022 -0.8752509 
-0.30001903 -0.48647362 -0.8205681 
-0.3247392 -0.5797861 -0.74725676 
-0.027225632 -0.9965984 0.07778414 
0.37005234 -0.9000239 -0.23025751 
-0.1489109 -0.8632077 -0.4823878 
-0.31347921 -0.85037434 -0.42260408 
-0.90611255 -0.38307437 -0.17948303 
-0.2662379 -0.16956154 -0.9488763 
-0.31033158 -0.29310775 -0.9043132 
0.5560406 -0.76682377 -0.32062477 
-0.49178052 -0.8589358 0.14276297 
0.00066838035 -0.51733464 -0.85578305 
-0.48292667 -0.3906539 -0.78369087 
-0.045199193 -0.10081701 -0.9938778 
-0.0867641 -0.9706829 -0.22415753 
0.04051906 -0.92383724 -0.3806352 
0.35520774 -0.6475488 -0.6741722 
0.16068047 -0.45319498 -0.8768102 
0.59743756 -0.6906336 -0.407546 
0.55615866 -0.82623404 0.08958243 
0.07551232 -0.37530896 -0.9238187 
-0.21976428 -0.64000267 -0.73627466 
0.14037563 -0.6375709 -0.75749457 
0.6844796 -0.34461713 -0.6424382 
0.67412055 -0.37476534 -0.63648444 
0.67244947 -0.6073916 0.42295069 
0.1583223 -0.7621529 -0.62773955 
-0.22791006 -0.855642 0.4646868 
-0.6738908 -0.7087671 -0.20861542 
-0.6348448 0.05484358 -0.77069086 
-0.33876568 -0.6784042 -0.6519245 
-0.9555368 -0.20827591 -0.20873585 
-0.06311487 -0.7110134 -0.70034033 
0.17861308 -0.01718393 -0.98376936 
0.040252317 -0.8063301 -0.5900947 
0.04992877 -0.15966414 -0.985908 
0.17724277 -0.86575294 -0.4680352 
0.4245208 -0.0035585891 -0.90541124 
-0.071928605 0.023395358 -0.99713546 
0.34440002 -0.37062576 -0.86256903 
0.65258324 -0.69438726 -0.30325145 
0.90899 -0.41647512 0.016901974 
0.1998341 -0.97161144 -0.12663989 
-0.06019809 -0.2979173 -0.9526917 
-0.22241901 -0.5010864 -0.8363266 
-0.7529692 -0.19863859 -0.62735975 
-0.11754251 0.07169591 -0.99047637 
0.28701332 -0.06474431 -0.9557361 
-0.26449656 -0.76417065 -0.5882899 
-0.11826389 -0.7028839 -0.70140433 
-0.660541 -0.7492359 0.048283543 
-0.3971501 -0.81041324 -0.43069974 
0.22262618 -0.840153 -0.4945508 
-0.4148863 -0.6146757 -0.67085254 
-0.70243245 -0.7095432 -0.056009877 
-0.32558015 -0.17889355 -0.9284367 
-0.041455746 -0.7496112 -0.6605789 
-0.4915444 -0.45878795 -0.74020123 
0.5298506 -0.55776024 -0.6388755 
0.46170333 -0.33666992 -0.8206604 
0.3867091 -0.83424556 -0.3930529 
0.010960795 -0.7289848 -0.6844422 
0.28278348 -0.6019827 -0.74675995 
-0.4388732 -0.11533225 -0.8911166 
-0.08024913 -0.44982234 -0.88950557 
-0.5033399 -0.2597343 -0.82412803 
0.2556435 -0.4036996 -0.8784493 
-0.68331325 -0.04782035 -0.72855765 
-0.43072906 -0.6445943 -0.6316413 
-0.023400184 -0.99866754 0.04599478 
0.5574865 -0.81796664 0.14191408 
-0.10041788 -0.8762252 -0.47132337 
-0.28394777 -0.59896964 -0.7487383 
-0.10917756 -0.6975854 -0.7081348 
-0.196569 -0.63485426 -0.7472086 
0.1055446 0.123199664 -0.9867534 
0.67081195 -0.21687074 -0.70920974 
0.64018327 -0.7524887 -0.15468134 
0.40930834 -0.6457231 -0.64459944 
-0.011985493 -0.35002804 -0.93666255 
-0.09922336 -0.06350633 -0.9930366 
-0.49773037 -0.009680806 -0.86727774 
-0.10134083 -0.19492367 -0.97556907 
-0.25114107 -0.9377246 -0.24000154 
-0.6256818 -0.51476413 -0.586123 
-0.4479576 -0.84965515 -0.27824467 
0.1628759 -0.739185 -0.65351135 
0.14116377 -0.9037855 -0.4040355 
-0.504768 -0.48821375 -0.71193874 
0.5243441 -0.16069187 -0.8362066 
-0.36596268 -0.60330135 -0.7085894 
0.19196056 -0.22167933 -0.9560384 
0.22189225 -0.35308436 -0.90889794 
0.3668837 0.4408721 -0.8191632 
0.074324474 0.47832087 -0.8750343 
0.42060748 0.3679734 -0.8292677 
0.01250722 -0.07562756 -0.99705774 
0.36880845 0.45360455 -0.8113096 
0.64327455 0.5202914 -0.56168914 
0.6216135 -0.30496794 -0.7215201 
0.25795153 -0.33822703 -0.90502137 
0.08958209 -0.25312808 -0.96327627 
-0.22150692 -0.20157103 -0.9540984 
-0.40322036 0.017158711 -0.914942 
-0.68226415 -0.46683568 -0.56265455 
-0.53252286 0.46951896 -0.7042525 
-0.41440025 0.47472975 -0.77646893 
-0.5569901 0.147027 -0.8174015 
0.24403724 -0.37461576 -0.89448804 
0.6428048 -0.016133573 -0.7658601 
0.6447155 -0.07733069 -0.76050115 
-0.030483872 0.07773347 -0.99650806 
-0.41192493 -0.6682243 -0.6195113 
-0.049246002 -0.042730916 -0.9978722 
0.0018910975 -0.51897556 -0.8547871 
-0.3758992 0.28228456 -0.88261837 
0.24836466 -0.85166746 -0.4614948 
0.352275 -0.58565336 -0.7300086 
0.9152417 -0.33489007 -0.22401215 
0.322842 -0.81332105 -0.4840267 
-0.086802 -0.4524492 -0.88755584 
-0.022694917 -0.15399593 -0.98781085 
0.17071371 0.45911264 -0.8718214 
-0.06456589 -0.88822573 -0.4548477 
-0.14241192 -0.7958045 -0.5885695 
0.069317766 -0.47297958 -0.87834245 
-0.052612357 -0.90162456 -0.42930782 
-0.25714204 -0.100400776 -0.96114403 
-0.48272517 0.4378399 -0.7584673 
-0.1320828 -0.65040284 -0.74801755 
0.107380986 -0.61813885 -0.7787 
0.23374584 -0.89994526 -0.36805078 
0.20722672 -0.962059 0.1774812 
0.5786155 -0.16912061 -0.79787374 
0.01966674 -0.39497137 -0.918483 
0.435266 -0.6675807 -0.6040527 
-0.51523834 -0.8106198 -0.27825373 
-0.16533081 -0.73389065 -0.6588401 
-0.26838085 -0.78131604 -0.5634866 
0.5270476 -0.12791364 -0.84015423 
0.053261105 0.16849168 -0.98426306 
-0.10354545 -0.28055766 -0.9542358 
0.019258644 0.5608565 -0.82768905 
-0.42560157 -0.02776412 -0.9044847 
0.48173183 -0.43835974 -0.75879854 
0.8408338 0.540273 0.033222497 
0.9432288 -0.041045625 -0.32959786 
0.9760217 -0.12599538 0.17750159 
0.9131826 -0.3066738 0.2684189 
-0.56661886 -0.77782047 -0.27191633 
-0.59069365 -0.66594476 -0.45562991 
-0.7709626 -0.017844066 -0.6366306 
-0.2138403 -0.018751657 -0.9766886 
0.024479248 -0.052273512 -0.99833274 
0.08318768 -0.18556616 -0.9791042 
-0.09447213 -0.37378436 -0.92269194 
0.3699659 -0.7776616 -0.508299 
0.23857464 -0.14230253 -0.96064156 
0.37034672 -0.05886014 -0.9270269 
0.63538784 0.15814076 -0.75582665 
0.5945338 -0.062763855 -0.80161726 
0.504081 -0.37281257 -0.7790463 
0.94840014 -0.31559053 -0.030657744 
0.91509914 -0.19869438 -0.35087633 
0.4154592 -0.2043381 -0.88636327 
0.6072487 -0.7720204 -0.18770576 
0.34086698 -0.84818405 -0.4054548 
0.47478223 -0.6737902 -0.56620544 
-0.013314088 -0.73804665 -0.6746184 
0.22745794 -0.35675988 -0.9060824 
-0.25029698 -0.46600312 -0.84864163 
-0.22899278 0.42573324 -0.8753934 
0.21048877 -0.43281436 -0.876565 
-0.53224397 -0.30881083 -0.78825897 
-0.059059028 0.18061048 -0.98178005 
0.11622605 0.17022066 -0.9785278 
0.44324094 -0.18911593 -0.8762264 
0.3702541 0.2646671 -0.8904287 
-0.15131077 0.3101964 -0.93855387 
-0.6734428 -0.3807566 -0.63363975 
-0.14051239 0.103830874 -0.9846195 
0.8170988 0.18733306 -0.54521185 
-0.4042566 0.017801262 -0.91447246 
-0.80002564 0.06287647 -0.59666216 
-0.46408743 0.25515404 -0.8482449 
-0.17926161 -0.19861694 -0.96354383 
0.47397384 -0.79024893 -0.38840124 
-0.7086893 -0.504622 -0.49306807 
-0.63164836 0.008004517 -0.77521384 
-0.52700853 -0.06509786 -0.84736323 
0.19583084 0.05686443 -0.97898763 
0.09309613 0.058364823 -0.993945 
-0.6085266 0.040397294 -0.7925046 
-0.38995877 0.25743723 -0.88411444 
0.57197994 -0.12397106 -0.8108454 
-0.0031886362 -0.440848 -0.8975761 
-0.13399577 -0.43988183 -0.8880029 
-0.16208328 -0.23277347 -0.95892936 
-0.024461713 -0.72254264 -0.69089353 
-0.013719545 -0.9381703 -0.34590217 
0.42510095 -0.89406514 -0.14119785 
0.67441046 -0.5180365 -0.5261262 
0.26898587 -0.6299613 -0.72855705 
0.12879853 -0.5935971 -0.7943887 
0.14541961 -0.4878609 -0.8607235 
0.26150027 -0.41733006 -0.870318 
0.23269288 -0.69997895 -0.67519146 
0.19648592 -0.71460414 -0.67136747 
0.76892906 -0.27032727 -0.57937145 
0.5990649 -0.63314533 -0.49015138 
-0.18783796 -0.7642077 -0.61701185 
0.20227292 0.010035367 -0.9792778 
-0.15046151 -0.7369186 -0.65902376 
-0.43977165 -0.86364585 -0.24640782 
-0.11125124 0.012470985 -0.9937141 
0.013676131 -0.5728156 -0.81957024 
-0.451572 -0.23996839 -0.85935897 
-0.24540691 0.7045359 -0.66588634 
-0.43320146 -0.49281013 -0.75463545 
-0.37755007 -0.60999995 -0.69667506 
0.1303348 -0.4541503 -0.8813401 
0.6365271 -0.2486961 -0.73005724 
0.26515558 -0.5489884 -0.7926565 
-0.4754424 0.10240211 -0.87376684 
-0.35883996 -0.5548589 -0.75057673 
0.26993594 -0.78047425 -0.5639101 
0.19881067 -0.15316018 -0.96799606 
0.65807104 -0.45031032 -0.60345936 
-0.23993084 -0.54708344 -0.8019558 
-0.20003094 0.7469311 -0.6340992 
-0.39083287 0.6514825 -0.6502464 
-0.09599502 -0.21818733 -0.9711742 
-0.26491445 -0.45364827 -0.8508958 
0.085487835 -0.21970288 -0.97181404 
-0.01902313 -0.23987405 -0.9706177 
0.6455483 -0.6321647 -0.42852676 
0.12733594 -0.97955847 -0.1557272 
-0.64548033 -0.71494585 -0.26871473 
-0.4360439 -0.8963739 -0.07987236 
-0.42954952 -0.58199877 -0.6904814 
-0.09562875 -0.90794826 -0.40802592 
-0.370225 -0.82326007 -0.4303213 
0.28679177 -0.872418 -0.39577448 
-0.11971823 -0.9926439 -0.018050544 
-0.21608374 -0.651182 -0.72750944 
-0.33626834 -0.6774574 -0.6541981 
0.3821023 -0.4941762 -0.780889 
-0.17717935 -0.80907696 -0.5603588 
-0.09186079 -0.47198945 -0.87680537 
-0.9050771 -0.3463063 -0.24679421 
-0.8818044 -0.34194803 -0.32479632 
0.06682887 -0.84826154 -0.5253439 
0.5222371 -0.70138806 -0.48510116 
0.4354382 -0.78077155 -0.44809523 
0.23634331 -0.37166747 -0.897778 
0.050703116 -0.14438109 -0.98822236 
0.007283684 -0.72895014 -0.68452805 
-0.66698337 -0.7380196 -0.10227607 
-0.24270004 -0.9674773 -0.07130585 
0.13036448 -0.96061623 -0.24540067 
-0.65753037 -0.73870516 -0.1482184 
-0.6123518 -0.5352498 -0.5818359 
-0.6891322 -0.7104805 -0.14252856 
-0.6835109 -0.50486344 -0.52718675 
-0.79862034 0.25394508 -0.5456349 
-0.057352312 -0.35560086 -0.9328767 
0.122299604 -0.6729351 -0.72952116 
-0.24172166 -0.9588061 -0.14920285 
-0.737688 -0.2954336 -0.6070713 
-0.540449 -0.26866752 -0.7973284 
-0.40043378 -0.067900434 -0.9138065 
0.021992479 -0.69238067 -0.7211972 
0.25814155 -0.5256212 -0.81060797 
0.17424904 -0.05813337 -0.9829842 
0.52288353 -0.6163623 -0.5888042 
-0.41146302 -0.70192695 -0.5813749 
-0.22507039 -0.4354862 -0.8716049 
-0.34785733 -0.12280188 -0.92947036 
-0.2595305 -0.05438446 -0.9642024 
0.47516304 -0.85662967 -0.20101193 
0.95357186 -0.121958956 -0.27536675 
0.78771657 -0.59278595 0.16765276 
0.31925815 -0.94764024 -0.0072385743 
0.8943065 -0.40090495 -0.19872427 
-0.35257578 -0.9199565 -0.17137751 
-0.2682217 -0.9619386 -0.052261863 
-0.28883287 -0.87772405 -0.3823301 
-0.24501507 -0.7931419 0.5575785 
-0.2853061 -0.41852757 -0.86222684 
-0.35951093 -0.36097842 -0.86049205 
0.5469129 -0.40684697 -0.73168427 
0.27713388 -0.9348411 -0.22196615 
0.43193504 -0.73545885 -0.5220464 
0.65244853 0.36683336 -0.6631322 
0.28576592 0.5909129 -0.7544268 
0.54138213 0.21067671 -0.8139538 
0.742173 0.059155267 -0.66759264 
0.9317629 -0.23042218 -0.28057745 
-0.32983124 -0.74263775 -0.58283836 
0.61488473 -0.07174408 -0.78534675 
0.30949372 -0.35860804 -0.8806895 
0.021427112 -0.5774619 -0.8161365 
0.12426602 0.045534007 -0.99120367 
0.59913325 -0.03751946 -0.79976976 
0.51806986 -0.5326368 -0.6692546 
0.8634424 -0.46937698 -0.18480389 
0.12023312 -0.98132336 0.1501622 
0.57784903 -0.8096593 -0.102676615 
-0.33802655 -0.6568254 -0.6740315 
-0.7653753 -0.40801096 -0.4977225 
-0.34405392 -0.7106673 -0.6136603 
0.32087007 -0.8894244 -0.32552525 
0.14110163 -0.7475412 -0.6490552 
0.3529244 -0.7862587 -0.50719017 
0.27670813 -0.55648124 -0.78342915 
0.20376535 -0.5339491 -0.82059616 
0.13663068 -0.8217618 -0.55320865 
-0.07633381 -0.9848215 -0.1558842 
0.745642 -0.07779297 -0.6617902 
-0.5138472 -0.3195979 -0.7961271 
-0.35553926 -0.5529117 -0.75357854 
-0.46015653 -0.29986706 -0.83566487 
-0.44787863 -0.70231223 -0.5533193 
-0.09264269 -0.27508125 -0.95694715 
-0.33207604 -0.3594593 -0.8720749 
0.04429095 -0.16922416 -0.9845819 
0.55816793 -0.63685304 -0.53185236 
0.23003513 -0.49241057 -0.83941394 
0.121277235 -0.43729433 -0.89110357 
-0.47997662 -0.30636346 -0.8220486 
0.2170588 -0.9482147 -0.23189338 
0.29023838 -0.94681585 -0.13892995 
0.13024324 -0.9871845 -0.09221473 
0.5716652 -0.33414468 -0.7493639 
-0.07210604 -0.5766896 -0.8137752 
0.0030641875 -0.61537033 -0.78823227 
0.10929502 -0.3109734 -0.94411343 
-0.15858817 -0.7060825 -0.69014305 
-0.2072077 0.32013544 -0.924434 
-0.36917436 -0.66534597 -0.64886445 
-0.6614166 -0.44889173 -0.600853 
-0.3090756 -0.4674994 -0.8282009 
0.19256908 -0.15057622 -0.96966183 
0.6638854 -0.7253673 -0.18193004 
0.09965691 0.029269986 -0.9945913 
-0.023214959 -0.08397633 -0.9961973 
0.09513506 0.1917762 -0.9768169 
0.28869233 -0.57124823 -0.76833075 
0.62989753 -0.7140289 -0.30560094 
0.88830817 0.39414456 -0.23570916 
0.3595603 0.089329354 -0.92883617 
0.6282712 -0.220435 -0.74611247 
-0.048269525 0.3719664 -0.9269904 
0.19584486 -0.025555346 -0.9803019 
0.65335923 -0.3274307 -0.68257666 
-0.031464458 -0.14163026 -0.98941946 
0.37762788 -0.41749686 -0.8264947 
-0.006763215 0.12202829 -0.99250364 
-0.52829844 0.09828316 -0.8433512 
0.03285237 0.31797892 -0.94752854 
-0.24889907 -0.049809754 -0.9672478 
-0.014645379 0.20186484 -0.97930396 
-0.28840095 0.9302412 -0.22688378 
-0.55295753 -0.04342248 -0.83207726 
0.5856242 -0.45592245 -0.6702083 
0.5354045 0.3398371 -0.77320945 
0.2647306 0.8085678 -0.52548635 
-0.3689159 0.16579466 -0.9145563 
0.35176444 -0.10912886 -0.9297058 
0.3580349 -0.19301142 -0.9135413 
0.18609348 -0.9230334 -0.3367176 
0.0065392368 0.018018441 -0.9998163 
0.6109587 -0.38116384 -0.69386137 
0.5941066 -0.6933719 -0.4077657 
0.31966218 -0.870582 -0.3740363 
0.1873505 -0.35038897 -0.917675 
0.47521117 -0.63896006 -0.60490036 
-0.4780869 -0.2709264 -0.8354831 
-0.27151588 -0.022383647 -0.96217364 
-0.24041021 -0.700114 -0.67234176 
0.26256463 -0.7438879 -0.6145655 
0.24156305 -0.9252213 -0.29259673 
0.39648294 -0.2199362 -0.8913077 
-0.45578 -0.54734105 -0.7019134 
-0.3438163 0.42199 -0.83887714 
-0.21161425 0.05336209 -0.9758955 
0.40112913 -0.30892292 -0.8623584 
0.60955507 -0.276745 -0.7428694 
0.5410335 -0.8238633 -0.16891447 
0.1370589 -0.34358522 -0.92906624 
-0.23954503 0.46242914 -0.85368466 
0.117029265 -0.50229156 -0.8567424 
-0.26158312 -0.33982643 -0.9033783 
-0.6523155 -0.62196934 -0.43317273 
-0.53634995 -0.16950254 -0.8267997 
-0.5128205 -0.27683273 -0.8126369 
-0.22451085 0.2852293 -0.9317936 
0.13786733 -0.28742075 -0.9478302 
0.6626101 -0.5839098 -0.46903864 
-0.27254936 -0.19974819 -0.9411788 
0.6167139 0.35860723 -0.70076025 
0.72625834 0.64604837 -0.23488376 
0.91561043 0.032477625 -0.40075284 
0.61742735 -0.7811384 0.09277048 
0.5937209 -0.8005934 0.08090649 
-0.91614753 0.31071132 -0.25324327 
0.18756253 0.25226116 -0.94930744 
-0.17541173 -0.27726448 -0.9446456 
-0.51621306 -0.2419336 -0.82157916 
-0.032884356 -0.2412687 -0.96990114 
-0.3600603 -0.20086937 -0.9110479 
-0.44528338 0.20734932 -0.8710506 
0.06020807 -0.38993618 -0.9188716 
0.018014442 -0.21266125 -0.9769599 
-0.0903555 -0.21648453 -0.97209585 
0.15344349 -0.2629866 -0.9525195 
0.14303388 -0.2502437 -0.9575591 
0.097469464 -0.33874676 -0.93581533 
0.13834257 -0.21256123 -0.96730506 
0.43423626 -0.7369473 -0.5180228 
0.3797853 -0.19299337 -0.90471923 
0.4459471 -0.37224105 -0.8139827 
0.010192203 -0.118975714 -0.9928449 
0.37258118 0.039711315 -0.92714953 
0.027222678 0.0908968 -0.99548817 
-0.6886679 -0.08053759 -0.72059023 
-0.35989708 -0.44743642 -0.81870306 
0.08110201 0.1997865 -0.97647727 
0.34043154 -0.24462767 -0.9078897 
0.398836 -0.4581156 -0.79439276 
0.08563946 -0.46596742 -0.8806477 
0.19932488 0.3986586 -0.89517653 
0.20957685 -0.01647545 -0.9776534 
-0.06371068 0.749468 -0.6589679 
0.2895946 0.26378036 -0.9200842 
0.07790381 0.12409241 -0.98920786 
0.21984266 0.06666615 -0.9732548 
-0.10445757 -0.21781787 -0.9703834 
-0.04174899 0.5894646 -0.8067147 
-0.10890469 0.47551563 -0.8729403 
-0.5164 0.45806837 -0.7235361 
-0.16010195 -0.15169968 -0.97537416 
-0.07251178 -0.101637535 -0.9921754 
-0.50954384 -0.20183426 -0.8364378 
-0.71915513 0.27423763 -0.63844323 
0.01614059 0.13426627 -0.99081385 
-0.17090942 -0.015249883 -0.9851687 
-0.25135848 0.41481552 -0.8744982 
-0.6180141 0.232613 -0.75096595 
-0.2415449 0.7092476 -0.66228694 
-0.575519 0.118123785 -0.80921245 
-0.49052316 -0.5560234 -0.6709881 
-0.231231 -0.25085336 -0.9400026 
0.0036045893 -0.4172253 -0.908796 
0.08028182 -0.9227453 -0.37695646 
0.3949183 -0.7517316 -0.5281471 
0.37902537 -0.89947295 -0.21745852 
0.05994393 -0.5217612 -0.850983 
-0.07701741 0.08050016 -0.9937747 
0.0016917267 -0.27136832 -0.9624741 
0.45139107 -0.60528576 -0.65564877 
0.7484622 -0.3141615 -0.58404356 
0.37595034 -0.32016748 -0.86957127 
0.45779333 -0.3437924 -0.8198976 
0.10235359 -0.48990428 -0.8657468 
0.000437597 -0.7115866 -0.7025983 
0.09521388 -0.80327827 -0.58794415 
0.13621087 -0.80084777 -0.58317196 
-0.124929644 -0.406873 -0.9049017 
-0.4426631 -0.24868153 -0.8615144 
-0.59365237 0.26478872 -0.7599104 
-0.31644848 -0.1140669 -0.94172674 
-0.29665986 -0.34451762 -0.8906742 
-0.5254702 -0.08946862 -0.8460948 
-0.72061723 -0.31920642 -0.6154821 
-0.76766616 -0.06997869 -0.63701785 
-0.59656864 -0.30536452 -0.74219835 
-0.30426893 0.016438302 -0.95244443 
-0.44472843 -0.16576825 -0.88019174 
-0.2214251 -0.3639121 -0.90473145 
0.07411465 -0.1125889 -0.99087375 
0.32364118 -0.6314026 -0.7046894 
0.19077349 -0.4833941 -0.8543628 
0.36110267 -0.30227387 -0.8821765 
0.011605622 -0.088996135 -0.99596435 
-0.26257828 0.5505595 -0.7924246 
-0.677681 0.5040382 -0.53543806 
0.33937508 0.58323026 -0.73801565 
-0.3554383 -0.19265123 -0.9146307 
-0.09267095 -0.06573876 -0.9935243 
0.031567924 -0.8179578 -0.5744115 
0.40451887 -0.8774164 -0.25788596 
0.020842452 -0.9560174 -0.29256865 
0.3530331 -0.8825417 -0.310625 
-0.35521665 -0.9339381 0.039758243 
-0.6061674 -0.6810347 -0.41079554 
-0.123332046 -0.6152803 -0.7786009 
0.29388008 -0.5368109 -0.7908657 
0.564635 -0.79736966 0.21304701 
-0.26586205 -0.91485333 0.3039093 
0.16763896 -0.78967613 -0.59017694 
-0.2755851 -0.6375296 -0.7194504 
0.60313267 -0.07038741 -0.7945292 
0.22335231 -0.5935042 -0.7732183 
0.26179796 -0.31223184 -0.9132213 
-0.32228172 -0.5898353 -0.7404248 
-0.09930851 -0.52595246 -0.8446963 
-0.3361765 -0.73993003 -0.5826568 
-0.4373824 -0.74251354 -0.50731677 
-0.39994717 -0.36917165 -0.8389009 
-0.4642705 -0.05168518 -0.88418406 
-0.08703254 -0.25894025 -0.96196425 
-0.047354624 -0.23973958 -0.9696816 
-0.42399833 -0.7909453 -0.44116992 
-0.25359586 -0.49381316 -0.8317678 
0.051390767 -0.7246196 -0.6872303 
0.2358132 -0.7433851 -0.62591606 
-0.3611473 -0.92399126 -0.12574928 
-0.35767022 -0.91435516 -0.18980683 
-0.671073 -0.70082843 -0.24186894 
-0.64894015 -0.27890718 -0.70787543 
-0.30091432 0.21549273 -0.9289852 
0.07990853 -0.4974001 -0.8638332 
0.092713065 -0.77433175 -0.62595105 
-0.25458357 -0.24491818 -0.9355225 
-0.32668605 -0.56372905 -0.7586078 
0.3032294 -0.4038173 -0.86312443 
0.10207325 -0.7866736 -0.6088726 
0.09095563 -0.22069688 -0.9710922 
0.7592368 0.04239266 -0.6494323 
-0.039406244 -0.8193075 -0.5719986 
-0.42517787 -0.72392964 -0.5432768 
0.08000681 -0.14667693 -0.9859437 
-0.07148702 0.13056646 -0.988859 
-0.0012089529 -0.3771748 -0.9261413 
0.41907138 -0.7574119 -0.50070596 
0.41051337 -0.5355866 -0.73798764 
0.5597886 -0.42463884 -0.71156067 
0.43659005 -0.7567158 -0.48659056 
0.403377 -0.8936271 -0.19676839 
-0.0383735 -0.9095893 -0.41373298 
-0.38857415 -0.71589214 -0.5800936 
-0.19019121 -0.42370006 -0.8856103 
0.2843436 -0.4658511 -0.83793294 
-0.6343186 -0.037492406 -0.7721621 
-0.7855375 -0.61869884 0.011938289 
-0.69420666 -0.69643915 -0.18179585 
-0.8301421 -0.5243692 -0.18947591 
-0.3988281 -0.2787901 -0.8736202 
0.087822914 -0.18970896 -0.97790474 
0.26071316 0.5155576 -0.81622857 
0.8196429 0.34411412 -0.4580079 
0.45935762 0.42488143 -0.78004247 
0.71894616 -0.1658352 -0.6749927 
0.4689837 -0.74702555 -0.47117636 
0.44348097 -0.37192008 -0.8154754 
0.73954946 -0.28099623 -0.61164355 
-0.18154725 -0.5771526 -0.79620063 
-0.6003924 -0.19283833 -0.7761073 
0.5303262 0.6584112 -0.53408706 
0.16978166 0.3348024 -0.9268666 
0.79824084 0.017629502 -0.6020803 
0.52641946 -0.8501713 -0.009559577 
-0.032735504 -0.9445611 -0.3267 
0.048179958 -0.23954087 -0.96969014 
0.24120227 -0.17134653 -0.9552287 
-0.12178006 -0.74911046 -0.6511553 
0.009137817 -0.74956477 -0.66186804 
-0.3171317 -0.32584608 -0.89064693 
0.22577782 0.351888 -0.9084048 
0.7152227 0.14970174 -0.6826756 
0.538978 -0.55194443 -0.6362862 
0.4011278 -0.83184505 -0.38357577 
0.16731131 -0.8842966 -0.43592036 
-0.46522862 -0.67060167 -0.57780266 
-0.105044335 -0.6464027 -0.7557309 
-0.6246409 -0.35563147 -0.6952338 
-0.31304598 -0.5640339 -0.76411253 
-0.18782155 -0.5493251 -0.8142267 
0.010149406 -0.5349409 -0.84482867 
-0.10337379 -0.4587351 -0.8825396 
-0.041066438 -0.31688973 -0.94757295 
0.65978813 -0.52325207 -0.53933936 
0.4249649 -0.31975496 -0.84685403 
0.13691851 -0.8240968 -0.54965264 
0.06714238 -0.690171 -0.7205247 
-0.580064 -0.44610935 -0.6815514 
-0.062494926 -0.8146505 -0.5765752 
0.33410874 -0.6951786 -0.6364731 
-0.1382084 -0.69068736 -0.7098236 
0.098363616 -0.43668115 -0.8942227 
0.3861522 -0.43028846 -0.815928 
0.5627851 -0.38629144 -0.7307885 
-0.26622835 -0.09083098 -0.9596209 
-0.21687028 0.42404702 -0.8792903 
-0.4553783 0.027346054 -0.889878 
-0.63318604 -0.095720045 -0.7680581 
0.12900566 0.4292119 -0.8939434 
0.2768401 -0.39899462 -0.87416416 
-0.13983652 -0.29512197 -0.9451713 
-0.33936676 -0.27747944 -0.89879674 
-0.122273974 -0.11017507 -0.9863623 
-0.16635995 0.22385843 -0.96031857 
0.0338748 -0.5145278 -0.85680443 
0.11821705 -0.9592861 -0.25650534 
0.34068272 0.19857097 -0.9189696 
0.32734317 0.06984243 -0.9423208 
0.73210496 0.17361544 -0.65869576 
-0.52675545 -0.1692852 -0.8329894 
-0.06900574 0.16504538 -0.9838691 
0.29506782 -0.6424113 -0.70727843 
-0.07012623 0.15880744 -0.9848161 
0.25602892 -0.20631684 -0.94439536 
0.15586652 -0.41619575 -0.8958162 
-0.31086037 -0.20393912 -0.92831826 
0.1384478 -0.78573054 -0.6028763 
0.28789082 -0.54826206 -0.78519267 
-0.08372761 -0.7003148 -0.7089069 
-0.60965526 0.19103709 -0.76930183 
-0.3937749 0.52624905 -0.75366 
-0.26530975 -0.11348684 -0.957461 
0.27763033 0.49341276 -0.8242969 
0.55209124 0.12430414 -0.82446575 
-0.55756766 -0.23768486 -0.79537684 
-0.0054421523 -0.40845662 -0.9127616 
0.7631307 0.56717855 -0.30974188 
0.8373511 -0.3928909 -0.38010517 
0.5630212 -0.26337335 -0.78335285 
-0.0012648078 -0.27316672 -0.9619659 
-0.056954157 -0.06401674 -0.99632233 
0.39439306 -0.87339133 -0.28573 
0.14027512 -0.23031214 -0.96295345 
0.09423706 -0.42691708 -0.89936715 
0.1327346 -0.27627498 -0.9518685 
-0.34755695 0.21310584 -0.91312104 
-0.057416007 -0.674507 -0.7360325 
0.042507336 -0.986775 -0.15642354 
-0.35672608 -0.92663646 0.11870761 
-0.5509689 -0.113634415 -0.826753 
-0.32698682 -0.0011716993 -0.9450282 
-0.02810721 -0.11105286 -0.99341697 
0.22488001 -0.19657004 -0.95435274 
-0.24934359 -0.47476855 -0.84405136 
0.28657174 -0.3436409 -0.8943085 
-0.1332323 -0.83873534 -0.5279888 
-0.39161524 0.027237564 -0.91972595 
-0.7206464 0.28439033 -0.63229036 
0.18900011 0.4099161 -0.89232713 
-0.29563907 0.31400007 -0.9022204 
-0.6408022 -0.33653152 -0.6900138 
-0.42743656 -0.07405643 -0.90100706 
-0.03762388 0.12521915 -0.9914155 
-0.1384237 0.0967564 -0.9856354 
0.025140792 -0.37583008 -0.92634755 
0.15763108 -0.47472128 -0.86590546 
0.10992158 -0.25093585 -0.96174246 
0.32913828 -0.7037008 -0.6296612 
0.9530379 -0.28489396 -0.10273407 
0.4943095 0.6733765 -0.5497474 
0.65267056 -0.13091683 -0.7462453 
0.5556338 -0.66352767 -0.5010011 
-0.4858603 -0.05275929 -0.87244266 
-0.21482953 0.2130169 -0.95313805 
-0.3256992 0.29207346 -0.8992292 
-0.5349846 -0.10958439 -0.8377248 
-0.6110098 -0.16744274 -0.7737119 
-0.47266704 -0.48028472 -0.738859 
-0.09604157 0.028393127 -0.9949723 
0.31524852 -0.27577794 -0.90805566 
-0.15464622 0.0058928235 -0.98795235 
-0.102590874 0.03602867 -0.99407095 
0.2922121 -0.21646492 -0.9315337 
0.58511794 0.13720618 -0.79925686 
0.66986215 0.30354378 -0.67760307 
0.8116316 -0.4252838 -0.40048447 
0.5750538 -0.05522262 -0.81624967 
0.855196 0.28738698 -0.43133363 
0.40092078 0.14552787 -0.90448004 
-0.14879398 0.22140351 -0.96376395 
0.5833829 -0.006822217 -0.81216866 
-0.34404942 -0.032082066 -0.93840337 
-0.18180597 0.5061851 -0.8430441 
-0.47105443 0.2693881 -0.839963 
-0.4512551 0.26070887 -0.8534635 
0.11840274 -0.16024847 -0.97994965 
-0.52582335 -0.30199748 -0.79517764 
-0.11845127 -0.17630096 -0.97718334 
0.020167775 -0.37277448 -0.9277028 
0.1495423 0.34375885 -0.9270745 
0.2422569 0.1928312 -0.9508564 
0.3046307 0.24882956 -0.91939336 
-0.11339329 -0.006911532 -0.99352616 
-0.05497298 0.09225068 -0.99421716 
-0.011319103 0.0045300135 -0.99992573 
-0.6163013 0.055131894 -0.78557825 
-0.363595 0.33274877 -0.87010175 
-0.82213074 -0.22848012 -0.5214383 
0.2673583 -0.48419464 -0.8331117 
-0.07697064 -0.18468651 -0.9797788 
0.32762605 0.3891782 -0.86093074 
-0.4559446 0.5019349 -0.7349666 
-0.49781683 0.43999133 -0.74738616 
-0.62615114 0.39559215 -0.67189413 
-0.45952782 0.38901636 -0.79843634 
-0.9024811 -0.16140854 -0.39934346 
-0.76224273 -0.118233435 -0.63640153 
-0.4328315 0.45520613 -0.77810293 
-0.6578148 0.15050963 -0.73798823 
0.023072468 0.8710219 -0.49070206 
0.019027246 -0.46721745 -0.8839377 
-0.46340853 -0.37228054 -0.8041516 
-0.5942936 -0.22898138 -0.7709622 
-0.15985672 -0.55921435 -0.81346494 
-0.39709443 -0.9051624 0.15164857 
-0.34277427 -0.41442385 -0.843065 
-0.4783206 0.08365187 -0.87419206 
0.05808046 0.20256269 -0.97754544 
0.08049994 -0.36429733 -0.9277971 
-0.3039206 -0.0827628 -0.94909567 
0.10927325 -0.23515518 -0.9657958 
-0.29019624 -0.32650435 -0.89954495 
-0.16695417 -0.42938858 -0.8875539 
0.26577657 -0.29728898 -0.91705084 
-0.049510684 -0.490333 -0.87012774 
-0.7296912 -0.14061745 -0.6691618 
-0.40786833 0.3504619 -0.8431014 
-0.89730763 0.35212067 -0.2661769 
-0.5380928 -0.27724501 -0.7959846 
-0.4339416 -0.054127067 -0.8993136 