# OOMMF: rectangular mesh v1.0
# Segment count: 1
# Begin: Segment
# Begin: Header
# Desc: Time (s) :  7.810000000000019e-07
# Title: m
# meshtype: rectangular
# meshunit: m
# xbase: 2e-09
# ybase: 2e-09
# zbase: 5e-10
# xstepsize: 4e-09
# ystepsize: 4e-09
# zstepsize: 1e-09
# xmin: 0
# ymin: 0
# zmin: 0
# xmax: 1.024e-06
# ymax: 1.024e-06
# zmax: 1e-09
# xnodes: 256
# ynodes: 256
# znodes: 1
# ValueRangeMinMag: 1e-08
# ValueRangeMaxMag: 1
# valueunit: 
# valuemultiplier: 1
# End: Header
# Begin: Data Text
-0.57819897 -0.3294155 -0.74643916 
-0.6310503 -0.3780548 -0.67738485 
-0.7391506 -0.6149963 -0.27465618 
-0.44619277 -0.5539429 -0.7028935 
-0.66101295 0.2033498 -0.7222956 
-0.039561734 -0.23737183 -0.97061294 
-0.1924125 -0.6636724 -0.72285306 
-0.06857774 0.18749267 -0.97986925 
-0.12730789 -0.20750484 -0.9699147 
-0.1399233 -0.39467755 -0.9081031 
0.06487665 0.31672475 -0.94629616 
-0.05059132 0.016438846 -0.9985842 
-0.0391093 -0.063306384 -0.9972276 
0.20981511 0.053854078 -0.9762568 
-0.1759104 -0.45169112 -0.8746603 
-0.5373122 -0.7863839 -0.30478865 
-0.6344022 -0.6884838 -0.3514599 
-0.40528494 -0.73981553 0.5370448 
-0.3735471 -0.68434924 -0.6262018 
0.14028941 -0.29691666 -0.94454193 
-0.056740668 -0.36179334 -0.93053 
-0.3238783 -0.35527113 -0.8768611 
0.71378666 -0.6578487 -0.24029931 
0.01952769 -0.94011724 -0.3402914 
0.12913081 -0.985712 0.10815294 
-0.25098222 -0.8574676 0.44917414 
-0.5395409 -0.81119144 -0.22553046 
-0.77339906 -0.1274182 0.62098205 
-0.6790106 -0.56152415 0.47290087 
-0.10252444 -0.73567903 0.6695261 
-0.01716026 -0.36855957 0.9294458 
-0.23804832 -0.9709372 0.024778336 
0.20398399 -0.9214431 0.33065554 
-0.48803562 -0.84640044 0.21313715 
-0.31901824 -0.94728607 -0.02960428 
0.08443289 -0.5487456 -0.83171475 
-0.15287344 -0.9650179 -0.21300256 
-0.5966207 -0.5457411 -0.58839655 
-0.7709107 -0.564024 -0.29592863 
-0.50334543 -0.8409852 -0.1984622 
-0.55141455 -0.3356244 -0.76373965 
-0.3225496 -0.27294472 -0.9063459 
0.052733533 0.16249734 -0.9852989 
-0.021849364 0.514106 -0.85744846 
0.36076742 0.8922513 -0.271541 
0.5816961 0.42974222 -0.6906167 
0.6089549 0.30645365 -0.73161477 
0.8565717 -0.413509 -0.3086993 
0.9318196 0.029647157 -0.3617089 
0.2157497 -0.4699517 -0.8559191 
-0.08621674 -0.23297274 -0.968654 
0.493385 -0.7679628 -0.40841684 
0.62541276 -0.14077704 -0.76748997 
0.094558 -0.8932521 0.4394993 
-0.41458273 -0.6023264 0.6821468 
-0.72084194 -0.18906416 -0.6668146 
-0.35259655 -0.048752774 -0.9345046 
-0.6898252 -0.2187058 -0.69015145 
-0.2924837 -0.44413218 -0.8468766 
-0.3873866 0.057021108 -0.92015237 
0.56791425 -0.3761347 -0.7321176 
-0.2818908 -0.48402932 -0.82840407 
-0.28449416 -0.35675716 -0.8898244 
-0.43144697 -0.17096238 -0.88579094 
-0.2532365 -0.10172996 -0.96204066 
0.12935863 -0.39662355 -0.9088212 
0.39679417 0.4853363 -0.77910405 
0.46526557 0.25428215 -0.8478612 
-0.55633414 0.47162792 -0.6841487 
0.06650793 0.6795031 -0.73065203 
0.07253778 0.7711354 -0.63252556 
0.19538747 0.6357616 -0.74674696 
0.5615161 0.05413111 -0.8256934 
0.30803508 0.14185587 -0.94073975 
0.5258246 -0.42629975 -0.736055 
0.5406409 -0.69950473 -0.4673335 
0.29387134 -0.581174 -0.75886524 
-0.11306315 -0.16819286 -0.97924864 
-0.44601706 -0.004756047 -0.8950119 
-0.72809756 0.46080604 -0.50747585 
-0.5257622 -0.7848911 -0.32790232 
-0.4584081 -0.8067353 -0.37288103 
0.032485664 -0.8622519 -0.5054369 
0.07313016 -0.6945865 -0.7156827 
0.2319816 0.2084024 -0.9501332 
0.3925603 -0.44950554 -0.80239725 
-0.363578 -0.6365859 -0.68012464 
0.27344593 -0.27498597 -0.921743 
-0.06768397 -0.36540723 -0.9283838 
-0.45839083 -0.41315114 -0.7868825 
-0.37691113 -0.61619 -0.69155467 
-0.58146787 -0.79425544 -0.17621954 
-0.6332934 -0.44341195 -0.63429123 
-0.15783139 -0.64187217 -0.75039285 
0.1280316 -0.97706354 0.17016107 
-0.07647918 0.2738683 -0.95872164 
0.581168 -0.47053328 -0.66395944 
-0.03338872 -0.7172043 -0.6960627 
-0.19418228 -0.5747222 -0.7949765 
0.38233167 -0.67453384 -0.6315272 
0.153222 -0.9388913 -0.30823076 
-0.329533 -0.9267334 -0.18048123 
-0.16594028 -0.933712 -0.31724727 
0.36210218 -0.606488 -0.707852 
0.058328096 -0.6895804 -0.72185653 
-0.49457356 -0.54712087 -0.67531896 
-0.2318679 -0.74704254 -0.6230287 
0.061350487 -0.49792734 -0.865046 
0.39131844 -0.0015326504 -0.9202541 
0.118590176 -0.15941569 -0.9800628 
0.8598586 -0.31844187 -0.39904642 
0.76644003 -0.42611164 0.48062313 
0.1761558 -0.8558389 -0.48632187 
-0.1184922 -0.9853648 -0.122539185 
-0.4851537 -0.49444178 -0.7212165 
-0.4558272 -0.093979575 -0.88509285 
-0.048095454 -0.2677213 -0.9622953 
0.76382583 -0.20777763 -0.6110636 
0.24039523 -0.4919826 -0.83675754 
0.3840474 -0.40609318 -0.8292141 
0.6051874 -0.5239791 -0.5993281 
-0.090510525 -0.4665772 -0.87983733 
0.44719383 -0.66556734 -0.59752643 
0.16696969 -0.8049749 -0.56932986 
0.23620448 0.05465519 -0.97016513 
0.0051486995 0.099423595 -0.99503195 
-0.2336429 0.62896645 -0.7414933 
-0.29407412 -0.48328096 -0.82459676 
0.0511416 0.010307154 -0.9986382 
0.0015770228 -0.8161771 -0.5777996 
-0.09240777 -0.31079757 -0.94597346 
0.42666304 -0.32567438 -0.8437387 
0.39448193 0.042095616 -0.917939 
0.22320142 0.28173018 -0.9331717 
0.23009124 -0.34393004 -0.9103682 
0.5878345 -0.3590583 -0.72493297 
0.1730594 -0.89957917 -0.40100855 
0.8304211 -0.55126 0.080705166 
0.38475853 -0.82706237 -0.40979114 
-0.30376887 -0.06426685 -0.9505758 
-0.02500415 -0.040221393 -0.9988779 
-0.39568362 0.6489744 -0.64982057 
-0.24706581 -0.119108684 -0.96165055 
-0.08545872 0.06365656 -0.9943062 
0.36901385 -0.06853569 -0.92689353 
0.6858382 -0.20259266 -0.69898653 
-0.25079107 -0.4075335 -0.8780776 
-0.6364386 -0.41053236 -0.65300006 
-0.7108437 -0.5478667 -0.44107068 
-0.26744595 -0.8137632 -0.5160058 
-0.49713767 -0.81992966 -0.2838479 
-0.6865459 -0.70294666 -0.18579754 
-0.39418235 0.109526984 -0.91248244 
-0.4605068 -0.19355865 -0.866296 
-0.5997834 -0.03368723 -0.7994531 
0.15796793 -0.80755615 -0.56824225 
-0.58050495 -0.808338 -0.09799907 
-0.22088689 -0.81565166 -0.53471625 
-0.24510373 -0.9405533 -0.23512462 
-0.3314476 -0.8460707 -0.4175008 
-0.112897985 -0.43082425 -0.895346 
0.58875996 -0.7843785 -0.19522358 
0.54873633 -0.6396275 0.5382984 
-0.28177038 -0.9028647 0.3247164 
-0.3450548 -0.933611 -0.09647632 
-0.45701918 -0.73274016 -0.5042076 
-0.5071874 -0.4431876 -0.739152 
-0.11388098 -0.36473683 -0.9241203 
-0.11846332 0.013552487 -0.992866 
-0.21030797 -0.73871416 -0.6403687 
0.19966732 -0.66659635 -0.71817994 
0.64626026 -0.5233158 -0.55541724 
0.56251913 -0.2883589 -0.77486867 
-0.15782559 -0.24639107 -0.95623356 
-0.61621076 0.09298087 -0.78207344 
-0.3123114 -0.12533677 -0.94167536 
0.24164625 0.14422198 -0.959587 
0.41474286 0.2777049 -0.86652666 
0.17693742 -0.3588526 -0.9164704 
0.83268625 -0.30397522 -0.46285295 
0.6386571 -0.17559154 -0.7491894 
0.47350335 -0.8001165 -0.36825007 
0.8262631 -0.44747558 -0.34213278 
0.046951357 -0.19752978 -0.9791719 
0.6228869 -0.5133613 -0.59031534 
0.8511506 -0.38913724 -0.35229948 
0.8343162 0.27542138 -0.47755578 
0.33922088 0.14665346 -0.9292051 
0.19864517 -0.7956987 -0.57219213 
0.09435088 -0.8698975 -0.48412415 
-0.13395502 0.32416746 -0.9364676 
-0.6232062 -0.52053976 -0.5836544 
0.17585172 -0.9158238 -0.36103043 
-0.46349823 0.029115135 -0.88561934 
0.07177557 -0.9037397 -0.42202228 
-0.45323128 -0.5512938 -0.70046884 
0.2204618 -0.27570918 -0.9356181 
-0.08067106 0.12415114 -0.9889786 
0.020489052 0.34236583 -0.9393434 
0.021186842 -0.99767804 0.064728454 
-0.25527546 -0.6246806 -0.73797613 
-0.17390195 -0.6012794 -0.7798855 
0.6791383 0.16282934 -0.71572196 
0.5789314 -0.6027302 -0.54914004 
0.27095127 -0.9621308 -0.029830245 
-0.30159804 -0.94991016 0.081911266 
-0.5689574 -0.20511635 0.79637605 
-0.99900675 -0.033275772 0.029637422 
-0.933794 0.08329538 -0.34798065 
-0.23618583 -0.5881169 -0.7735211 
-0.4866477 -0.4211007 -0.76540726 
-0.07454048 -0.040581524 -0.9963919 
-0.8075061 0.3256278 -0.4918339 
-0.48248383 -0.18515222 -0.85611224 
-0.32594886 -0.12775742 -0.93671525 
-0.9519635 -0.30181155 0.05172378 
0.1155562 -0.98266864 -0.14494567 
0.6640315 -0.23580347 -0.7095485 
0.49323514 0.47624385 -0.7279498 
0.86375034 -0.06346259 -0.499908 
0.5167285 -0.850472 -0.098433144 
-0.10426855 -0.91812795 -0.3823209 
-0.6580329 -0.7480033 -0.08650956 
0.11821987 -0.9670896 0.22530429 
0.6449304 -0.5782609 -0.4996791 
0.30203623 -0.77630824 -0.55328083 
0.25526792 -0.1734927 -0.95117754 
0.6770128 -0.010320399 -0.7358989 
0.25062925 -0.5192365 -0.8170547 
0.4848909 -0.55569327 -0.67534125 
0.83806115 0.10987363 -0.53439826 
0.9711669 0.23742478 -0.021552369 
0.7806589 -0.15638979 -0.60507345 
-0.1336235 -0.8058418 -0.57685685 
-0.07233732 -0.99734545 -0.008331195 
0.40524402 -0.7673645 -0.4969197 
0.15635377 -0.60889536 -0.77768886 
0.07417052 -0.98262143 -0.17015864 
0.6274062 -0.45861676 -0.62931085 
0.3413711 -0.47328082 -0.8120782 
-0.32450286 0.175552 -0.9294512 
0.2943523 -0.1568254 -0.942742 
0.3142765 0.10799097 -0.94316924 
-0.31271145 -0.18609142 -0.9314406 
0.059603136 -0.5876752 -0.8068986 
-0.47264713 0.67270595 -0.5692727 
-0.28822786 -0.07813868 -0.9543685 
-0.37711635 0.17540011 -0.9094054 
-0.340983 0.0605024 -0.93812054 
-0.58236206 -0.10956773 -0.80551195 
0.32113138 -0.4889689 -0.811039 
-0.15112083 -0.77110314 -0.61851627 
-0.25129652 -0.72184944 -0.64481276 
-0.2379266 -0.5815077 -0.77797157 
-0.22874714 0.54213744 -0.8085553 
0.6009812 0.52493095 -0.6027181 
-0.23168753 -0.91551864 -0.32885653 
-0.24570127 -0.95591754 -0.16078714 
-0.47340474 -0.30070946 -0.82792616 
0.0153984735 -0.14791048 -0.98888093 
0.092923045 -0.26339504 -0.96020234 
0.14098874 0.37958223 -0.91435206 
0.5535169 -0.03511776 -0.83209723 
0.39681283 -0.39204514 -0.8299639 
-0.029625757 -0.28561217 -0.95788735 
0.32019797 -0.42140403 -0.8484645 
0.14091414 -0.19962372 -0.9696874 
0.5505199 -0.6406997 -0.5351933 
0.4554435 -0.5577926 -0.69385785 
-0.46742675 -0.20136562 -0.8607929 
-0.14933869 0.028424593 -0.9883775 
-0.29677492 -0.93990946 0.16880444 
-0.38304234 -0.8865782 0.25934076 
-0.018414207 -0.93841267 -0.34502566 
0.19507086 -0.0050848415 -0.98077595 
0.29884088 0.34644288 -0.8891972 
0.033378094 -0.42078513 -0.9065461 
0.6608017 0.38452762 -0.6445772 
0.96139723 0.14754477 -0.23226303 
0.661382 -0.44568416 -0.6032739 
0.50053525 -0.16491318 -0.8498636 
0.52968675 -0.53236145 -0.66032064 
0.5084359 -0.7898155 -0.3430516 
-0.8417903 -0.30818492 -0.44318312 
-0.66527236 -0.39285198 -0.63488585 
-0.6994661 -0.6479933 -0.30141646 
-0.36166173 -0.8833345 -0.29819635 
-0.30595195 -0.9509936 -0.044773012 
-0.14678724 -0.82630974 -0.54375154 
-0.2570999 -0.8926938 -0.37013176 
-0.63470626 -0.38998753 -0.6671265 
-0.020898467 -0.531302 -0.8469247 
-0.04360626 -0.92294306 -0.3824588 
-0.81410587 -0.27841398 -0.5096247 
-0.6188237 0.12064176 -0.7762105 
-0.6470695 -0.23996814 -0.7236825 
-0.69093543 -0.2803354 -0.6663486 
-0.26278386 -0.12128583 -0.95720136 
0.19364622 0.26778156 -0.94381905 
-0.45226336 0.48290378 -0.7498412 
-0.14619242 0.06491313 -0.9871242 
0.58205295 -0.28243852 -0.762524 
0.46544218 -0.42660975 -0.77547914 
0.5042327 -0.3385003 -0.7944602 
0.39207515 -0.4453202 -0.804964 
0.336358 -0.5587885 -0.75803614 
0.5879473 -0.6506368 -0.4806139 
0.7904903 -0.4985607 -0.35575622 
0.65147084 -0.5029829 -0.56797355 
0.22021101 -0.89550394 -0.38675547 
-0.84968054 -0.06675391 0.52305543 
-0.8237476 -0.30319586 -0.4790743 
-0.32955584 0.39702109 -0.85660213 
-0.18735756 0.020308858 -0.98208183 
-0.41843283 0.008332692 -0.9082096 
-0.053629942 -0.30524254 -0.95076334 
0.06540276 -0.7221589 -0.6886284 
-0.31237918 -0.7629235 -0.56600964 
-0.24432614 -0.14300835 -0.95908993 
-0.4045293 0.6125553 -0.679067 
-0.019721555 -0.0352202 -0.99918497 
0.6011044 0.19879399 -0.77405065 
0.0386095 -0.81127536 -0.58338815 
-0.22632864 -0.7567111 -0.6133219 
-0.20941529 -0.113807105 -0.97118133 
-0.15027401 0.04801471 -0.9874778 
-0.0016914817 0.03480065 -0.9993929 
0.46200144 0.32021812 -0.827052 
0.81946045 0.109588765 -0.5625611 
0.7053591 -0.5093138 -0.49301937 
0.67589545 -0.20033862 -0.7092459 
-0.056226596 -0.14725527 -0.9874991 
-0.36492926 -0.37318096 -0.85297287 
0.0418261 0.37830988 -0.92473364 
-0.2159458 -0.32999834 -0.9189497 
0.15668058 -0.34517527 -0.9253677 
-0.36947533 -0.117593706 -0.92176986 
-0.4859842 -0.5935316 -0.6415135 
-0.21156478 -0.24010067 -0.9474133 
0.17649567 -0.099514626 -0.979258 
0.44931158 0.30246195 -0.8406164 
0.32400241 -0.13567626 -0.936277 
0.055573594 -0.739614 -0.670733 
0.31112006 -0.098854244 -0.94521546 
0.30623192 -0.35195005 -0.88450736 
-0.47653008 -0.6918126 -0.5425076 
-0.24514122 -0.4457623 -0.86093086 
-0.0767289 0.08398157 -0.9935088 
-0.60648453 -0.46656862 -0.64380926 
-0.56708866 -0.4487028 -0.69070715 
-0.2457609 -0.24736191 -0.93723726 
0.2924917 0.3713776 -0.8812078 
0.58361316 -0.1413555 -0.79963386 
-0.09137319 -0.80000407 -0.59299606 
-0.21608599 -0.61809534 -0.7558207 
0.7278752 -0.50112915 -0.46804634 
-0.18839283 -0.8377979 -0.51244783 
0.12543783 -0.60788715 -0.7840527 
0.0668926 -0.26930147 -0.96073 
0.21647766 -0.1020495 -0.97093946 
0.26477692 0.09530318 -0.9595887 
0.32193366 0.101836495 -0.9412694 
0.26990336 -0.37172756 -0.8882404 
0.6910818 0.1468978 -0.7076913 
0.8446401 0.25556052 -0.4703956 
0.8499448 0.51590997 -0.1069146 
0.6059957 -0.61527103 -0.50419325 
0.57114726 -0.37291104 -0.7312512 
-0.12889816 -0.5308205 -0.8376245 
-0.46500987 -0.64016986 -0.61151326 
-0.92599124 -0.24661744 -0.28586745 
-0.84177494 0.3841474 -0.37927008 
0.0018181355 -0.04584839 -0.99894685 
0.35504618 0.093707785 -0.9301404 
0.36945188 -0.61423165 -0.6972983 
0.57272613 -0.24572591 -0.78205085 
0.29019445 -0.17031243 -0.9416905 
0.2241275 -0.21746385 -0.9499876 
-0.20651646 -0.74302465 -0.6366045 
-0.43819368 -0.13801724 -0.88822156 
-0.1670955 -0.5880622 -0.79136723 
-0.18177457 -0.037434556 -0.9826275 
-0.06914948 0.4607966 -0.8848079 
0.24171072 0.16966045 -0.9554011 
-0.14282572 -0.3826872 -0.9127712 
0.23530942 -0.38396984 -0.89285874 
0.2074151 0.010652053 -0.9781951 
-0.23487842 0.07653528 -0.969007 
-0.0972034 0.7809789 -0.61694694 
0.32318693 0.6206987 -0.7143413 
0.10307836 -0.036011998 -0.9940211 
-0.07596133 -0.21115986 -0.97449553 
0.31067562 -0.801274 -0.51131266 
0.28415167 -0.89916784 -0.33279866 
0.5326367 -0.6625509 -0.526616 
0.15074952 -0.8385389 -0.5235716 
-0.41398025 0.20375985 -0.88718796 
0.025961323 -0.49860045 -0.86644304 
-0.3119456 -0.14698102 -0.9386621 
0.24968062 -0.12561913 -0.9601456 
0.55778354 0.023629721 -0.82965 
-0.069700025 -0.26462674 -0.9618288 
0.13416824 -0.18449269 -0.97363305 
-0.1004674 -0.9058982 -0.41140595 
-0.24778055 -0.40590018 -0.8796873 
-0.41811073 -0.5330367 -0.7355647 
-0.36617684 -0.596598 -0.7141326 
-0.4565545 -0.45403075 -0.7651236 
-0.076872416 0.39361376 -0.9160562 
-0.1743132 -0.13402495 -0.97552663 
0.10909689 0.08344834 -0.99052227 
-0.089472994 -0.43733484 -0.8948368 
-0.15668817 -0.9255525 0.34467596 
0.030912083 -0.8624304 -0.50523084 
0.055537544 -0.6208041 -0.7819961 
-0.2916275 -0.67359143 -0.67913777 
-0.49448946 -0.6191566 -0.6100209 
0.0711388 0.24499461 -0.966911 
0.26583284 -0.82229686 -0.503151 
-0.7521983 -0.6513449 -0.099737994 
-0.8768707 -0.42838767 -0.21813263 
-0.8570892 -0.23858704 -0.45659 
-0.8381306 -0.23102254 -0.49413142 
-0.26087007 -0.75494045 -0.6016742 
-0.52684253 -0.30007657 -0.79523015 
-0.4057363 -0.57349473 -0.7116754 
0.62259215 -0.5959254 -0.5072001 
0.22108987 -0.85440904 -0.4702174 
0.42324308 0.06956959 -0.90334135 
0.010246737 -0.47173652 -0.88168 
0.4727109 -0.42692986 -0.7708926 
0.3192541 -0.2320462 -0.9188206 
0.25978112 -0.7283418 -0.6340599 
-0.11443469 -0.4000548 -0.909319 
0.57464844 -0.060882453 -0.8161327 
0.7332638 0.35410056 -0.5804629 
0.58845186 -0.26900765 -0.7624692 
0.5307399 -0.08292548 -0.8434681 
0.9254209 -0.3593455 -0.1202788 
0.33519986 -0.41985065 -0.8434256 
0.71796995 -0.22240236 -0.6595881 
0.9434148 0.053570647 -0.32725945 
0.74999964 0.12768385 -0.64899725 
0.102331094 0.38136363 -0.9187437 
0.36041176 0.29592884 -0.884607 
0.7516744 -0.5882267 -0.29828677 
0.16372581 -0.54671466 -0.8211559 
0.15264498 -0.5590598 -0.814955 
-0.32711145 -0.8563621 -0.3995524 
-0.104239516 -0.9301896 -0.35196808 
-0.48789266 -0.4557369 -0.74448955 
-0.6652272 -0.26845413 -0.6967103 
-0.11996759 -0.55331725 -0.82428634 
0.35422844 -0.1671818 -0.92009383 
-0.47327518 0.205426 -0.8566276 
-0.21805382 -0.5813918 -0.7838598 
0.06618129 -0.76104647 -0.64531255 
-0.13675763 -0.5899608 -0.7957662 
0.21187271 -0.43025538 -0.8774909 
0.81893027 -0.45444924 -0.35046992 
0.68095165 -0.7244839 -0.106901884 
0.39520705 -0.9116005 -0.1131193 
-0.2708255 -0.9157824 0.29664165 
-0.70503384 -0.5712114 -0.4202915 
-0.53396595 -0.69020134 -0.48836714 
-0.9022396 0.009630694 -0.43112764 
-0.41168883 -0.32861298 -0.85001516 
-0.49820653 -0.18803889 -0.8464229 
-0.1633941 -0.31098747 -0.93626344 
-0.21313454 -0.17811985 -0.96064925 
-0.8492345 0.13841514 -0.5095509 
-0.6168375 -0.07280733 -0.783716 
0.53250873 -0.4953639 -0.68633014 
0.46812117 -0.20169446 -0.8603382 
0.3248097 0.1727598 -0.9298671 
0.6453361 -0.13777836 -0.751371 
0.37112442 -0.8858237 -0.27853727 
-0.50462574 -0.82297987 -0.2608773 
-0.6127393 -0.7453481 -0.26269168 
-0.17652597 -0.8335133 -0.52354014 
-0.0013796362 -0.35478002 -0.93494886 
-0.032093193 -0.6825946 -0.7300922 
-0.5097709 -0.6023634 -0.614241 
-0.17918445 -0.5864773 -0.789897 
0.4427127 -0.12943612 -0.88727206 
0.8784685 -0.07302346 -0.47218728 
0.34081915 0.07955987 -0.9367565 
0.9419548 -0.03793022 -0.33359042 
0.60494274 0.07668234 -0.7925681 
0.68171024 0.08143868 -0.7270757 
0.62631565 -0.77708805 -0.062151626 
-0.15673892 -0.11278389 -0.98117924 
0.15497243 -0.38981503 -0.9077598 
0.31187344 -0.6777506 -0.6658747 
0.14564839 -0.1391641 -0.9794998 
0.17719106 -0.48294586 -0.85753524 
0.5246626 -0.15391986 -0.8372801 
-0.2258929 -0.20966338 -0.95132214 
0.50071925 -0.02244384 -0.8653188 
-0.1902732 -0.30309802 -0.93377066 
-0.25192785 -0.21537653 -0.9434751 
0.044273477 0.2224127 -0.9739469 
-0.086945035 0.09174908 -0.99197924 
-0.33719575 0.37956017 -0.8615296 
-0.14471212 -0.021704514 -0.98923576 
-0.43997374 -0.5353563 -0.72098327 
-0.013970919 -0.7073195 -0.706756 
0.26350492 -0.76291215 -0.5903646 
-0.04400873 -0.87809443 -0.4764592 
-0.29120854 -0.3917658 -0.8727641 
-0.2457586 0.44963625 -0.8587374 
0.19702831 0.23870006 -0.9508954 
0.20272079 -0.09648154 -0.9744719 
0.47289798 0.1017519 -0.8752224 
-0.50949377 -0.08757484 -0.85600626 
0.17384265 -0.59041977 -0.7881519 
0.31837404 -0.79146457 -0.5217489 
0.40948302 0.53413457 -0.7396107 
0.19223732 -0.32511163 -0.92593056 
0.19995561 0.23647895 -0.95083934 
-0.023181794 0.15116303 -0.9882371 
-0.49766856 -0.6393382 -0.58615077 
-0.6132123 -0.6258717 -0.4819288 
-0.27006003 -0.88104975 -0.3883543 
0.19747327 -0.25101656 -0.947626 
-0.06933745 -0.14143164 -0.9875168 
0.57495856 -0.6207775 -0.53297085 
0.33595473 -0.86365926 -0.375802 
0.12337939 -0.9558196 -0.26680803 
0.21945971 -0.2592615 -0.94054294 
0.41615757 0.1906566 -0.8890799 
0.40031442 0.2820701 -0.8718858 
0.64538544 -0.05810113 -0.7616442 
0.963051 -0.08061885 -0.25696957 
0.71015805 0.12400426 -0.6930358 
0.3944241 0.017533984 -0.91876125 
0.2956713 0.247632 -0.9226359 
-0.04954031 -0.6547261 -0.754241 
-0.37265226 -0.3120545 -0.87392926 
-0.90253323 -0.35606992 0.24217364 
-0.13637418 -0.22131228 -0.9656206 
-0.2953567 -0.7990418 -0.5237335 
-0.27204436 -0.8680466 -0.4153157 
-0.34434852 -0.9167825 0.20232162 
0.13279705 -0.8240715 -0.55070066 
-5.5884022e-05 -0.93596816 -0.3520849 
-0.3330344 -0.68471485 -0.6482698 
0.22502759 -0.81461185 -0.53457475 
0.0056160823 -0.6343222 -0.77304834 
-0.13100268 -0.592169 -0.79509383 
-0.42251894 -0.02311252 -0.90605944 
-0.23335077 -0.14295736 -0.9618268 
-0.12228626 -0.6036203 -0.787838 
-0.06405106 -0.34758636 -0.9354578 
0.54095 0.55317587 -0.63353735 
-0.03327009 0.10685173 -0.99371827 
0.26664224 0.04597639 -0.96269834 
0.026684765 -0.11364745 -0.99316275 
0.718977 0.07568732 -0.6909006 
0.65611494 -0.20517461 -0.7262346 
0.7896166 -0.2837067 -0.5440737 
0.5862534 -0.3553727 -0.7280228 
0.1948847 -0.7723712 -0.60453534 
0.2617897 -0.13930194 -0.955019 
0.107319705 -0.6219184 -0.77569324 
-0.42432958 -0.3008248 -0.8540779 
-0.96976215 -0.10204139 -0.22169551 
-0.6150137 -0.14860097 -0.7743875 
0.2206872 -0.3900992 -0.8939351 
0.079398 -0.47154033 -0.87826294 
-0.07958588 -0.3162384 -0.9453356 
-0.023961656 -0.030954927 -0.9992336 
-0.18513887 -0.099864356 -0.977625 
-0.6038866 0.15355615 -0.7821391 
-0.72725344 -0.08932666 -0.68053156 
0.03495492 0.3895042 -0.9203612 
-0.09684528 0.08306119 -0.99182755 
-0.21317333 0.024340319 -0.9767112 
0.27463603 -0.38479903 -0.8811951 
-0.11142311 -0.44133604 -0.8903973 
-0.33007 -0.2820352 -0.90083855 
-0.49640027 -0.35462356 -0.79235655 
-0.07481112 0.48275018 -0.872557 
0.3323756 0.40484476 -0.85183764 
0.38781005 0.2407348 -0.8897472 
-0.0015467776 -0.20151371 -0.97948444 
0.37984157 0.44900966 -0.8087712 
-0.031929012 0.40175653 -0.91518974 
-0.89210314 -0.13513872 -0.43114907 
0.32371596 0.2861319 -0.9018517 
0.57868 0.26032713 -0.77289027 
0.1472645 -0.6566537 -0.739675 
-0.14157549 -0.9596081 -0.2431229 
0.3883652 0.098248124 -0.91625315 
0.064323574 -0.273566 -0.9597 
0.19836855 0.07082183 -0.9775655 
0.052209962 -0.6007222 -0.7977513 
0.2194409 -0.1236452 -0.967759 
-0.52069354 -0.075088955 -0.85043526 
-0.4662777 -0.25254813 -0.8478235 
-0.37902117 -0.3743803 -0.84627557 
-0.80056894 -0.18939456 -0.56852376 
-0.5639221 -0.6264298 -0.5381242 
-0.53019065 0.290104 -0.7967042 
0.038359124 0.079154 -0.99612415 
-0.033184778 -0.6418908 -0.76607764 
0.23286799 0.30593744 -0.9231332 
0.49620587 -0.092566885 -0.86325616 
0.0664618 -0.4533331 -0.88886 
0.073077634 -0.1009675 -0.9922023 
0.12496685 -0.5007784 -0.8565071 
-0.02753721 -0.6994211 -0.7141792 
-0.56109154 -0.33980152 -0.75479215 
-0.7582976 0.3089154 -0.5740698 
0.22066833 0.014958065 -0.97523427 
0.7227259 0.13935818 -0.67693913 
0.83632034 0.25636494 -0.48460853 
0.32719013 0.6700291 -0.6663391 
0.35701045 0.59941626 -0.71641034 
0.13259648 -0.30518076 -0.94301796 
0.68365335 0.4002687 -0.6102485 
0.98057014 0.052699577 -0.18895778 
0.9587329 -0.003537815 -0.2842866 
0.4907246 -0.08596712 -0.8670635 
0.49418613 -0.3860613 -0.77893305 
0.3503874 -0.7702071 -0.5329257 
-0.97488683 -0.21963671 -0.03681561 
-0.84762126 0.12512413 -0.51563764 
-0.20056903 0.14724953 -0.96855026 
-0.04708773 -0.5569928 -0.82918143 
0.4551877 -0.03932439 -0.8895267 
0.46435237 0.13689448 -0.8750068 
-0.09774272 -0.7287352 -0.6777842 
0.22408538 -0.66784114 -0.7097704 
-0.42605934 -0.07547428 -0.9015416 
0.28857237 0.51376915 -0.80794007 
0.23347723 0.17671452 -0.95616966 
0.067604154 0.58972603 -0.8047689 
0.40682557 0.39055148 -0.82581025 
0.27585477 0.23045366 -0.9331642 
-0.17462136 0.24086836 -0.95471984 
0.68067306 0.25126886 -0.6881484 
-0.60475755 0.5929501 -0.5316752 
-0.03862552 0.53142095 -0.8462269 
0.317874 0.5944636 -0.7386266 
-0.17760684 0.14271447 -0.9736984 
0.11282151 0.32911342 -0.9375264 
0.26911247 0.30021006 -0.91512424 
-0.21398808 -0.6633424 -0.7170676 
-0.104486324 -0.80852723 -0.5791082 
-0.21635595 -0.2170253 -0.95188767 
0.11055162 -0.22619203 -0.96778905 
-0.18410958 0.15044062 -0.97132456 
0.11342563 -0.7113818 -0.69359255 
0.1618223 -0.20804518 -0.9646402 
0.36309615 0.42766163 -0.8278084 
0.22752899 -0.11207256 -0.9673006 
-0.16578746 -0.07750256 -0.9831114 
0.22431462 0.052641667 -0.97309405 
0.3920106 -0.3542633 -0.8490142 
0.12508859 -0.011728266 -0.99207634 
-0.17119202 -0.34802687 -0.92172164 
-0.5375938 -0.33501375 -0.773795 
-0.45140886 -0.30096945 -0.8400283 
-0.047319416 0.68183047 -0.7299782 
0.02673708 -0.14755122 -0.98869306 
0.40845963 -0.5148465 -0.75372 
0.5214603 -0.33861116 -0.78321254 
-0.39985642 -0.21902251 -0.89002484 
0.40361717 -0.55520254 -0.72721624 
-0.013189736 0.011447181 -0.9998475 
-0.4869139 -0.260129 -0.8338153 
-0.36447674 -0.06151314 -0.9291786 
0.37202504 -0.4671659 -0.8020932 
0.1137088 -0.45112744 -0.8851861 
-0.11565285 -0.86244863 -0.4927543 
-0.01671099 -0.9879888 -0.1536191 
-0.045999385 -0.916235 -0.39799187 
-0.35085785 -0.6897885 -0.63331723 
-0.9071344 -0.38481152 -0.17037418 
-0.4684252 -0.5534271 -0.6886918 
-0.20453733 -0.18143278 -0.9618975 
0.35908714 -0.7995896 -0.48136562 
0.20009805 -0.44090587 -0.8749644 
-0.14170378 0.38698524 -0.91113263 
-0.53820443 0.38366404 -0.7504252 
0.435587 -0.23327538 -0.86939436 
0.16209418 -0.12507257 -0.97881687 
-0.5639024 -0.09723829 -0.8200969 
0.15317565 -0.23652908 -0.9594745 
0.07297917 -0.25457665 -0.96429497 
0.379251 -0.16206662 -0.91099024 
0.4521665 -0.09234087 -0.8871407 
0.88016653 0.3497344 -0.32092476 
0.8461135 -0.1440909 -0.5131566 
0.5785233 -0.15146382 -0.8014797 
0.8090145 -0.5827336 -0.0769236 
0.4969435 -0.7734299 -0.39351448 
0.7144078 0.33440807 -0.61464846 
0.65549564 0.2996139 -0.69322217 
0.69732654 -0.26653993 -0.66535115 
0.56281555 -0.19760372 -0.8026154 
-0.037851352 -0.32774606 -0.9440074 
0.110984415 0.1587768 -0.98105675 
0.024752643 -0.8071592 -0.5898148 
0.092170544 -0.5903633 -0.80185777 
0.26805618 0.11592994 -0.9564027 
0.05002836 0.3346131 -0.94102675 
-0.051989924 -0.31611776 -0.94729435 
0.00841399 -0.31690678 -0.9484194 
-0.018340059 0.38236812 -0.923828 
-0.15557466 -0.39947185 -0.90344834 
0.19944634 0.0036606228 -0.97990197 
0.10183021 -0.31907707 -0.9422423 
0.27026492 -0.14082679 -0.952431 
0.030351238 -0.11078979 -0.9933803 
0.77634174 -0.6227556 -0.097308636 
0.5546779 -0.33564007 -0.761366 
-0.091130905 -0.95418394 0.2850058 
-0.3139722 -0.8970527 -0.31099495 
-0.65678656 -0.3314536 -0.6773256 
0.18249068 -0.54843193 -0.81603897 
-0.8229636 -0.026473327 -0.567477 
-0.373299 -0.28686136 -0.88224626 
0.022699712 0.22405714 -0.9743116 
-0.74325436 -0.20281318 -0.6375264 
-0.9622252 0.22970288 -0.14614794 
-0.842995 -0.10579103 -0.52741617 
0.3649703 -0.22591852 -0.90319306 
0.35055572 -0.18288238 -0.9185123 
-0.023226308 -0.81183684 -0.5834222 
0.1811863 -0.59240246 -0.7850037 
0.32280245 -0.792125 -0.5180123 
-0.6129312 -0.31726125 -0.723644 
-0.3325753 -0.83843815 -0.43175817 
-0.8114055 -0.40373063 -0.42263773 
0.25423214 -0.4562012 -0.8527875 
-0.41158158 -0.88032204 0.23586805 
-0.24016412 -0.7343879 -0.63481945 
0.6108991 -0.29662728 -0.7340399 
0.46945515 -0.46129173 -0.75287575 
0.2259069 0.41065204 -0.8833635 
0.34495628 0.082389005 -0.93499583 
0.46374705 -0.00018657651 -0.8859676 
0.64075404 -0.42828533 -0.63718593 
0.68557465 0.23085459 -0.69043 
0.34584162 -0.82484716 -0.4472369 
0.295144 -0.02096689 -0.9552228 
0.3120692 0.15747726 -0.9369172 
0.14285487 0.77860326 -0.6110397 
0.101104155 -0.20757575 -0.9729802 
0.44014335 -0.61131567 -0.6576983 
0.6933751 -0.22415404 -0.68482554 
0.5710876 0.1079042 -0.81376636 
0.20549773 0.5738238 -0.792778 
-0.32096776 0.190257 -0.9277834 
-0.31098446 0.21651721 -0.92542374 
0.12703411 -0.7616926 -0.6353636 
0.5623127 -0.07069552 -0.8238973 
0.045297936 0.5563251 -0.82972926 
-0.06916223 0.220847 -0.9728532 
0.49844134 -0.4115016 -0.7630352 
-0.035739716 -0.89333445 -0.4479691 
-0.10460538 -0.6896508 -0.7165471 
0.36906427 -0.33474967 -0.8670262 
-0.61921036 0.4719804 -0.62754524 
0.14886037 0.27663118 -0.9493765 
0.7360678 -0.2022019 -0.64600205 
0.026522366 -0.07844035 -0.996566 
0.19454856 0.18898907 -0.9625144 
-0.10003569 -0.21061595 -0.97243714 
0.18274966 -0.1260117 -0.97505057 
0.38878024 -0.44267404 -0.80801594 
0.28995833 0.01714869 -0.9568857 
0.18149169 0.2253673 -0.95722014 
0.6494433 0.19619508 -0.73466384 
0.64739525 -0.33669215 -0.6837528 
0.02972363 -0.47106534 -0.8815974 
0.19977988 -0.24840528 -0.94783056 
0.36674657 -0.4346414 -0.8225472 
0.13261564 -0.50624704 -0.852131 
0.61326206 -0.5146241 -0.599226 
0.38757306 -0.57589185 -0.7198165 
0.12332969 -0.8213761 -0.5568943 
0.29984522 -0.8304608 -0.46949753 
0.037512843 0.16885032 -0.9849276 
0.464077 0.46021378 -0.7568591 
0.004273915 -0.08312913 -0.9965297 
0.6428867 0.001190829 -0.7659604 
0.5013009 -0.13272463 -0.85503316 
0.8106042 -0.0075865034 -0.5855453 
0.50644755 -0.07036063 -0.8593954 
0.59242386 -0.055063143 -0.8037425 
-0.5628658 -0.61503893 -0.5521859 
-0.22837037 -0.37007308 -0.9004959 
-0.43715024 -0.7572437 -0.48526466 
-0.24978754 0.17436153 -0.95247275 
0.37425834 -0.42563456 -0.82387257 
0.23542716 -0.9698065 -0.06363496 
-0.50266314 -0.838906 0.20872638 
-0.7062683 -0.1692403 -0.68741757 
0.34868222 -0.721512 -0.5981983 
0.47267377 -0.32955447 -0.8172964 
0.09193573 -0.7344553 -0.6724012 
-0.35000467 -0.5843154 -0.73216957 
0.1949239 -0.32126614 -0.9267108 
-0.33151555 0.04582714 -0.94233614 
-0.16656849 0.5687121 -0.80549455 
-0.21232939 0.7068219 -0.67477334 
-0.7130943 0.05251823 -0.69909835 
-0.36243752 0.7226653 -0.5885525 
0.5599983 0.52362776 -0.6420405 
0.44943932 0.12540638 -0.88446456 
0.52913034 0.5876846 -0.6120849 
0.8847489 -0.18718725 -0.42682585 
0.6772178 -0.72335625 -0.13465443 
0.277418 -0.28500226 -0.9175038 
0.24565896 -0.3124308 -0.9176267 
0.26110142 -0.15063506 -0.95348585 
-0.08685728 0.09838798 -0.9913504 
-0.28647053 -0.08232139 -0.954546 
-0.05362934 -0.26491877 -0.96277833 
-0.38524425 0.46076667 -0.79955053 
-0.27237773 0.26442727 -0.9251425 
0.14413023 -0.28088972 -0.9488559 
0.34754285 -0.014772209 -0.9375478 
0.040977757 0.115183555 -0.99249864 
0.21256875 0.5153397 -0.83020455 
0.6004083 0.6022148 -0.52616286 
-0.2034509 -0.6615544 -0.7217711 
-0.26060626 -0.6002671 -0.75615066 
-0.4388271 -0.25506055 -0.8616119 
-0.6800173 -0.47877774 -0.55529124 
-0.33151194 -0.23667829 -0.9132816 
0.42016876 -0.58287835 -0.6954934 
-0.25064483 -0.27344143 -0.9286587 
-0.10622463 0.23743212 -0.96557873 
-0.44745937 -0.1767805 -0.8766578 
-0.1843935 0.6611709 -0.72722214 
-0.34498054 -0.29824293 -0.8899661 
-0.44218838 -0.3429876 -0.82875144 