# OOMMF: rectangular mesh v1.0
# Segment count: 1
# Begin: Segment
# Begin: Header
# Desc: Time (s) :  7.99000000000002e-07
# Title: m
# meshtype: rectangular
# meshunit: m
# xbase: 2e-09
# ybase: 2e-09
# zbase: 5e-10
# xstepsize: 4e-09
# ystepsize: 4e-09
# zstepsize: 1e-09
# xmin: 0
# ymin: 0
# zmin: 0
# xmax: 1.024e-06
# ymax: 1.024e-06
# zmax: 1e-09
# xnodes: 256
# ynodes: 256
# znodes: 1
# ValueRangeMinMag: 1e-08
# ValueRangeMaxMag: 1
# valueunit: 
# valuemultiplier: 1
# End: Header
# Begin: Data Text
-0.069839865 0.17576776 -0.9819512 
0.17584386 0.16535205 -0.97043175 
0.6702692 -0.2984691 -0.67945236 
0.64688015 -0.03801247 -0.7616437 
0.98272336 -0.16568631 -0.08248033 
0.80214787 0.3030324 -0.5145196 
0.3410232 -0.42333347 -0.8393403 
0.09850125 0.6254453 -0.7740257 
-0.10218186 0.3749254 -0.9214065 
0.13264862 -0.27307665 -0.95280296 
0.3599198 -0.18821082 -0.91380215 
-0.061707117 0.16271321 -0.984742 
0.28513062 0.0443031 -0.9574643 
0.6234218 -0.0585042 -0.7796939 
0.009003283 -0.06201651 -0.99803454 
-0.25028086 0.15856925 -0.95509964 
0.3629516 0.3142567 -0.87721664 
0.58573306 0.5449539 -0.5999518 
0.53728753 -0.3665185 -0.7595961 
-0.5301927 -0.6177835 -0.5807231 
-0.41907674 -0.76929766 -0.48224032 
-0.5869302 -0.80404663 -0.0949848 
-0.84129417 0.43398282 -0.3223091 
0.085482955 -0.18230265 -0.97951955 
-0.0844487 -0.76981866 -0.63265127 
0.20334813 -0.71720034 -0.6665383 
0.011824029 -0.9033656 -0.42870823 
0.07686325 -0.7383491 -0.67002445 
0.559009 -0.22558685 -0.7978845 
0.33812055 -0.05446311 -0.9395256 
0.33887944 -0.49276593 -0.80146265 
0.069273494 -0.15557514 -0.98539215 
0.76037943 0.24499741 -0.6014976 
0.7639077 -0.63221675 -0.12940998 
-0.26227778 -0.92470264 -0.27592635 
0.087360606 -0.91873956 -0.38507885 
-0.4379532 -0.8899267 -0.12738785 
0.38043392 -0.7220816 -0.5778134 
0.24543439 0.25011045 -0.93659323 
-0.261624 -0.698841 -0.66571337 
-0.53349936 -0.4947408 -0.6860103 
0.2928768 -0.86599404 -0.4053117 
0.87818635 -0.43633747 -0.19595495 
0.52318907 0.6334776 0.5700697 
-0.40128407 0.45853996 -0.7929137 
0.29488194 0.08186377 -0.95202047 
0.7802004 0.2796324 -0.5595472 
0.74262124 -0.41930842 -0.52220136 
-0.22377814 -0.09613748 -0.9698871 
-0.072498724 -0.41324666 -0.90772855 
-0.43385863 -0.4425993 -0.78477544 
-0.29628184 -0.3985582 -0.8679681 
0.64374644 -0.73654085 -0.20760114 
0.19291086 -0.624043 -0.7572027 
-0.114916466 0.33021724 -0.93688357 
0.25364196 0.03318437 -0.9667288 
-0.50567454 -0.61565375 -0.6043706 
-0.2066945 -0.34796038 -0.91444033 
0.033049993 -0.383318 -0.92302495 
0.46486652 0.13392492 -0.8751933 
0.62794566 0.0041580056 -0.7782461 
0.7841551 -0.26675794 -0.5603044 
0.10997786 -0.69683546 -0.70874906 
0.4404595 0.18465602 -0.8785771 
0.24903204 -0.013672799 -0.96839875 
0.6469883 -0.34128454 -0.6818586 
0.704555 -0.6724777 -0.22666293 
0.37429532 -0.3456513 -0.86048144 
-0.41346025 -0.61157686 -0.674555 
0.77564824 -0.41853738 -0.47243646 
0.006208118 -0.6141254 -0.7891841 
-0.78948087 -0.32019114 -0.5236389 
0.18178108 0.106788084 -0.9775234 
-0.08531748 0.10243356 -0.9910744 
-0.088491015 -0.17279786 -0.9809742 
0.764305 -0.6141246 -0.19669527 
0.8248293 -0.4529155 0.3384144 
0.3287264 -0.581031 -0.7445414 
-0.08810861 -0.99569154 0.028900417 
-0.04104638 -0.9969284 0.066700764 
0.017712278 -0.62956375 0.7767469 
-0.105074674 -0.8075388 0.58037966 
0.3272811 -0.9378947 0.1150683 
-0.10917771 -0.98918134 -0.097982235 
-0.74593705 -0.46504232 -0.47677428 
-0.3397253 -0.5991221 -0.72501004 
-0.33093065 -0.13060288 -0.9345736 
-0.6281633 -0.16059779 -0.7613273 
-0.26442263 -0.728296 -0.63219124 
0.26070458 -0.88266695 -0.39106563 
0.017352873 -0.7568912 -0.65331054 
-0.74194986 -0.2737776 -0.6120101 
-0.2545417 0.07457495 -0.96418214 
-0.9244851 -0.33356896 0.1845514 
-0.27666432 0.17152104 -0.94553554 
-0.24076849 0.41701105 -0.8764316 
-0.30013895 -0.07230187 -0.95115143 
0.1937599 -0.6968273 -0.6905714 
0.19643411 -0.21534547 -0.9565773 
0.34466773 -0.27420834 -0.89778286 
0.47095048 -0.34672168 -0.81116575 
0.16855352 -0.10620016 -0.9799547 
-0.0044672536 -0.59810144 -0.80140793 
-0.053015284 -0.98653 -0.15475157 
0.58514506 -0.7148895 -0.38280332 
-0.5177485 -0.7003271 -0.49140462 
0.33847615 -0.3482001 -0.87417996 
0.3582973 -0.52521205 -0.77186483 
0.22276351 -0.8154409 -0.5342589 
0.21568604 -0.4638269 -0.8592696 
0.7831763 -0.2200019 -0.5815791 
0.9832986 -0.17242613 -0.05825113 
0.18503954 -0.32163286 -0.928608 
0.19841138 -0.4757453 -0.8569128 
-0.116512746 -0.3585578 -0.92620796 
-0.07822118 -0.14201333 -0.9867693 
-0.43202144 0.118386485 -0.89405936 
-0.09645632 -0.39910224 -0.9118189 
0.24748076 0.21255606 -0.9452901 
0.33526376 -0.89355123 -0.29860428 
-0.118377596 -0.86911815 -0.4802295 
-0.16889457 -0.6623882 -0.7298743 
-0.71812177 -0.5021584 -0.48180723 
-0.040610477 -0.25356305 -0.96646607 
-0.5027948 -0.54288507 -0.67266136 
0.20680639 0.051394895 -0.9770311 
0.3770262 -0.5574544 -0.73965937 
-0.44018638 -0.3046039 -0.84466124 
-0.020084789 -0.4726644 -0.88101363 
-0.27418116 -0.8181932 -0.505356 
0.107108876 -0.23366076 -0.96640074 
-0.4220956 0.25848168 -0.86892027 
0.035708345 -0.6074589 -0.7935481 
0.16720939 -0.91384196 -0.37004575 
-0.029838437 -0.7561476 -0.6537205 
-0.0032946616 -0.9597384 -0.28087625 
0.44305995 -0.8541493 -0.27226284 
-0.105486564 -0.99433714 0.012900153 
-0.109649055 -0.86359787 -0.49211362 
0.37024269 -0.8361765 -0.40463462 
0.71972156 -0.1889171 -0.66806537 
0.46089813 -0.78510714 -0.41373885 
-0.5884058 -0.7999533 -0.11770038 
0.09966827 -0.55031884 -0.8289847 
0.29999262 -0.95011604 -0.085346006 
0.54033136 -0.6497276 0.5346926 
-0.066825844 -0.94535965 -0.31910747 
-0.5742289 -0.78579247 -0.22976387 
-0.412314 -0.85224116 -0.32199708 
-0.4683044 -0.8407463 -0.2717293 
-0.34258786 -0.8135232 -0.46990815 
-0.25361985 -0.96281916 0.09303977 
-0.077781014 -0.8216868 -0.5646071 
0.28248364 -0.63886565 -0.7155793 
0.61196417 -0.6750598 -0.41206104 
-0.016911631 -0.9640534 -0.2651699 
-0.45313582 -0.6689269 -0.5892409 
0.061311025 -0.5382064 -0.84058005 
0.609046 -0.79247075 -0.0324513 
-0.13257961 -0.95689553 -0.25840607 
-0.29416296 0.105889834 -0.9498713 
-0.65251356 -0.64785117 -0.3930839 
-0.7619868 -0.3745533 -0.52828604 
-0.7894381 -0.35746673 -0.49900413 
-0.5592713 -0.5361103 -0.63229865 
-0.33930317 -0.44633576 -0.82804465 
-0.49631977 0.082204364 -0.86423904 
0.31449792 -0.3593912 -0.8785949 
0.26611915 -0.37447935 -0.8882262 
0.7446684 -0.5610516 -0.36151087 
0.07098149 -0.8571317 -0.51018333 
0.12082113 -0.44460845 -0.88753915 
0.13217819 -0.62546265 -0.768977 
0.5522002 -0.786201 -0.277422 
-0.12805025 -0.73899215 -0.66143316 
-0.01962229 -0.40096962 -0.91588116 
0.77163774 -0.5017599 -0.3909123 
0.7879658 -0.5940513 0.16190466 
0.34372914 -0.89459217 0.28557885 
-0.12732996 -0.54543996 -0.8284217 
-0.013805641 -0.18046582 -0.9834844 
-0.22096646 -0.7914981 -0.56982845 
0.16199277 -0.2650479 -0.95053035 
-0.13595086 -0.60478354 -0.7847001 
-0.39252153 -0.6660312 -0.63429445 
0.13053909 -0.8366003 -0.5320334 
0.074056126 -0.53226775 -0.84333074 
-0.50099856 -0.47679928 -0.72226244 
-0.47805578 -0.29469967 -0.8274145 
0.18592328 -0.74131125 -0.6448955 
-0.3998027 -0.9149523 -0.05495714 
-0.3312197 -0.8599731 -0.38825256 
-0.14201601 -0.68924606 -0.71047264 
-0.8227174 -0.39615268 -0.40767536 
-0.8808257 -0.20851919 -0.42504817 
0.34739637 -0.4752554 -0.8083613 
0.3199954 -0.54469925 -0.7751812 
0.43461332 -0.66858274 -0.60341394 
0.22016631 -0.9665188 -0.13178903 
0.9155679 -0.15111555 0.37269256 
0.3769885 -0.7070864 0.5982547 
0.07893732 -0.8035005 0.5900474 
-0.4430636 -0.03656846 0.89574414 
-0.6557836 -0.70677155 0.26537135 
-0.8615354 -0.4950542 -0.112597875 
-0.530744 -0.37569842 -0.7597115 
-0.80999607 -0.44803768 -0.37837628 
-0.63024926 -0.7680122 0.113768384 
-0.27857345 -0.8539046 0.43959507 
-0.5853 -0.7815564 0.21585523 
-0.55961376 -0.2956063 -0.77424115 
0.19359529 -0.5519545 -0.81109 
-0.08097642 -0.13498048 -0.98753387 
0.5581738 0.46351394 -0.68818384 
0.4747329 -0.2520402 -0.8432701 
0.310546 -0.4953717 -0.8112756 
0.73059696 -0.6487766 -0.21287784 
0.2671765 -0.91019005 -0.31649804 
-0.51411504 -0.8063739 -0.29231298 
-0.5076945 -0.5189811 -0.6876809 
-0.06586938 -0.4269527 -0.90187174 
0.00426875 -0.7014692 -0.712687 
0.30654833 -0.27418497 -0.9115102 
0.30839646 0.07824372 -0.9480346 
0.57459456 -0.69605404 -0.43052295 
0.78410953 -0.5353747 -0.31392077 
0.3889653 -0.61910653 -0.682212 
0.5049561 -0.47280595 -0.72213155 
0.5528482 -0.44232228 -0.70619404 
0.22696874 0.14732957 -0.9626938 
0.38655624 0.3470119 -0.85449237 
0.31125057 0.08186465 -0.9467953 
-0.47648114 -0.122179784 -0.8706536 
-0.2484017 0.051603712 -0.96728164 
-0.534064 0.23228939 -0.8129068 
-0.3090217 0.07204682 -0.9483221 
-0.19141293 -0.031302888 -0.9810104 
0.37615213 0.1142519 -0.9194869 
-0.4960195 -0.12139966 -0.859783 
-0.25765547 -0.083385125 -0.9626321 
-0.26976752 -0.32097396 -0.90785533 
-0.54124224 -0.419851 -0.7285479 
-0.8243845 0.11385412 0.55446136 
-0.5014673 -0.35475385 -0.78910106 
-0.31133488 -0.038928796 -0.94950265 
0.15878764 -0.011808941 -0.98724216 
0.31144127 -0.63999695 -0.70243025 
0.15545578 -0.40860182 -0.8993765 
0.32563958 -0.36898863 -0.8705208 
0.3126279 -0.794583 0.5204823 
-0.49525705 -0.86846876 0.021964926 
-0.64318645 -0.47275797 -0.60233814 
-0.16609304 -0.7540835 -0.63543 
0.53523606 0.14758937 -0.83170897 
0.6739402 -0.39376414 -0.62510365 
0.7432569 -0.2948865 -0.60050905 
-0.37512517 -0.4040752 -0.83426875 
-0.22180012 -0.20274398 -0.9537817 
0.46113077 -0.2107644 -0.86193776 
0.7269644 -0.587748 -0.35507062 
0.13922292 -0.98637646 0.087626494 
0.99728984 0.07356987 -0.0007834047 
0.26382524 -0.007972999 -0.9645376 
0.37456527 -0.3499968 -0.8586054 
-0.084241815 0.041546695 -0.9955788 
0.09225346 -0.5685484 -0.8174608 
-0.61040086 0.22469428 -0.7595548 
-0.30553403 0.8403622 -0.4477056 
-0.62161535 -0.38503414 -0.6821607 
-0.027381115 0.509864 -0.8598193 
0.30099338 0.22293396 -0.9272019 
0.8446906 0.38410074 -0.37277913 
0.2601501 0.8464439 0.46460158 
0.6286321 0.64172035 0.43933672 
0.13646369 -0.36200678 -0.9221328 
-0.3434046 0.1492824 -0.9272476 
-0.48953325 -0.3407361 -0.80265576 
-0.1054396 -0.17580667 -0.97876173 
-0.08322183 0.23078837 -0.96943843 
0.18086381 0.10257129 -0.9781449 
0.10819609 -0.43487853 -0.8939655 
-0.3139265 -0.13683863 -0.9395347 
0.118190385 -0.51856625 -0.8468295 
0.32128328 -0.4015089 -0.85765237 
0.12518767 0.23932365 -0.9628355 
-0.034222856 -0.04801719 -0.9982601 
-0.17630292 -0.08590852 -0.9805799 
0.5846429 0.072996184 -0.8080002 
0.85330164 0.45264998 -0.2588136 
0.73444873 -0.6660156 0.13041574 
-0.01746529 -0.8932879 -0.44914553 
0.24868788 -0.610692 -0.75180423 
-0.18193316 -0.31288967 -0.9322019 
0.026376667 -0.12825963 -0.9913898 
-0.39363995 -0.12731531 -0.9104057 
-0.21782444 -0.28941333 -0.93209034 
0.2834236 -0.08669289 -0.95506835 
-0.108934164 -0.15796095 -0.98141825 
0.61878467 -0.60624915 -0.4995674 
0.08700405 -0.8257934 -0.55722135 
-0.0024794464 -0.123823054 -0.9923013 
0.29235685 -0.03355308 -0.9557205 
0.33678064 0.108369 -0.9353262 
0.63744617 -0.3195155 -0.7011222 
0.055103265 -0.11081543 -0.9923123 
0.25433007 -0.42954224 -0.8664928 
-0.49310783 -0.6106534 -0.6196347 
-0.17459533 -0.598837 -0.7816078 
-0.38191894 -0.589569 -0.7117207 
0.12411602 -0.5152535 -0.848003 
-0.429846 -0.15499154 -0.88949996 
0.036123335 0.20617181 -0.9778488 
-0.2152524 -0.2658023 -0.9396891 
-0.46551225 -0.21795885 -0.8577835 
-0.63329 -0.38725296 -0.6700589 
-0.1518972 0.47455904 -0.8670185 
0.71648204 -0.48736182 -0.4991313 
0.083094455 -0.26727566 -0.96003073 
-0.16239683 0.06073074 -0.9848548 
-0.2553815 0.07405468 -0.9640001 
0.2132641 0.3743508 -0.9024301 
0.31757116 0.85116076 -0.41794008 
0.36004883 -0.4146604 -0.83571637 
0.16043529 -0.32503134 -0.93199533 
-0.28540835 -0.42814752 -0.8574567 
0.62262696 -0.21493755 -0.7524212 
-0.23762208 -0.25452295 -0.9374187 
-0.43512598 -0.5013263 -0.74788857 
-0.48766506 -0.18438773 -0.85333705 
0.19441241 -0.3502448 -0.91626 
0.18281817 -0.5387421 -0.8223955 
0.8946715 -0.22185986 -0.38773862 
0.62577564 -0.38265365 -0.679692 
-0.110020906 -0.7807281 -0.615109 
0.66157705 -0.6841326 -0.30704802 
0.44350028 -0.778079 -0.44486028 
0.58533597 -0.8080264 0.06689742 
0.080633245 -0.57801265 -0.81203425 
-0.24303882 -0.92642134 -0.287534 
-0.3084554 -0.6713927 -0.6738599 
-0.2751603 0.057784505 -0.95966023 
-0.30135608 0.2921375 -0.9076565 
-0.23737592 0.4069104 -0.8820866 
-0.8274328 -0.07055899 -0.55711454 
-0.59220535 0.21484613 -0.77661705 
-0.5648163 -0.03393568 -0.8245187 
-0.27182224 -0.50354743 -0.8200932 
0.31692564 -0.31833094 -0.89343363 
-0.29115924 -0.26039472 -0.92055464 
-0.4010947 -0.30627277 -0.8633192 
0.14934973 0.10353926 -0.9833486 
0.012082037 0.32837045 -0.94447184 
-0.33891752 0.24570332 -0.9081657 
-0.43712106 -0.47257397 -0.76524454 
0.50475293 -0.4755941 -0.72044075 
0.40126798 -0.19248222 -0.89550805 
0.5244712 -0.06996357 -0.8485489 
0.53831387 -0.42875537 -0.72552544 
-0.2420212 -0.8681534 -0.4332845 
0.40407616 -0.88709795 -0.22311383 
0.24163163 -0.850433 -0.46730936 
0.12839843 -0.6947698 -0.7076785 
-0.042147133 -0.21512638 -0.9756763 
0.15796593 -0.42671087 -0.8904857 
0.400892 -0.43346912 -0.8070875 
0.46284503 -0.29297486 -0.83662444 
0.55212885 -0.25493002 -0.7938291 
0.6136459 -0.1075327 -0.7822246 
-0.79338807 0.16373584 -0.58628154 
-0.14231145 -0.022474883 -0.98956674 
0.21057217 -0.031658616 -0.97706556 
0.21581346 -0.40759447 -0.8872944 
0.21681416 0.58713466 -0.77991325 
-0.23472892 0.2674367 -0.934548 
0.44089466 0.26334348 -0.85805714 
0.5869748 -0.7419419 -0.32401052 
-0.08859291 -0.9247368 -0.37015286 
-0.6810762 -0.72371346 -0.1112386 
-0.56442875 -0.7472948 -0.35067195 
0.3316527 0.39179277 -0.85819876 
0.07991263 -0.1422825 -0.986595 
-0.19036916 0.29719666 -0.9356461 
0.040249296 -0.33095688 -0.9427872 
-0.46990606 0.21178375 -0.8569341 
-0.14876953 0.10382328 -0.9834065 
-0.088674664 -0.6307501 -0.7709029 
-0.3387758 -0.12946327 -0.9319175 
-0.13372388 0.029380815 -0.99058306 
0.2801774 -0.8122691 -0.5115853 
-0.16666 -0.7593956 -0.62892205 
0.4028725 -0.36931533 -0.8374366 
0.20858361 -0.538473 -0.8164188 
0.19730964 -0.49879876 -0.8439601 
0.38446736 -0.50985986 -0.7695634 
-0.4297781 -0.67124534 -0.6039209 
-0.60096025 -0.4146349 -0.6833189 
0.33010814 -0.16759056 -0.92894673 
0.4156698 -0.41237468 -0.8106577 
-0.05688335 -0.94770557 -0.31403595 
0.42695555 -0.7470874 -0.5094796 
-0.27230766 -0.81881523 -0.5053615 
-0.29950586 -0.55653447 -0.7749617 
0.38218477 -0.54953176 -0.74293315 
-0.19991063 -0.65203774 -0.7313566 
-0.30165416 -0.88409 -0.35691687 
-0.084451035 -0.9549926 -0.284354 
-0.3943927 -0.8751394 -0.28033075 
-0.48291337 -0.6063349 -0.63178533 
0.09548765 -0.31747857 -0.9434456 
-0.0994713 -0.64075327 -0.76127565 
-0.564695 -0.050617516 -0.82374597 
-0.34898767 -0.7019194 -0.62090003 
-0.35551634 -0.7646153 -0.5375609 
0.4050522 -0.37753174 -0.83270794 
0.1337215 -0.6760999 -0.724574 
-0.48153016 -0.87341243 -0.07265946 
-0.6829323 -0.23917964 -0.69021493 
-0.87330776 -0.4394546 -0.21026976 
-0.29828835 -0.6004457 -0.74194956 
-0.62757623 -0.011414198 -0.77847147 
-0.64332914 -0.5529354 -0.52951866 
0.02670503 -0.66367257 -0.7475464 
-0.040921677 0.069024906 -0.99677527 
0.61014414 -0.2792364 -0.7414521 
0.87581265 -0.44235387 -0.19306836 
0.6230713 -0.3274816 -0.7103084 
-0.08612883 -0.08968675 -0.992239 
0.20549662 0.3045214 -0.9300741 
0.32897162 -0.46226794 -0.82345974 
0.59299433 -0.50313777 -0.6286575 
0.54528254 -0.4076502 -0.73245364 
0.35587227 -0.2664465 -0.8957462 
0.2091238 -0.7029548 -0.6797954 
0.103191555 -0.92125875 0.37501183 
-0.0026379449 -0.8239742 -0.56662124 
-0.41482604 0.13869391 -0.8992683 
-0.053039476 -0.45047966 -0.8912098 
-0.2570417 -0.16651003 -0.95194757 
-0.017064532 -0.34009978 -0.9402346 
0.32770044 -0.11220354 -0.93809533 
0.05676248 -0.08618563 -0.99466085 
-0.4427926 -0.46268937 -0.76801914 
-0.03346588 -0.23768078 -0.97076666 
-0.5527819 -0.20217179 -0.8084299 
-0.33448693 -0.045235004 -0.9413142 
0.1331806 0.19812043 -0.97108775 
-0.44483453 -0.2493542 -0.8602004 
-0.18745412 -0.5775754 -0.7945235 
0.06447063 -0.47706443 -0.8765005 
-0.031328607 0.21426423 -0.9762732 
-0.36563444 -0.174048 -0.9143407 
-0.0058231344 -0.19923407 -0.9799347 
0.058325633 -0.64464414 -0.76225466 
0.06737594 -0.88876516 -0.4533841 
0.8264644 -0.33767173 -0.4504825 
0.22093084 -0.8901628 -0.39849678 
0.77911067 -0.52791077 0.33807814 
-0.25435814 -0.9217386 0.29274556 
-0.6125252 -0.6814824 0.40049303 
-0.6036761 -0.5852275 0.5413723 
-0.9933024 0.09661308 0.063374296 
-0.9819414 -0.18885882 0.011115091 
-0.46227798 -0.7784877 -0.42456564 
-0.38518196 -0.5511542 -0.7401783 
0.28074262 -0.5069868 -0.8149528 
-0.22221766 -0.8149065 -0.5353007 
-0.4590324 -0.39874095 -0.7939112 
-0.46347103 0.03967105 -0.88522357 
-0.06969277 0.26196918 -0.96255654 
0.49230742 0.1646082 -0.8547149 
0.15273893 -0.2105427 -0.965579 
0.48483902 -0.28222698 -0.8278159 
0.29555526 -0.34087688 -0.89244056 
-0.211894 -0.6155871 -0.75904787 
-0.6678106 -0.65796787 -0.3480049 
-0.094918415 -0.8830831 -0.45951584 
0.3867568 -0.49018633 -0.7811123 
0.5824163 -0.6530294 -0.48409083 
0.55648756 -0.07560198 -0.82740915 
0.38307285 -0.19868411 -0.9020975 
0.1901699 -0.2865799 -0.93899274 
0.1645588 -0.41381702 -0.89536357 
0.36036152 -0.30036762 -0.8831302 
0.805791 -0.17730758 -0.56503356 
0.9469176 -0.24910176 -0.20321271 
0.103127904 0.0068597766 -0.9946445 
-0.12110689 0.18179676 -0.97585 
0.100492485 0.47573137 -0.8738312 
-0.46586543 -0.16740784 -0.86887515 
0.028612033 0.44963092 -0.89275616 
-0.27706933 0.4389748 -0.8547126 
-0.5227311 -0.10032599 -0.8465736 
0.028180802 -0.52127373 -0.85292417 
0.21322474 0.044325955 -0.9759972 
-0.49199834 -0.012732734 -0.87050307 
0.058655124 -0.36265233 -0.93007684 
-0.61040336 -0.008123763 -0.79204917 
-0.6329457 -0.27737242 -0.72280306 
-0.87595326 0.356144 -0.3253728 
-0.5131606 0.43499932 -0.7398932 
-0.051128205 0.3954469 -0.9170648 
-0.24578726 -0.25351036 -0.93558604 
0.17679249 0.30597836 -0.93547934 
-0.15823099 0.030671608 -0.98692566 
0.027581235 -0.2507254 -0.9676653 
-0.15592368 -0.82332766 -0.5457284 
-0.62996495 -0.6914219 -0.3536665 
-0.3734745 -0.5568245 -0.7419322 
0.20377623 -0.53027755 -0.8229708 
0.8321939 0.39207193 -0.39208785 
0.70852256 -0.5015698 -0.4964108 
0.65069914 -0.52340627 -0.5501242 
0.35635665 0.04670796 -0.9331819 
-0.49348122 -0.23670717 -0.8369265 
-0.46957567 0.06277647 -0.8806576 
-0.28798944 -0.21022953 -0.9342728 
-0.57397676 -0.47256202 -0.6687569 
0.110438116 -0.31289938 -0.94334376 
0.1091334 0.06543125 -0.9918713 
-0.048753206 0.31265444 -0.948615 
0.07410735 -0.04766973 -0.9961103 
-0.24959552 -0.24721782 -0.9362614 
0.044574354 0.19379105 -0.98002964 
0.05909395 0.4825743 -0.87385917 
-0.35450065 0.3427258 -0.8699818 
0.07691716 0.7201969 -0.6894927 
0.43967038 0.21176541 -0.87283754 
0.51054513 0.5186857 -0.6857907 
0.31727904 0.8156162 -0.48384324 
0.6037872 0.42132413 -0.67670316 
-0.46277305 0.67608523 -0.57336724 
-0.37892166 0.41374576 -0.827788 
-0.29105848 0.48689297 -0.8235412 
0.1398973 0.27338478 -0.95167726 
-0.027078696 0.052286092 -0.99826497 
0.26950383 0.11090837 -0.95659137 
0.07617133 -0.36130622 -0.9293308 
0.07000835 -0.5708081 -0.81809354 
0.5692246 -0.4671124 -0.67660135 
-0.02523259 -0.19466309 -0.98054564 
0.053694256 -0.21074213 -0.976066 
0.03259383 -0.4174855 -0.90809894 
-0.014551338 -0.036030944 -0.9992448 
0.3476171 -0.30163032 -0.8877959 
0.11889102 0.08185779 -0.9895273 
0.9453141 -0.2123816 -0.24753855 
0.2700192 -0.95101506 -0.15053242 
-0.34217063 -0.6658331 -0.66301256 
-0.19018033 -0.5648802 -0.8029583 
-0.049970847 -0.54619914 -0.83616364 
0.100572035 -0.553247 -0.82692385 
-0.15289287 -0.32365584 -0.93374026 
-0.13409138 -0.5839672 -0.8006259 
0.48269582 0.046589803 -0.87454796 
0.32789552 -0.3709844 -0.868824 
0.048930097 -0.8742384 -0.48302504 
-0.071531974 -0.3565513 -0.9315334 
0.037065703 0.17137565 -0.9845083 
0.6087218 -0.23251438 -0.75854784 
0.34991756 -0.8536059 0.38589448 
-0.0854822 -0.96930665 -0.23051552 
0.61765116 -0.44514364 -0.6483474 
0.081609555 -0.27509212 -0.9579479 
-0.029733734 -0.68892735 -0.72422034 
-0.08673413 -0.3623921 -0.92798126 
-0.24580833 -0.5536339 -0.7956556 
0.032599103 -0.2648188 -0.963747 
-0.02643086 -0.22160378 -0.9747786 
-0.38797864 -0.49858144 -0.7751704 
-0.4571037 -0.41473147 -0.78679997 
-0.333626 0.12973289 -0.9337361 
-0.39000916 -0.30553067 -0.86864483 
0.37602487 -0.38307723 -0.84371626 
0.1390326 -0.23793897 -0.96127784 
0.51683664 -0.85602826 0.009777409 
-0.005363864 0.24736351 -0.96890795 
0.60511917 0.7746316 -0.18378416 
0.08120354 0.92850596 -0.3623295 
0.5623278 -0.21910262 -0.7973591 
0.1746468 -0.3663116 -0.9139553 
-0.1920493 0.03921957 -0.9806014 
-0.41607055 -0.36228707 -0.83404636 
-0.024978053 0.60801476 -0.7935327 
0.09956716 -0.10666314 -0.9892974 
-0.04997597 0.29689914 -0.95360017 
-0.17109217 0.112663865 -0.97879237 
0.09120932 -0.84923226 -0.52008206 
0.58040565 -0.79918617 -0.15630396 
0.27301285 -0.71921366 -0.63890195 
-0.08027279 -0.8870952 -0.45455283 
-0.4011957 -0.4815187 -0.77921885 
0.59310615 -0.11007725 -0.79756397 
0.39242083 -0.5349421 -0.7482266 
0.2414269 -0.55914116 -0.7931421 
0.043574393 -0.5231088 -0.85115135 
-0.5651812 -0.49308625 -0.66138965 
0.2360025 -0.19248964 -0.95249707 
0.08489631 0.8769815 -0.4729653 
-0.21794708 0.5280437 -0.8207734 
-0.19448918 0.2424689 -0.9504646 
-0.7586732 -0.43211827 -0.48753336 
-0.7561711 -0.56550664 -0.32925317 
-0.5692574 -0.3103707 -0.7613253 
0.2796778 -0.5639153 -0.7770327 
0.10589257 -0.6154273 -0.7810481 
-0.6476428 -0.280711 -0.7083503 
-0.0656017 0.00013971204 -0.9978459 
-0.2072064 0.16422926 -0.964414 
-0.52133507 -0.26598424 -0.81084037 
-0.43928632 -0.18523912 -0.87904155 
-0.41792557 -0.4618855 -0.7823044 
0.5116997 -0.12249013 -0.85038793 
0.6656774 -0.2570522 -0.7005696 
-0.018770741 -0.6711556 -0.7410789 
-0.24303816 -0.73653615 -0.6312266 
-0.3042046 -0.90750825 -0.28963485 
0.08639965 -0.807538 -0.5834532 
-0.54448736 -0.4443231 -0.71141446 
0.11908299 0.14202946 -0.9826734 
-0.13414797 -0.19719993 -0.97114193 
-0.44229978 -0.41589665 -0.79460746 
0.04481642 0.36242244 -0.93093586 
-0.5133287 0.54759896 -0.66077924 
-0.7010403 -0.19158785 -0.6869036 
-0.27781394 0.12518889 -0.9524427 
-0.15825456 -0.06952689 -0.98494756 
-0.12102243 0.23619695 -0.9641393 
-0.55721134 0.1480701 -0.8170623 
0.18105517 -0.14991151 -0.9719803 
0.58609945 -0.107621305 -0.80305994 
0.60384226 -0.038704794 -0.7961637 
0.25284138 -0.040707324 -0.9666511 
0.3592914 -0.47610945 -0.8026391 
-0.4159354 -0.42232433 -0.8053818 
-0.17197372 -0.2801512 -0.944426 
0.007181195 0.39499724 -0.9186542 
0.5792519 0.098598816 -0.8091635 
0.85532314 0.28947425 -0.42968243 
-0.13868235 -0.42192465 -0.89596146 
-0.57609755 0.0089340815 -0.8173322 
-0.63777995 -0.55154073 -0.53762406 
-0.57704794 -0.27860576 -0.76772046 
-0.13585527 0.42536673 -0.89476615 
-0.16722882 0.30235893 -0.93841016 
-0.38541958 -0.045477875 -0.92162 
0.107853584 -0.07118925 -0.9916147 
0.078035876 0.06403804 -0.9948917 
-0.06586089 -0.43551067 -0.89777106 
0.10788516 -0.66453564 -0.7394277 
0.009946506 -0.9169462 -0.39888698 
-0.33146912 -0.538729 -0.7745318 
-0.70258206 -0.37625262 -0.6039972 
-0.5912268 -0.20780648 -0.7792736 
-0.20580696 0.106722705 -0.9727558 
-0.53544575 -0.22184515 -0.8149126 
-0.30826458 -0.29184675 -0.9054272 
-0.2246527 -0.96951693 0.09781751 
-0.00094242295 -0.7830057 -0.62201387 
-0.10102853 -0.38882756 -0.91575456 
-0.33852854 -0.60683376 -0.71913236 
0.81496876 -0.31246755 -0.48804724 
0.6307465 -0.28169098 -0.7230554 
0.20752731 -0.07783735 -0.9751276 
0.04096512 0.3708177 -0.92780185 
0.23225562 0.785018 -0.5742856 
0.07112783 0.19589202 -0.97804254 
-0.5056798 -0.5330523 -0.67833865 
-0.36737093 -0.3662441 -0.85492927 
-0.07896585 -0.37713617 -0.9227854 
0.678703 -0.059642233 -0.73198706 
0.539805 -0.77990246 -0.31680098 
0.63709646 -0.4463555 -0.6283907 
0.6198642 -0.3721092 -0.6908713 
0.53607464 -0.6585378 -0.5281591 
-0.29984298 -0.75951153 -0.57726645 
-0.7029466 0.17694046 -0.6888819 
0.2629181 -0.06786116 -0.9624286 
-0.56015843 -0.08769227 -0.82373095 
0.16040765 0.50399065 -0.84868306 
0.46281448 -0.5629626 -0.6847452 
0.52650774 -0.17561203 -0.8318353 
0.73853195 -0.34136656 -0.5814117 
0.4395015 0.2507481 -0.86253345 
-0.22215773 0.34711203 -0.9111308 
0.43277588 0.16053699 -0.88709235 
0.7662307 -0.48647058 -0.41980577 
-0.19734663 -0.44922355 -0.87135094 
0.3747017 -0.38937888 -0.8414171 
0.55544716 -0.28546506 -0.7810174 
0.46229172 -0.8792627 0.11481906 
0.36707062 -0.845369 -0.38808584 
-0.362821 -0.64970446 -0.66801584 
-0.20409912 -0.12194827 -0.971325 
-0.5878244 -0.1772732 -0.7893268 
0.1842213 0.15265934 -0.9709571 
0.6432753 0.5686146 -0.5127128 
-0.13883819 -0.035563823 -0.9896763 
-0.28348026 0.0061845435 -0.95895815 
-0.49438912 0.33609545 -0.8016355 
-0.27747023 0.16100545 -0.94714713 
-0.123781376 0.048173815 -0.9911395 
0.14749964 -0.31295386 -0.9382451 
-0.49580744 -0.0006593501 -0.8684323 
-0.04115351 -0.012054655 -0.9990801 
0.08728802 -0.8096964 -0.5803211 
0.48897016 0.19398583 -0.85045743 
0.25431612 0.11253208 -0.9605519 
0.5483699 0.08013221 -0.8323878 
0.41101345 -0.671148 -0.6169508 
0.53818804 0.03557831 -0.84207356 
0.111056454 -0.89973974 -0.4220603 
0.29897425 -0.59954804 -0.7423993 
0.68827796 -0.61777025 -0.380307 
0.03344117 -0.15985975 -0.98657316 
-0.5231 -0.6046915 -0.6005952 
-0.887855 -0.44008237 -0.13431698 
-0.6972693 0.26817 -0.66475594 
-0.5831342 -0.70736414 -0.3994878 
-0.052880585 -0.75962687 -0.6482057 
0.16959518 -0.7588843 -0.62875456 
-0.22167757 -0.21405153 -0.9513365 
-0.025404217 0.06923101 -0.99727714 
-0.20710881 -0.5075543 -0.836358 
-0.4049657 -0.12051548 -0.90635467 
-0.50096273 -0.27233523 -0.82150465 
0.056158077 -0.32919025 -0.94259226 
-0.15018606 -0.026709419 -0.988297 
0.23064323 -0.15315564 -0.9609096 
0.03055676 -0.59351826 -0.8042403 
0.03783812 -0.3184479 -0.9471849 
-0.3701414 -0.7401261 -0.56143457 
-0.31905267 -0.75217056 -0.5765803 
-0.3413456 -0.48422536 -0.80561095 
0.55095714 -0.32226828 -0.7697984 
0.5203226 -0.22723126 -0.82318306 
0.37301588 -0.53438866 -0.7584775 
-0.6690582 0.0013167806 -0.7432089 
0.16144843 0.03631034 -0.98621297 
0.3968044 -0.4437481 -0.8035135 
0.65358937 -0.6796898 0.3329306 
0.08686116 -0.08192327 -0.99284637 
0.20911917 -0.1331437 -0.9687838 
0.5991689 -0.31708974 -0.7351536 
-0.01184591 0.32956457 -0.9440588 
0.09979552 -0.25766128 -0.961068 
0.6368479 0.19631064 -0.7455783 
-0.053590678 -0.25859556 -0.96449804 
-0.34755522 0.10046834 -0.93226147 
0.15333107 2.9325882e-05 -0.98817486 
0.6040469 0.27628058 -0.74752694 
-0.33399722 0.6869953 -0.6453552 
-0.92198354 -0.30409777 -0.239731 
-0.9135191 -0.37595764 -0.15536678 
-0.28658324 0.14716743 -0.9466847 
-0.6006574 0.7038942 -0.37913552 
-0.77145994 0.47519606 -0.4231294 
-0.38877404 -0.081742175 -0.9176999 
0.21234612 0.3007303 -0.9297691 
-0.34536424 0.64021623 -0.68618274 
-0.4721336 0.31648394 -0.82275623 
0.13694063 0.2517388 -0.95805794 
0.24888434 0.15442163 -0.9561437 
0.1062906 -0.69681686 -0.7093297 
-0.33564365 -0.8984742 -0.2829976 
-0.18603048 -0.3580187 -0.9149947 
0.2477177 -0.3227349 -0.9134978 
0.67989653 0.12856162 -0.72195065 
0.9712221 -0.2293047 0.064397305 
-0.23385769 -0.5612316 -0.79393303 
-0.6095114 -0.16976857 -0.77438664 
-0.5834683 -0.55320656 -0.5945816 
-0.7772018 -0.18383166 -0.60180026 
-0.74558455 -0.59298176 -0.30409935 
-0.28320062 -0.5534397 -0.78326374 
0.10575967 -0.27754924 -0.9548724 
0.060532767 0.49280286 -0.868033 
0.3168538 -0.20454995 -0.92615503 
-0.456272 -0.49217522 -0.74133635 
-0.32918507 -0.22691575 -0.9165951 
0.24525231 -0.4677844 -0.8491344 
-0.35225818 0.50016046 -0.791046 
0.46506813 0.43653804 -0.77015984 
0.59248686 0.03659006 -0.8047488 
-0.11910253 0.30372414 -0.9452864 
0.223138 0.7096957 -0.66823757 
0.6993497 -0.19047153 -0.6889345 
-0.66626096 0.25778523 -0.69974506 
-0.071125805 0.40367508 -0.9121335 
0.13469946 0.85725373 -0.49696302 
-0.19507039 0.06747415 -0.97846556 
-0.098288395 -0.03747345 -0.9944522 
-0.33698335 -0.78771096 -0.51570696 
-0.018713562 -0.41650075 -0.90894276 
0.37802503 -0.64495623 -0.6641752 
0.60014266 -0.46841362 -0.64839613 
0.44567248 -0.16331619 -0.88017267 
0.42795 0.20777103 -0.87959653 
0.16087961 -0.01867044 -0.98679745 
0.25581387 -0.29267588 -0.92135775 
0.2968039 -0.31907308 -0.90005547 
-0.003661082 -0.16518088 -0.9862565 
0.28769523 -0.7811078 -0.5541679 
0.10594925 -0.6225451 -0.7753789 
0.41753265 -0.62772 -0.65698874 
0.18523021 -0.19299088 -0.96355814 
-0.014740965 -0.47733542 -0.8785975 
-0.25924784 -0.25243828 -0.9322368 
0.25141677 -0.028032916 -0.9674729 
0.19225425 0.34222195 -0.9197405 
0.32563543 -0.29718688 -0.8975753 
0.6016408 -0.38818115 -0.69810015 
0.48861742 -0.45995718 -0.74141246 
0.5798591 -0.7295437 -0.36267003 
0.6980453 -0.18706983 -0.6911857 
0.3098588 -0.326055 -0.89312696 
0.57465136 -0.49961305 -0.6481996 
-0.26614678 -0.55502874 -0.7881048 
0.042555798 -0.112548836 -0.99273455 
-0.12903135 0.047955096 -0.99048036 
-0.27794802 0.069719136 -0.9580627 
0.14684069 -0.47714853 -0.8664682 
0.012565094 0.045194216 -0.9988992 
-0.5754457 -0.4571615 -0.67813396 
-0.81572753 -0.2908141 -0.5000158 
-0.24741355 -0.4921226 -0.83462685 
-0.45134205 -0.7667639 -0.4564687 
-0.24716118 -0.8178152 -0.5197016 
0.08922771 0.14752479 -0.98502535 
-0.21841773 -0.35616577 -0.9085372 
0.25719085 0.1624699 -0.9526051 
0.3378234 0.40585724 -0.84920865 
0.2467827 0.6867268 -0.6837431 
0.8252706 0.3091124 -0.4726288 
0.3623351 0.22955501 -0.903337 
-0.055707373 0.06612719 -0.996255 
-0.10559525 -0.613066 -0.78294307 
-0.41879186 -0.02522133 -0.907732 
-0.42058533 0.20216595 -0.88444155 
0.027959438 0.02397641 -0.99932146 