# OOMMF: rectangular mesh v1.0
# Segment count: 1
# Begin: Segment
# Begin: Header
# Desc: Time (s) :  8.05000000000002e-07
# Title: m
# meshtype: rectangular
# meshunit: m
# xbase: 2e-09
# ybase: 2e-09
# zbase: 5e-10
# xstepsize: 4e-09
# ystepsize: 4e-09
# zstepsize: 1e-09
# xmin: 0
# ymin: 0
# zmin: 0
# xmax: 1.024e-06
# ymax: 1.024e-06
# zmax: 1e-09
# xnodes: 256
# ynodes: 256
# znodes: 1
# ValueRangeMinMag: 1e-08
# ValueRangeMaxMag: 1
# valueunit: 
# valuemultiplier: 1
# End: Header
# Begin: Data Text
-0.2070976 -0.8903468 -0.40545434 
-0.81700975 -0.57304937 -0.06410538 
-0.36029825 -0.5914393 -0.721377 
-0.3720806 -0.35181302 -0.85894334 
-0.08534954 -0.6805495 -0.7277142 
-0.11933764 -0.094046175 -0.9883896 
-0.2967086 -0.15886755 -0.9416609 
-0.32602528 -0.6632897 -0.67361295 
0.98603266 0.14425905 0.08324071 
0.3446415 -0.3056615 -0.88757724 
-0.22557841 -0.30075547 -0.9266394 
0.22007777 -0.3818954 -0.89762014 
0.22530141 -0.6356364 -0.73838043 
0.57976997 -0.49654806 -0.6459929 
-0.045713108 -0.85246736 -0.5207781 
0.102452576 -0.43826765 -0.89298654 
-0.27382037 -0.26895055 -0.9234111 
-0.46341828 0.49047425 -0.7380234 
-0.71527594 0.56757516 -0.40772402 
-0.85980916 0.01807874 -0.5102954 
-0.57276225 0.13345897 -0.8087844 
-0.34791598 -0.09716147 -0.9324775 
0.30417025 -0.63233393 -0.7124846 
0.47784305 -0.87809294 -0.024876488 
-0.5237564 -0.5442129 -0.65537137 
-0.4207199 -0.79392785 -0.43894562 
-0.44105065 -0.8737206 0.20515043 
-0.14334886 -0.98769873 -0.06246832 
-0.7384489 -0.6687212 -0.086632796 
-0.20111425 -0.5315292 -0.82281816 
-0.6959112 -0.27208248 -0.66458917 
-0.8565695 -0.061671205 -0.51233333 
-0.58607703 0.061536342 -0.8079153 
-0.3821806 -0.52487236 -0.7605571 
0.31738907 0.07743313 -0.94512874 
0.50150746 0.0823158 -0.86122847 
0.104726315 -0.37051377 -0.92290413 
-0.53438526 -0.18054113 -0.82573444 
-0.5293802 -0.8352245 -0.14885075 
-0.10522675 -0.7037713 -0.7025905 
-0.40926564 -0.4235252 -0.8081634 
-0.33547103 -0.65066785 -0.681242 
0.9544139 -0.019150618 -0.29787156 
0.6753872 -0.6534558 -0.34182993 
-0.20827153 -0.9562756 -0.20532905 
-0.3720478 -0.8589293 0.35188198 
-0.6877218 -0.6541177 -0.3149108 
0.5253389 -0.14964058 -0.83763164 
0.4662709 -0.0996121 -0.8790159 
-0.12543064 -0.9217593 -0.3669154 
-0.4850548 -0.35875386 -0.7975071 
-0.6604447 -0.56852055 -0.49050713 
-0.64272934 -0.37693226 -0.66694915 
-0.8436303 -0.28031945 -0.45793977 
-0.123746656 -0.4800386 -0.8684756 
0.12098245 -0.11988266 -0.98538893 
0.24210685 -0.75991565 -0.60325176 
0.09057808 -0.6595373 -0.7461945 
0.44559628 -0.77772975 -0.4433737 
0.750171 -0.58420086 -0.30976292 
0.7565458 -0.6365399 0.14985147 
0.33718348 -0.7043927 -0.62461054 
-0.22596024 -0.9734534 0.036476936 
0.104544334 -0.99451727 0.002428504 
0.161563 -0.9403833 -0.2992936 
0.09606672 -0.97042483 -0.2214652 
0.050350785 -0.9475133 -0.31572676 
-0.56292623 -0.6003345 -0.56807804 
-0.5884399 -0.30333737 -0.7494832 
-0.17907035 -0.9675607 -0.17821382 
-0.10827236 -0.5175662 -0.8487653 
-0.042942025 -0.4580032 -0.88791287 
-0.09602535 -0.9724983 0.21219397 
0.16780461 -0.9720609 -0.16413213 
0.1674722 -0.7713596 -0.61396855 
0.12962154 -0.75250167 -0.64570844 
-0.71266574 -0.37803486 -0.5909291 
-0.9810989 0.19326632 0.00965804 
-0.78459257 -0.15933765 -0.5991878 
-0.20061906 0.58138895 -0.7885042 
0.14081872 -0.20539187 -0.96849597 
-0.58230114 -0.44455048 -0.6806617 
-0.3657164 0.017384006 -0.93056405 
0.22996216 -0.4454589 -0.86526525 
0.38854966 -0.27899042 -0.8781763 
-0.25447458 -0.6916538 -0.67591256 
0.3860889 -0.38817933 -0.83681077 
-0.5126416 -0.2559565 -0.8195639 
0.13101959 -0.94603044 -0.29641235 
-0.5105129 -0.4016354 -0.76030636 
-0.25216398 -0.8968581 -0.3633991 
0.02507906 -0.8370731 -0.546516 
0.38546318 -0.7829452 -0.48827758 
0.39393193 -0.9034034 0.16935192 
0.3861269 -0.828436 0.40570918 
0.19583414 -0.980457 -0.018791668 
-0.14071704 -0.8542002 -0.5005404 
0.21300462 -0.8345958 -0.5080147 
0.9072366 -0.12918669 -0.40029082 
0.5557681 -0.19618814 -0.8078565 
-0.03771472 -0.45394245 -0.8902325 
-0.1272707 -0.37033948 -0.92013633 
0.044940118 -0.46843663 -0.88235337 
0.110595405 -0.737494 -0.66623676 
-0.43447128 -0.68524635 -0.58452743 
-0.28217354 -0.07393192 -0.9565104 
-0.72805715 0.2663433 -0.63165975 
-0.20675099 -0.034763183 -0.9777759 
-0.09458739 -0.020467672 -0.9953062 
-0.24105261 -0.5408103 -0.80586475 
-0.24608643 -0.36576283 -0.89758515 
-0.024238989 0.17270635 -0.98467505 
-0.08877172 -0.2294009 -0.9692754 
-0.12602305 -0.8467544 -0.5168417 
0.074414924 -0.52753025 -0.8462708 
-0.09902429 -0.73596364 -0.66974 
-0.016522493 -0.08625822 -0.99613583 
0.09917741 0.31618664 -0.9434988 
0.16455883 -0.7289543 -0.6644893 
0.6331691 0.15782064 -0.757753 
0.22687744 -0.76781166 -0.5991594 
0.28289476 -0.84813064 -0.44793427 
0.43260878 -0.9014613 -0.0147415055 
0.4642727 -0.5502702 -0.69401264 
0.53352785 -0.7966122 -0.28417823 
0.40101868 -0.8825735 -0.2454547 
-0.51369184 -0.82167596 0.24691999 
-0.08255852 -0.85307795 -0.51521087 
0.2697916 -0.5544991 -0.7872378 
0.18428649 -0.7195938 -0.66949475 
-0.14497703 -0.987276 0.065329075 
0.13996695 -0.5775998 0.8042312 
0.8798368 -0.3472524 0.3245043 
-0.03421186 -0.88464975 -0.46499926 
0.23207094 -0.7786119 -0.5830152 
0.43589625 -0.8764192 -0.20465592 
0.35093826 -0.66320765 -0.6610583 
-0.14628093 -0.18973623 -0.970877 
-0.76216245 -0.64255536 0.078937426 
-0.046512805 0.04702445 -0.99781024 
-0.28969172 -0.33666027 -0.8959568 
0.40360153 -0.5681687 -0.7171403 
-0.015237861 -0.9977152 -0.065819316 
0.08360686 -0.99647415 0.007015953 
-0.42665946 -0.7150387 -0.55378824 
0.48294243 -0.8000262 -0.35598424 
-0.3350136 -0.8353091 -0.4359183 
-0.64676356 -0.6970012 0.3096551 
-0.17936091 -0.7569523 -0.6283732 
-0.24932365 -0.81064415 -0.52980554 
-0.7203465 -0.6248922 -0.30101612 
-0.7846377 -0.0071555898 -0.6199134 
-0.86593276 -0.14722644 -0.47800085 
-0.16261387 0.4598642 -0.8729729 
0.56912214 -0.13962437 -0.8103117 
0.7719061 -0.24537882 -0.58647263 
0.6259553 -0.42892304 -0.6513102 
0.72766274 0.13972062 -0.67155427 
0.5781187 -0.40744972 -0.7069396 
0.751603 -0.04002017 -0.6584007 
0.55932426 -0.23509775 -0.79491216 
0.70035464 -0.57953554 -0.41670376 
0.03458817 -0.99486405 -0.09512769 
0.6828876 -0.5241263 -0.50887746 
0.9085051 -0.09542877 -0.40683156 
0.8373586 -0.4652199 -0.28705594 
0.05702903 -0.007043906 -0.9983477 
0.273272 -0.46278167 -0.84330034 
0.012018971 -0.21538058 -0.9764562 
-0.6285184 -0.3978237 -0.66835696 
-0.59623414 -0.23194318 -0.7685748 
0.45537648 -0.6441973 -0.61452603 
0.7968518 -0.58723795 0.14205283 
0.79309976 -0.14976375 -0.5903929 
0.22576886 -0.7755472 -0.58953804 
-0.31780776 -0.49627995 -0.8079012 
0.09510239 -0.40298948 -0.91025007 
-0.32873976 -0.67547995 -0.6600432 
0.62717223 -0.31080696 -0.7141807 
0.42408073 0.5229583 -0.7393715 
0.20260622 -0.58073926 -0.7884749 
0.026193844 -0.082297824 -0.9962635 
0.23358959 0.098707646 -0.96731216 
0.14958917 0.07264535 -0.98607594 
0.48967662 0.056500603 -0.8700716 
0.31927067 -0.12785834 -0.93899864 
-0.104965374 -0.2503571 -0.96244675 
0.29472756 -0.7494775 -0.59280616 
0.27097276 -0.6054687 -0.74831915 
0.1864591 -0.90199226 0.38941377 
-0.61076605 -0.70124936 -0.36771485 
0.1159102 0.578318 -0.80753523 
0.7475971 -0.24443188 -0.61753684 
0.31966752 -0.9135303 -0.25154552 
0.3236501 -0.8571495 -0.40068135 
-0.19808728 -0.9799411 0.021836106 
-0.2689882 -0.54821104 -0.79190284 
-0.31509233 0.23722135 -0.91893584 
0.04724285 -0.30893716 -0.9499085 
-0.13871582 -0.8168097 -0.55998194 
0.5908411 -0.7173575 -0.36919516 
0.16424678 -0.8736778 -0.4579411 
-0.68305725 -0.44901854 -0.57603407 
-0.4747583 -0.17887649 -0.86174697 
-0.24824813 0.35524464 -0.9012071 
-0.10163592 0.407435 -0.90756094 
-0.242179 -0.22690465 -0.9433259 
-0.41482553 0.24597448 -0.87602305 
-0.22558604 0.062457327 -0.9722191 
-0.15191285 -0.40722913 -0.9006037 
0.01560407 -0.9985551 0.051422484 
0.11426032 -0.9642524 -0.2390856 
0.48087806 -0.8305593 -0.28094062 
-0.30469993 -0.8962595 -0.32229957 
-0.31705064 -0.6710614 -0.67019075 
-0.13513015 -0.5575509 -0.8190707 
0.1100498 -0.57583314 -0.8101268 
0.68634576 -0.72661084 0.03108508 
0.8589089 -0.485929 0.1617054 
0.27860978 -0.8695815 0.40768182 
-0.8459063 -0.47819242 0.23616667 
-0.43139136 -0.89701873 -0.096222855 
-0.27307966 -0.9619849 0.0035643787 
-0.32741523 -0.94345486 0.051886372 
-0.7449646 -0.64307135 -0.17744608 
-0.4697178 0.14388734 -0.8710118 
-0.32971656 0.042101003 -0.94314075 
-0.6825381 -0.4242694 -0.59509444 
-0.27810335 -0.7756884 -0.5665387 
-0.6257508 -0.7519609 -0.20734227 
-0.70176923 0.36574665 -0.6113504 
-0.6263731 0.22646804 -0.7459015 
0.18660629 0.4216351 -0.88735676 
0.27191043 -0.7572828 -0.5937909 
-0.031038636 -0.5761428 -0.8167596 
-0.41161284 -0.060039442 -0.90937895 
0.261394 0.6348137 -0.72710717 
0.2317085 -0.5472148 -0.80428064 
-0.0603846 -0.01532354 -0.99805754 
-0.52168036 0.16691355 -0.83665377 
-0.22211768 -0.11499493 -0.9682148 
0.32697994 -0.24007724 -0.914028 
-0.07440356 -0.32155994 -0.94396156 
0.102410525 0.2844967 -0.95319134 
-0.41794455 -0.47654828 -0.77344954 
-0.08133354 -0.15170896 -0.98507327 
0.03143884 -0.93728095 0.34715414 
0.13590293 -0.82839996 0.5434003 
-0.086824775 -0.82402945 -0.55985445 
-0.071517386 -0.61581767 -0.7846362 
0.2559494 -0.32515737 -0.9103641 
0.31890923 -0.61320496 -0.72268707 
-0.42947105 -0.3885798 -0.8152059 
-0.5321847 -0.61298865 -0.58397293 
-0.8230445 -0.53619176 -0.18734033 
-0.92631006 -0.16484717 -0.3387849 
-0.48190472 -0.7982167 -0.36141112 
-0.96346337 0.15196124 0.22055872 
-0.5453165 -0.025843786 -0.8378318 
0.037927736 -0.47709736 -0.87803173 
-0.06199198 -0.28032547 -0.9579012 
0.34836727 -0.17611504 -0.92066485 
0.70931566 0.13837536 -0.6911755 
0.1626833 -0.064998716 -0.98453516 
0.41869482 -0.8982302 -0.13370614 
-0.10871012 -0.70744854 -0.6983543 
0.29437727 -0.43269953 -0.8521227 
0.53927577 -0.55792505 -0.63079417 
0.25314254 0.03265458 -0.9668777 
-0.16382208 -0.42925185 -0.8882034 
0.31538817 -0.10746545 -0.9428582 
0.07511625 -0.7672008 -0.6369934 
0.047026478 -0.8764813 -0.47913384 
-0.45617664 0.27138075 -0.8474995 
-0.8657464 0.4223482 -0.2685245 
-0.960026 0.23866703 -0.1462469 
-0.35171366 -0.24291423 -0.9040411 
0.30391982 0.21398127 -0.928356 
0.12325512 -0.668319 -0.7335925 
-0.20473301 -0.7101141 -0.6736634 
-0.047770847 0.26866224 -0.9620492 
-0.2156161 -0.5088319 -0.8334266 
0.0015541633 -0.7374352 -0.6754161 
0.113904856 -0.8989683 -0.42294422 
-0.2591923 -0.30442593 -0.9165939 
-0.6097808 -0.3633108 -0.7043953 
-0.6423798 -0.62058085 -0.44969723 
-0.76878184 -0.33514985 -0.5446552 
0.1161002 -0.5058644 -0.85476434 
-0.120134085 -0.4729305 -0.8728714 
0.18660559 -0.14442292 -0.9717615 
0.319805 0.11586932 -0.9403719 
0.04499719 0.23883916 -0.9700161 
-0.28913093 -0.6408354 -0.7111493 
-0.08826331 -0.4744947 -0.8758221 
-0.18902147 -0.2675972 -0.94480836 
0.019150333 -0.196993 -0.98021793 
0.15262888 -0.28831872 -0.94529194 
0.03589459 -0.87124234 -0.48953897 
0.31801102 -0.5281488 -0.78735495 
0.17178729 -0.93692756 -0.3043942 
0.19561535 -0.8026843 -0.5634116 
-0.33295324 -0.21532473 -0.9180292 
0.3150472 -0.32958397 -0.89001113 
-0.08542629 -0.76183486 -0.64211375 
-0.41047323 -0.7815635 -0.46975574 
0.040894724 -0.67478544 -0.7368801 
0.27511528 -0.7419696 -0.611386 
0.07808249 -0.02868575 -0.9965341 
-0.15297507 -0.9388698 -0.3084189 
0.036194414 -0.44835332 -0.8931233 
0.3339702 -0.19551124 -0.9220842 
0.339014 -0.14126228 -0.93011534 
-0.2296088 -0.12196297 -0.9656112 
-0.054494813 -0.53966737 -0.84011275 
0.7444723 -0.35791412 -0.5636119 
0.7930694 -0.23586337 -0.56161326 
0.5709083 -0.51462024 -0.6397107 
0.5777616 -0.5154238 -0.6328743 
-0.20650251 -0.83357507 -0.5123567 
0.52238816 -0.39353555 -0.75646585 
0.36530277 -0.24801646 -0.89724123 
-0.14066672 -0.4908433 -0.85981727 
-0.4538694 -0.42675346 -0.7822303 
-0.45576388 -0.47765052 -0.7510854 
0.23127568 -0.36511308 -0.90177834 
-0.46005353 -0.41843298 -0.7831122 
0.54982775 -0.53406763 -0.64223146 
0.13784422 -0.9867083 -0.08605659 
0.4897035 -0.79221666 -0.36412004 
0.02401645 -0.778012 -0.6277902 
-0.14688966 -0.45826772 -0.87659234 
-0.10851589 -0.4488366 -0.8870006 
-0.8751244 -0.13739705 -0.46398202 
-0.8313129 0.08222512 -0.54968894 
-0.02703021 -0.34383008 -0.9386428 
-0.5268618 -0.27960125 -0.80264556 
-0.16393588 -0.27279335 -0.9480026 
0.28560913 -0.46348292 -0.8388153 
0.49606282 -0.67043346 -0.5517614 
0.124824 -0.17526957 -0.9765755 
-0.600685 -0.6369585 -0.48317853 
-0.08542262 -0.13134295 -0.98764974 
-0.37259743 -0.35512406 -0.85735524 
0.21090361 -0.48041338 -0.85130656 
-0.5560826 -0.5656999 -0.6088973 
-0.3576136 -0.5911949 -0.72291154 
0.023565922 -0.7296865 -0.6833757 
0.2790342 -0.8922383 -0.35503644 
-0.13509814 -0.92547774 -0.35389176 
0.62977684 -0.752986 -0.1907698 
0.1467608 -0.9345126 -0.32426447 
0.17980188 0.4936019 -0.85089874 
0.2584458 0.0062860767 -0.9660054 
0.6682939 -0.4534034 -0.58975303 
0.35120556 0.08497776 -0.93243414 
0.07819625 -0.22742574 -0.97065073 
-0.06483686 -0.3952294 -0.9162915 
-0.42601702 -0.42072213 -0.8009384 
-0.31935817 -0.612152 -0.7233812 
0.18958142 -0.42873177 -0.8833165 
0.14760266 -0.4588356 -0.87617546 
0.09205453 -0.49327126 -0.86499107 
-0.01582281 -0.3988175 -0.9168938 
0.16084298 0.1448589 -0.9762918 
-0.0056113075 0.03726136 -0.9992899 
-0.9338889 0.052940667 -0.35362262 
-0.851801 0.025469514 -0.5232461 
-0.8692533 -0.3516156 -0.34751308 
-0.22710983 -0.47954705 -0.84761775 
-0.4493975 -0.21770388 -0.86639893 
-0.15712856 -0.29707268 -0.9418378 
0.38547835 -0.079109214 -0.91931945 
0.44753188 0.21357721 -0.8683893 
0.21344537 -0.15799093 -0.9640955 
0.8544639 -0.20521377 -0.47726178 
0.78553873 -0.46220297 -0.41145766 
0.22427517 -0.6021442 -0.76623964 
0.18185687 -0.7882177 -0.5879123 
-0.00364551 -0.5189397 -0.8548031 
0.42263594 -0.4413043 -0.7915993 
0.09202953 -0.8730683 -0.47883433 
-0.1511979 -0.8504034 -0.50393784 
-0.42751685 -0.5404315 -0.7246814 
-0.3431974 -0.40869454 -0.8456858 
0.27912053 -0.7232163 -0.63170403 
0.0038810656 -0.82157856 -0.57008207 
0.08718507 -0.78074086 -0.6187427 
0.24784635 -0.90370077 -0.34913772 
-0.13882108 -0.8106173 -0.56888336 
-0.046920523 -0.93465084 -0.3524577 
-0.16246298 -0.4867265 -0.85831416 
0.33857504 -0.457281 -0.822351 
0.34500173 -0.112769276 -0.9318031 
-0.2425533 -0.3977411 -0.8848559 
-0.2239684 -0.4092315 -0.8845156 
-0.21282929 -0.51039624 -0.83318627 
0.18357068 -0.20887624 -0.9605584 
-0.33743846 -0.81248176 -0.47540364 
-0.35933778 -0.89191765 -0.27451658 
-0.6724615 -0.07670187 -0.736147 
-0.737643 -0.48403415 -0.47073755 
-0.05523323 -0.36648428 -0.9287834 
-0.25964564 -0.8703663 -0.41838595 
0.09067347 -0.7684735 -0.6334248 
0.3155464 -0.7322672 -0.60350245 
-0.18163227 -0.26562244 -0.94681287 
-0.63155043 -0.75952107 -0.15579474 
-0.30578354 -0.020302081 -0.9518846 
-0.35369328 -0.37768406 -0.85571945 
0.4300967 -0.17154644 -0.88633436 
0.53731376 -0.21548219 -0.8153904 
0.23949514 -0.27896693 -0.9299568 
0.74265975 0.007573338 -0.6696261 
0.7456247 -0.5053812 -0.43431988 
0.61068135 -0.57290465 -0.54667044 
0.45193225 -0.106378086 -0.88568676 
0.6213026 -0.11285164 -0.7754016 
0.69549316 -0.63809663 -0.33033624 
0.079356134 -0.96823806 -0.23710291 
-0.026503975 -0.6284729 -0.77737975 
-0.27683398 0.28926262 -0.91634613 
0.22872658 -0.44938478 -0.8635609 
0.36905286 -0.09491365 -0.92454934 
-0.4482274 -0.75934696 -0.47168273 
-0.7508656 -0.40224028 -0.52383554 
0.04938701 0.031724993 -0.99827576 
-0.34576106 -0.23024185 -0.9096362 
-0.16075245 -0.59007365 -0.79118377 
-0.042545337 -0.22127306 -0.97428346 
-0.3071781 -0.7513566 -0.58404195 
-0.2791207 -0.92558855 -0.2556901 
0.27345908 -0.18621033 -0.94368744 
0.30601913 -0.13563663 -0.94231373 
0.6211272 -0.3599034 -0.69618285 
0.28349054 -0.33490393 -0.89859474 
0.5241587 0.09163546 -0.8466762 
0.63321155 -0.34242016 -0.6941121 
0.35930175 0.37775743 -0.8533473 
0.40354675 -0.2476372 -0.88080984 
-0.47176462 -0.2270556 -0.8519882 
-0.013531645 -0.10485276 -0.99439573 
0.037550192 0.08051396 -0.996046 
0.8317601 -0.19327946 -0.5204019 
0.12701832 -0.8981398 -0.4209648 
-0.75875086 -0.6338637 -0.1500471 
-0.91834533 0.02603774 -0.39492258 
-0.8105316 0.30780795 -0.49828988 
0.80195636 -0.52016664 -0.29375646 
-0.05348034 -0.6372195 -0.7688246 
0.14505212 -0.2838045 -0.94784755 
-0.5907411 -0.8013007 0.09456361 
-0.45693916 -0.8258679 -0.33037695 
-0.06832116 -0.5682118 -0.82004124 
-0.6252427 -0.763977 -0.15940762 
-0.16518186 -0.82576185 -0.5392888 
0.32692957 -0.75139695 -0.57316643 
0.08026199 -0.022196265 -0.99652666 
0.11942788 -0.2208371 -0.9679711 
-0.26961714 0.23201478 -0.9345993 
-0.39454788 -0.18619156 -0.8998137 
-0.7204212 0.5067886 -0.4734539 
-0.58067423 0.0969016 -0.8083487 
-0.29392752 -0.07464117 -0.95290893 
-0.55200565 0.21942413 -0.8044518 
-0.077202536 -0.3247619 -0.94263965 
-0.12387005 -0.64655185 -0.75274634 
0.4254323 -0.086207874 -0.9008749 
0.30002183 -0.27636802 -0.91302127 
-0.07788638 -0.5984805 -0.79734236 
-0.514285 -0.71984243 -0.46619514 
-0.35811874 -0.7396588 -0.56978583 
0.71236914 -0.69226295 -0.1153352 
0.7539201 -0.65676415 0.016288914 
0.6159636 -0.713656 -0.3335926 
0.21554516 -0.8992107 -0.3807368 
0.35122418 -0.9104083 -0.21862839 
-0.07744659 -0.98163867 -0.17432076 
0.46317628 -0.86288667 -0.20222344 
-0.35862166 -0.39776736 -0.84449494 
-0.6591842 -0.4024425 -0.6352293 
-0.33969092 -0.028369231 -0.9401092 
-0.19290444 -0.43152288 -0.8812355 
-0.6650347 -0.5211159 -0.53494596 
0.13245952 -0.91659886 -0.37722838 
-0.17183162 -0.6087917 -0.7744977 
-0.32333863 -0.019536363 -0.9460817 
-0.14929841 -0.27506158 -0.9497637 
0.6189316 -0.48573947 -0.6172365 
0.61740595 0.13205715 -0.7754811 
0.47656146 -0.3586384 -0.80266285 
0.5456814 0.04045073 -0.8370159 
0.46067712 -0.26939142 -0.8456978 
0.041171607 0.07046733 -0.9966641 
-0.16595651 0.4919133 -0.85468113 
-0.16619457 0.38982284 -0.9057691 
0.26830903 -0.4109842 -0.8712648 
0.60397166 0.041337736 -0.7959331 
0.41073468 -0.65483475 -0.63441986 
0.8378467 -0.18007068 -0.5153519 
0.4864382 -0.39560395 -0.77902216 
0.44512546 -0.49961054 -0.743137 
0.4538949 -0.73763794 -0.4998697 
0.08101175 -0.34878722 -0.93369406 
-0.12997276 -0.7448805 -0.6544159 
0.31355557 -0.7452073 -0.5885142 
0.217499 -0.42193735 -0.8801495 
0.15159726 -0.4035791 -0.90229833 
0.080350086 0.10237133 -0.9914959 
-0.45122236 -0.7122261 -0.5377103 
-0.2645583 -0.5782194 -0.7717975 
-0.5773688 -0.33532083 -0.7444496 
-0.8099723 -0.41425368 -0.41513735 
-0.96833867 -0.20178993 -0.14697294 
-0.8932612 -0.028632889 -0.44862542 
-0.37513924 -0.25021413 -0.8925601 
0.010602375 -0.6312667 -0.7754934 
0.41000926 -0.12504762 -0.9034686 
0.31860638 -0.19279929 -0.9280725 
0.17904764 -0.118219964 -0.97671187 
-0.18966877 0.31814405 -0.9288758 
-0.50294626 -0.13303463 -0.85401803 
0.39062354 -0.17969957 -0.9028408 
0.6230301 -0.36382306 -0.692435 
0.47113094 -0.18703894 -0.86200464 
0.5346174 -0.0338014 -0.8444179 
0.13227563 -0.21549731 -0.967504 
0.094338745 -0.39871946 -0.9122077 
0.29734483 -0.34163323 -0.89155644 
0.18269499 0.4779001 -0.85920554 
-0.6007903 0.49030304 -0.63139045 
-0.8370839 0.4873679 -0.24852182 
-0.41276535 -0.044355884 -0.9097567 
0.044370297 -0.04442447 -0.9980269 
0.26782718 0.38932616 -0.8813023 
-0.19332446 0.3385287 -0.92088217 
0.1898166 0.2738326 -0.94286025 
-0.46542493 -0.38122767 -0.79877734 
-0.4289272 -0.4640279 -0.7750481 
-0.2213948 -0.19421892 -0.9556482 
0.1083289 -0.21571308 -0.9704292 
0.15700443 -0.4528795 -0.8776389 
-0.5964099 0.10824481 -0.7953479 
-0.36354217 -0.2058434 -0.90855134 
0.031113662 0.060865115 -0.99766093 
0.2711202 0.44663954 -0.85264707 
0.48109105 -0.07793458 -0.87319964 
0.6693147 -0.6622738 -0.3367661 
-0.020904107 -0.477735 -0.8782553 
-0.35547933 -0.14062308 -0.9240453 
0.1387724 -0.61214876 -0.7784705 
-0.20579518 -0.30217895 -0.9307719 
-0.509981 -0.6715247 -0.537563 
-0.08773923 -0.89009696 -0.4472463 
-0.0020768514 -0.76950085 -0.63864255 
-0.5123444 -0.6128938 -0.6015517 
0.4347538 0.013650608 -0.9004459 
0.35407385 -0.3771684 -0.8557895 
-0.433833 -0.4412302 -0.78556025 
-0.28598043 -0.13435094 -0.9487703 
-0.57878655 0.13013387 -0.80502886 
-0.25681892 -0.7412696 -0.6201319 
0.13691296 -0.22780724 -0.9640326 
0.24415915 -0.25851843 -0.9346415 
0.15204442 -0.05009443 -0.9871034 
0.6507283 -0.7269718 -0.21923698 
0.3210841 0.11185973 -0.94042146 
0.046112955 -0.60983497 -0.7911858 
-0.39213508 0.13101676 -0.91052985 
-0.40637103 -0.046749406 -0.9125114 
0.019489927 -0.65175414 -0.75817984 
0.14550947 -0.010210652 -0.9893042 
0.44848448 0.15892683 -0.87954766 
0.6299303 0.18093358 -0.75528204 
-0.28431603 -0.5048037 -0.8150691 
0.4207646 -0.025021471 -0.9068248 
-0.2794066 -0.22884749 -0.9325025 
0.39254922 0.08372042 -0.91591275 
0.33901733 -0.20543948 -0.91807514 
-0.22863343 -0.60674334 -0.76130766 
-0.5888174 -0.6845859 -0.42969322 
-0.27363327 0.0010501615 -0.9618336 
-0.02499036 0.028533237 -0.99928045 
0.039665714 -0.7360319 -0.67578375 
0.36469957 -0.26016906 -0.8940394 
0.036722332 -0.27507123 -0.96072227 
0.12926322 -0.5586481 -0.81926996 
-0.078364275 -0.6090164 -0.78927696 
-0.8821014 0.056122795 -0.4677045 
-0.65897125 -0.019142367 -0.7519246 
-0.76807344 -0.35495794 -0.53298044 
-0.24111268 -0.20143473 -0.9493623 
0.20144525 -0.26998225 -0.941557 
0.1396816 -0.42833507 -0.8927588 
0.45303276 -0.30851835 -0.83640766 
-0.15399818 -0.5227567 -0.83845687 
-0.51158386 -0.07401483 -0.8560397 
-0.20340526 -0.5155381 -0.8323743 
0.42842373 -0.10115933 -0.8978976 
0.43615174 0.39624882 -0.8079349 
-0.5217892 0.2381343 -0.8191631 
0.143356 -0.228062 -0.96303517 
0.29213208 0.3686681 -0.882464 
0.09983103 -0.6928482 -0.71413946 
-0.6236198 -0.659364 -0.41992566 
0.41094178 -0.5974192 -0.6886344 
0.49097982 -0.61002094 -0.62194324 
0.38918868 -0.52550113 -0.75655854 
0.29498678 0.090271346 -0.9512276 
0.7129695 -0.3580172 -0.6029082 
0.5946298 -0.38313314 -0.7068412 
0.25136876 -0.08572923 -0.9640873 
-0.0030558582 -0.51961255 -0.8543965 
0.27234748 -0.69395524 -0.6665231 
-0.21459161 -0.17292477 -0.96127385 
0.13227898 -0.22284125 -0.9658386 
-0.3706553 0.10595512 -0.922707 
0.24272391 0.0015471908 -0.97009414 
0.13763316 -0.24061377 -0.9608133 
-0.16033953 0.38691118 -0.90806997 
0.6759159 -0.6697857 -0.30744907 
0.3396629 -0.59526277 -0.72821116 
0.2317524 -0.41912404 -0.877853 
-0.3882578 0.7483867 -0.53774846 
-0.6600968 0.15863088 -0.7342401 
-0.5462046 -0.6670945 -0.5066019 
-0.19897658 -0.45665398 -0.86710757 
-0.7046647 -0.14258885 -0.6950656 
-0.18529132 0.049176876 -0.9814524 
-0.5230754 0.08259336 -0.8482751 
0.18991864 0.24243505 -0.95139706 
0.5137753 -0.13142689 -0.8477983 
0.44522557 -0.016276538 -0.8952705 
0.12159722 -0.32391158 -0.9382406 
-0.06847593 0.17815936 -0.98161626 
-0.26735896 -0.17645486 -0.94730294 
-0.079949304 -0.35809392 -0.9302563 
0.08694959 -0.59782964 -0.79689366 
0.51572007 -0.8034079 -0.29760483 
-0.13363093 -0.533836 -0.83496225 
0.04934581 -0.36810017 -0.92847574 
0.31128845 -0.74478245 -0.590253 
0.14237204 -0.0432793 -0.98886657 
0.28918847 -0.58633286 -0.7566927 
-0.2103421 -0.2500787 -0.9451015 
0.23782441 -0.007979565 -0.9712754 
0.39915195 0.29455656 -0.8682824 
-0.18827477 -0.017706053 -0.9819568 
0.06950408 0.08598536 -0.9938691 
0.13347316 0.09000502 -0.98695695 
0.5748319 -0.11088024 -0.8107244 
0.1889644 -0.27541336 -0.9425709 
0.3706324 -0.3310666 -0.86777097 
0.6528311 0.26286918 -0.7104305 
-0.6530266 -0.21077877 -0.7274123 
-0.4400605 -0.6720948 -0.5955128 
-0.14593905 -0.68969613 -0.70923984 
-0.37654594 -0.28651646 -0.8809777 
-0.047577634 -0.6306128 -0.774638 
-0.09618953 -0.017832257 -0.9952033 
0.58013105 -0.46020344 -0.6720572 
-0.2640821 -0.29965895 -0.9167689 
-0.80279315 -0.14626102 -0.57804066 
-0.08983219 0.20292282 -0.9750654 
-0.64127004 -0.08365485 -0.7627415 
-0.17138967 -0.2677583 -0.9481198 
-0.09169288 -0.537054 -0.8385496 
-0.31566253 -0.56311244 -0.7637157 
0.096397966 -0.51547635 -0.85146433 
0.40577474 -0.6898631 -0.5995296 
-0.47221863 -0.257833 -0.8429305 
0.48325023 -0.14347744 -0.86364543 
0.40618747 -0.6043377 -0.6854107 
0.25461283 -0.108658016 -0.9609192 
0.55760574 0.0038917854 -0.8300968 
0.24849907 -0.110811 -0.9622729 
-0.3925425 0.20559373 -0.8964607 
-0.21747781 -0.16613513 -0.9618225 
-0.552104 0.003472807 -0.833768 
-0.3328263 -0.16399303 -0.9286189 
-0.10647152 -0.076040655 -0.99140394 
-0.6031449 0.13164623 -0.7866929 
0.037346967 -0.42594925 -0.90397596 
-0.3415796 -0.029206943 -0.93939894 
-0.67497635 -0.052421264 -0.7359749 
-0.44276413 0.4492599 -0.7759675 
-0.27668443 -0.12705313 -0.95252466 
-0.04251456 -0.19541535 -0.9797987 
0.13003528 -0.054121483 -0.99003124 
0.14924683 -0.3636058 -0.91951966 
0.3872987 -0.114378944 -0.91483176 
0.2613513 0.006340252 -0.9652229 
0.49391177 0.35424867 -0.7940776 
0.41246518 0.21703821 -0.88474125 
-0.27181545 0.53000057 -0.80325335 
0.29833284 -0.42329362 -0.85546494 
0.7962377 0.16172215 -0.58296794 
0.7954055 0.57523143 -0.19088985 
-0.2143823 0.48301205 -0.848964 
0.65432495 0.3327166 -0.6790866 
0.3640876 -0.1482246 -0.91949433 
-0.39473313 -0.73171055 -0.55568475 
-0.50290424 -0.48297414 -0.7168147 
-0.22712973 -0.30511197 -0.92483455 
0.6719296 0.17427944 -0.7198176 
0.4637214 -0.16962183 -0.86959237 
0.33616027 0.11187119 -0.93513703 
0.05546395 -0.5441525 -0.83715105 
0.2795949 -0.7488631 -0.60085845 
0.62177926 -0.34941334 -0.70092857 
-0.27811787 -0.8901085 -0.36105052 
-0.27225775 -0.1435644 -0.95145416 
0.026607854 -0.17420492 -0.98434985 
0.18587191 -0.038721334 -0.98181075 
-0.37700552 0.27536365 -0.8843312 
-0.24866514 -0.34643802 -0.90451443 
-0.4799016 -0.28526592 -0.82964927 
-0.76560026 -0.06891975 -0.6396143 
-0.133973 0.24028312 -0.96141326 
-0.11639743 -0.16850607 -0.9788041 
-0.21358489 0.018221084 -0.97675455 
-0.14597946 0.2666304 -0.9526796 
0.15227199 -0.44555956 -0.88220745 
0.25105783 -0.3708072 -0.89413196 
0.13183221 -0.115568355 -0.98451227 
0.64558816 -0.7580006 -0.09301156 
-0.10912091 -0.9360795 -0.3344365 
-0.121483855 -0.93455 -0.3344519 
-0.2738148 -0.8880341 0.36935198 
0.83872503 -0.5060039 -0.20124748 
-0.027062008 -0.6607188 -0.7501455 
-0.15754466 -0.7594901 -0.6311534 
0.30015025 -0.8457978 -0.4410622 
0.563344 -0.58270377 -0.5857473 
0.07712344 -0.92991 -0.35961002 
-0.30748087 -0.2456716 -0.9192937 
-0.061603606 -0.25852418 -0.9640385 
-0.08186911 -0.2162477 -0.9729001 
-0.03169428 -0.53624845 -0.84346503 
-0.71516514 -0.1607185 -0.68022686 
-0.1654475 -0.7745496 -0.61049175 
-0.24020469 -0.3723539 -0.8964676 
-0.50605994 -0.4179816 -0.75444996 
-0.18681943 -0.23781806 -0.9531743 
-0.03920701 -0.6282202 -0.77704716 
-0.3020206 -0.24837436 -0.92037696 
0.27231914 -0.41386768 -0.86865187 
0.80139774 -0.32064244 -0.5049259 
0.3563123 -0.32747498 -0.875101 
-0.5723377 0.5853094 -0.57431924 
0.16185941 0.2541902 -0.953514 
0.056769136 0.56139964 -0.82559544 
-0.068329796 0.19417182 -0.97858495 
0.34265476 0.028271064 -0.939036 
0.73919034 -0.4756142 -0.47685313 
0.56148714 -0.5722544 -0.5977099 
0.16821486 -0.58045405 -0.7967289 
-0.112250015 0.4290052 -0.8963005 
0.25747836 -0.1446817 -0.95539117 
-0.046560243 0.045080278 -0.99789774 
-0.0948769 0.22962056 -0.9686448 
0.023940517 -0.55550855 -0.8311662 
0.29774043 -0.26256114 -0.9178303 
0.77492446 -0.2780858 -0.5675917 
0.3344371 -0.59204566 -0.73323524 
0.17039528 -0.48437646 -0.85810554 
0.2009474 -0.333501 -0.9210849 
0.0812991 -0.42358115 -0.9022026 
-0.20638143 -0.35177076 -0.91305214 
-0.4919866 -0.4009486 -0.7727803 
0.13095564 -0.6501833 -0.7484066 
0.41804266 -0.5383925 -0.73169255 
-0.20469368 -0.5461534 -0.81229115 
-0.47227654 -0.2739287 -0.8378054 
-0.17385258 -0.35250446 -0.91951936 
0.009694973 0.016661376 -0.9998143 
0.08196384 0.43254676 -0.89787817 
0.15098988 0.52735347 -0.8361222 
0.12564246 -0.5082191 -0.8520137 
0.37681383 0.18085396 -0.90846205 
0.528877 0.49788597 -0.6873126 
0.9399186 0.307452 -0.14841336 
0.300847 0.13006598 -0.9447613 
0.0014209619 0.007348165 -0.99997205 
0.093984485 -0.13769 -0.98600626 
0.15551971 0.45021105 -0.8792745 
-0.67446697 0.5311653 -0.5127941 
-0.9485658 -0.19221789 -0.25154597 
-0.66880965 0.09959881 -0.7367318 
0.2094374 -0.10301547 -0.97238046 
0.09945934 0.4865873 -0.8679521 
-0.3868063 0.68357337 -0.6189575 
-0.2400701 -0.36915365 -0.8978263 
-0.49762225 0.2726651 -0.82342327 
-0.122859016 -0.20432372 -0.97116303 
-0.20223662 -0.5553199 -0.80667233 
-0.19991654 0.33112663 -0.92216516 
-0.3782611 0.25733262 -0.8892123 
0.26321077 0.3839074 -0.8850623 
-0.17587546 0.3235067 -0.92973727 
-0.14731075 0.5539649 -0.8194037 
0.12903811 0.7973381 -0.589577 
0.37814447 0.22402969 -0.8982303 
0.3713028 -0.25293854 -0.893396 
-0.07222199 -0.15023404 -0.986009 
-0.4361067 -0.14311294 -0.8884422 
-0.12368307 -0.2090194 -0.9700585 
-0.25185594 0.07976184 -0.9644723 
-0.099363215 -0.028568715 -0.99464107 
0.020185474 -0.5319784 -0.8465174 
0.13955647 -0.059841085 -0.98840433 
0.28856006 0.15387069 -0.9450169 
-0.33200893 -0.70577425 -0.62582177 
-0.19022244 -0.371276 -0.90882874 
-0.23925035 -0.40440422 -0.88273245 
0.018717518 -0.87139547 -0.4902242 
-0.45967287 -0.2179207 -0.8609364 
-0.4219041 -0.11952692 -0.8987271 
-0.8056439 0.11487362 -0.58115566 
-0.16821921 0.023314899 -0.98547393 
0.033215668 0.10323537 -0.9941022 
0.4294797 -0.4437111 -0.78655434 
0.58787704 -0.03428701 -0.8082235 
-0.08712186 -0.37430272 -0.92320496 
-0.5231189 -0.34857678 -0.77771515 
-0.7493221 -0.17082202 -0.639794 
0.03561577 -0.6752269 -0.73674977 
0.5585359 0.024919719 -0.82910603 
0.10070143 0.25544527 -0.96156484 
0.4091957 -0.23690781 -0.8811547 
0.27456814 -0.3052166 -0.91184163 
0.032297302 -0.36442512 -0.93067247 
0.004882336 -0.15134935 -0.9884683 
0.3443789 -0.54855776 -0.76189744 
0.6158062 -0.20905015 -0.75965834 
-0.09818735 -0.37947017 -0.91997916 
-0.22526714 -0.34286448 -0.9119752 