# OOMMF: rectangular mesh v1.0
# Segment count: 1
# Begin: Segment
# Begin: Header
# Desc: Time (s) :  8.140000000000021e-07
# Title: m
# meshtype: rectangular
# meshunit: m
# xbase: 2e-09
# ybase: 2e-09
# zbase: 5e-10
# xstepsize: 4e-09
# ystepsize: 4e-09
# zstepsize: 1e-09
# xmin: 0
# ymin: 0
# zmin: 0
# xmax: 1.024e-06
# ymax: 1.024e-06
# zmax: 1e-09
# xnodes: 256
# ynodes: 256
# znodes: 1
# ValueRangeMinMag: 1e-08
# ValueRangeMaxMag: 1
# valueunit: 
# valuemultiplier: 1
# End: Header
# Begin: Data Text
0.45994493 0.25169623 -0.85152787 
0.3231286 -0.14239483 -0.93558097 
-0.12695655 0.32224816 -0.9381035 
0.10521925 0.3855255 -0.91667825 
-0.37774056 -0.038276855 -0.92512 
-0.37929058 -0.59212106 -0.7110073 
0.1412737 -0.29642403 -0.94455 
0.39035347 -0.8085119 -0.4403782 
0.34670153 -0.93797475 -0.0012555352 
0.92454886 -0.3725424 -0.08013444 
-0.42776605 -0.83855414 -0.33740637 
0.17064942 -0.97128636 0.1657763 
0.17617467 -0.6389453 -0.74880666 
0.55823135 -0.78299946 0.27438974 
0.46728712 -0.83562976 -0.288731 
0.29372644 -0.3829056 -0.87584704 
0.14914003 -0.109188266 -0.98276913 
-0.4363994 -0.15227611 -0.88677365 
0.7197123 0.3570104 -0.59544754 
0.52429724 0.33309028 -0.7836857 
0.60209423 -0.5302404 -0.59693193 
0.426071 0.30108386 -0.853119 
0.23287371 -0.38055694 -0.894956 
-0.23852384 0.27804488 -0.93048245 
-0.4573446 0.18379585 -0.8700891 
-0.6105594 -0.057193935 -0.78990257 
-0.7823291 -0.28236094 -0.5551879 
-0.9077789 -0.20801032 -0.36423787 
-0.27867562 -0.958091 -0.06634438 
0.42170998 -0.24328561 -0.8734832 
-0.5776414 -0.39458266 -0.7145873 
-0.28767276 -0.056093313 -0.9560847 
0.36349842 -0.6628466 -0.65460163 
-0.17838895 0.42482167 -0.887527 
-0.505183 -0.8281731 -0.24273343 
-0.9330126 -0.16242723 -0.32109946 
-0.22619827 -0.4423768 -0.8678348 
0.40107197 -0.16906874 -0.9003095 
-0.19209759 -0.53902054 -0.82009476 
0.0060700187 -0.9407166 -0.3391395 
-0.12201771 -0.9916497 0.041746065 
-0.33468595 -0.9418813 0.029069204 
-0.5256444 -0.84858245 0.060047723 
-0.1338492 -0.9320743 0.33663312 
0.16115052 -0.9161762 -0.36694944 
-0.52575076 -0.5533987 -0.6460155 
-0.063311584 -0.043199856 -0.99705845 
0.4924763 -0.6593938 -0.56803787 
0.32139182 -0.35019863 -0.87981147 
0.36438212 -0.060283773 -0.9292963 
-0.16694272 0.35553628 -0.9196326 
0.6182232 0.22262809 -0.7538148 
0.83842564 -0.4254155 0.34068176 
-0.06710747 -0.99407464 -0.08551135 
0.26182163 -0.3575294 -0.89644986 
-0.1579526 -0.5236394 -0.8371695 
0.09919396 -0.5439135 -0.8332579 
0.35231233 -0.575393 -0.738105 
0.081268966 -0.8345526 -0.54490113 
-0.012650612 -0.9911883 -0.13185535 
-0.9215391 -0.3806287 0.07672958 
-0.7038874 -0.18928526 -0.6846267 
-0.24017069 -0.59703904 -0.76541656 
0.14455281 -0.17038688 -0.97471684 
-0.095789015 0.3879018 -0.9167098 
0.5068544 -0.18758261 -0.8413747 
0.32415548 0.41501158 -0.850111 
0.71591836 -0.23537503 -0.6573124 
0.19149058 -0.85563034 0.480862 
-0.3514087 -0.5810285 0.7341103 
-0.4214761 -0.4337632 0.79637134 
-0.62017715 -0.77470905 0.12331303 
-0.052989412 -0.96363777 -0.2619052 
0.10204599 -0.62251216 -0.77592874 
-0.2690765 -0.7739238 -0.57327104 
-0.29471117 -0.9182037 -0.2646647 
0.20440139 -0.55784297 -0.8043825 
0.78741854 -0.13447495 -0.60157186 
0.8221893 -0.55238754 -0.13737884 
0.4885682 -0.59787863 0.6354859 
-0.48848864 -0.38499632 0.7830433 
-0.5433282 -0.6950447 -0.47085813 
0.26955372 -0.3128275 -0.91075784 
0.47486925 -0.8784661 -0.05288147 
-0.46822444 -0.0967673 -0.8782949 
-0.79412216 -0.530291 0.29691982 
-0.6263541 -0.49458674 -0.6025483 
-0.27499184 0.26444247 -0.9243645 
-0.8272461 0.536429 -0.1670568 
-0.76752436 -0.024274284 -0.64056 
-0.6402618 -0.55159235 -0.53461266 
-0.5566619 -0.362469 -0.7474917 
0.21921927 0.06729735 -0.973352 
0.14276187 -0.96324176 0.2275616 
-0.5414736 -0.78469235 0.30176845 
-0.9846655 0.003943898 -0.17440866 
-0.9727311 -0.014263099 -0.23149692 
-0.053266745 -0.96531236 -0.25560656 
-0.22428489 -0.82304025 -0.5218249 
-0.34293106 -0.5385718 -0.76963544 
-0.2837859 -0.34464502 -0.89481026 
-0.4697352 -0.041219685 -0.8818445 
0.36548597 0.5823204 -0.72617006 
0.571013 0.071508266 -0.81782085 
0.54893756 -0.18685196 -0.8147109 
0.109654486 -0.22941673 -0.96713173 
0.13874872 -0.31492156 -0.9389214 
0.16328546 -0.3792124 -0.9107886 
-0.34312102 -0.16233195 -0.92515755 
-0.79811424 -0.015228028 -0.60231364 
-0.28680822 -0.13319512 -0.94868344 
0.28872424 0.46407264 -0.83742166 
0.34454864 -0.1711982 -0.92302626 
0.14381583 -0.62949115 -0.76358235 
0.5110999 -0.7777267 -0.36594835 
0.46839172 0.35088548 -0.81085676 
-0.4002955 -0.24827467 -0.8821129 
0.66511434 -0.46574035 -0.58370274 
-0.8298981 -0.042881466 -0.5562646 
-0.38817725 -0.7934622 -0.4687604 
0.120445885 -0.5260997 -0.8418504 
-0.011641257 -0.3439529 -0.9389148 
-0.22340365 -0.33184686 -0.916498 
-0.34130055 -0.5851317 -0.7356187 
-0.47316408 -0.5536538 -0.68526155 
-0.6985375 -0.5061325 -0.5058412 
-0.50082487 -0.6714898 -0.5461466 
0.15526102 -0.79722166 -0.58337957 
-0.29854247 -0.42980227 -0.8521399 
-0.69572866 -0.44151247 -0.56659365 
-0.014120835 -0.9971697 0.073846325 
0.19548906 -0.92385983 -0.32903966 
-0.11737931 -0.8750939 -0.4695027 
0.075149454 -0.5752882 -0.8144913 
0.11561277 -0.34088123 -0.9329704 
0.03810187 -0.9874226 -0.15344414 
-0.11685866 -0.95574254 -0.2700003 
0.28527924 -0.8282961 -0.48222542 
-0.19288689 -0.9633708 -0.18631019 
-0.31036457 -0.86652154 -0.39091453 
-0.9485804 -0.31437838 0.03690076 
-0.3776925 -0.7873498 -0.48726636 
-0.2864989 -0.16439295 -0.94387144 
0.2766561 -0.69686556 -0.6616947 
0.42502525 -0.7883333 -0.44484195 
0.31387118 -0.78406394 -0.53547066 
0.58754045 -0.8072452 0.056138508 
-0.2928269 -0.8395992 -0.4575213 
-0.2480501 -0.5555747 -0.7936044 
0.8120015 0.06973957 0.5794739 
0.683629 -0.722529 -0.10297281 
0.69406575 -0.5249068 -0.49269226 
-0.42641994 0.030486595 -0.9040115 
-0.7742804 -0.25257167 -0.58025634 
-0.0029278486 -0.21289739 -0.9770703 
-0.084237576 0.19320223 -0.9775362 
0.10594928 0.22435255 -0.96873146 
0.45416608 -0.31452066 -0.83355254 
0.4371668 -0.38558894 -0.8125309 
-0.22957695 -0.6074268 -0.76047826 
0.043102775 -0.8542125 0.51813424 
-0.67106205 -0.73090976 -0.12428484 
-0.7447846 -0.41626206 0.52155715 
0.111258805 -0.96163285 0.25076616 
-0.3474705 -0.3717239 -0.8608634 
0.48639274 -0.5664485 -0.66525054 
0.3088095 -0.6928242 -0.6516375 
0.032705624 -0.064160034 -0.9974036 
0.011828522 -0.5813488 -0.8135686 
0.16407794 -0.17309655 -0.9711416 
0.25024307 -0.2664411 -0.9307994 
0.044715833 -0.8482286 -0.5277393 
-0.19574425 -0.90017194 -0.3890692 
-0.1333556 -0.9830278 -0.12598693 
-0.6780747 0.23488376 -0.69645125 
-0.05467372 -0.022193212 -0.9982576 
-0.38536263 0.3050858 -0.87087214 
0.1145529 -0.3753488 -0.91977763 
0.1345111 -0.49515745 -0.85832745 
0.74578 -0.21531825 -0.63043666 
0.8976289 0.3091609 -0.314137 
0.3478148 0.28903583 -0.8918987 
-0.67582285 0.1046448 -0.7295978 
-0.5998823 -0.030183041 -0.7995188 
-0.6299111 0.14220048 -0.7635385 
-0.5664507 -0.4626808 -0.6819532 
-0.73621327 -0.26431027 -0.6230009 
-0.8538629 -0.29465404 -0.42906561 
-0.5810356 0.5170477 -0.6285375 
0.111294515 -0.9524945 -0.28349242 
-0.31710258 -0.6755926 -0.665598 
0.34952503 -0.9143781 0.2043158 
0.41450104 -0.5326627 -0.737875 
0.3560693 -0.08897313 -0.9302142 
0.37328476 -0.6534552 -0.6585247 
-0.8896721 0.060283322 -0.45260313 
-0.048940167 -0.2352461 -0.97070295 
0.43863037 0.09929111 -0.89316565 
0.69290525 -0.40257984 -0.59817374 
0.64548904 0.0359314 -0.762924 
-0.5224618 -0.19654676 -0.8297006 
-0.5039175 -0.51434624 -0.6939129 
-0.059690304 -0.97451574 -0.21623157 
-0.19506033 -0.67180127 -0.71458703 
-0.16248733 -0.63813543 -0.752583 
-0.7197546 0.2136318 -0.6605414 
0.041120585 -0.3802894 -0.92395294 
-0.16509186 -0.9321885 -0.32213232 
0.14307164 -0.9804969 0.13474602 
-0.54090303 -0.83797127 -0.07230595 
-0.29305097 -0.74326044 -0.60140264 
-0.4214683 -0.4691181 -0.77607524 
-0.14170039 -0.028862683 -0.9894887 
0.22040948 -0.29973218 -0.9282135 
-0.3966934 0.095927626 -0.91292506 
-0.4975059 -0.016601881 -0.8673017 
0.41681895 0.0051744115 -0.9089748 
-0.14124486 -0.58299977 -0.8001007 
-0.42906186 -0.5290383 -0.73213696 
-0.24592246 -0.77319294 -0.5845468 
-0.7533473 -0.6379364 -0.15970339 
-0.766721 -0.19007595 -0.6131967 
-0.69638026 -0.23194584 -0.67915815 
-0.4354799 -0.67914975 -0.5908578 
-0.15478195 -0.59936816 -0.7853665 
-0.4043694 -0.43075585 -0.8068054 
-0.2937851 -0.48326957 -0.82470655 
-0.04911158 -0.28984317 -0.95581335 
-0.17088448 -0.5404672 -0.8238288 
-0.25581956 -0.6861721 -0.680973 
-0.01193065 0.011931766 -0.99985766 
-0.22603929 -0.500911 -0.83546066 
-0.4426223 0.14923503 -0.8842027 
-0.4042298 -0.20905286 -0.8904466 
-0.028966334 -0.60060924 -0.79901797 
-0.15928046 -0.75218815 -0.6394083 
0.69955385 -0.19665861 -0.686986 
-0.010482355 -0.13310218 -0.9910469 
0.044711325 0.46194234 -0.88578224 
0.23243268 -0.635081 -0.73664594 
-0.30320737 0.51549387 -0.8014558 
0.054884434 -0.048390314 -0.9973195 
0.13371648 0.03170379 -0.9905124 
0.713426 0.2806593 -0.6420699 
0.6206115 0.10505773 -0.7770485 
0.7477893 0.42802805 -0.5075463 
0.792349 0.48422185 -0.37109625 
0.088668466 0.6370683 -0.76569057 
0.48563012 0.030367536 -0.8736367 
0.31295344 -0.1972572 -0.9290586 
-0.03298374 0.8624081 -0.505138 
-0.4438236 -0.88163507 -0.16043758 
-0.80447406 -0.5192022 -0.2885318 
0.04886397 -0.6366258 -0.76962334 
-0.3987126 -0.9118814 -0.09747204 
-0.45597643 -0.6228879 -0.6356857 
-0.26827213 0.37796104 -0.8861014 
0.2891141 -0.19605409 -0.9370037 
-0.38693354 -0.24196452 -0.88979524 
-0.32080156 0.25127602 -0.9132069 
-0.10620573 -0.2687974 -0.9573236 
0.26541162 -0.4793931 -0.83650404 
0.20831095 -0.736625 -0.64342064 
0.30571333 -0.6824353 -0.66394395 
-0.107340276 -0.88573503 -0.45160994 
-0.026391163 -0.44164157 -0.8968034 
0.50589657 -0.43301842 -0.746032 
0.33437762 -0.33767465 -0.879868 
0.08400103 -0.6808421 -0.7275973 
0.20346056 -0.59254354 -0.7794204 
-0.6541123 -0.28652328 -0.7000297 
0.246236 0.012737244 -0.9691262 
-0.6291721 0.010861291 -0.77719015 
-0.6578147 -0.16737194 -0.73434776 
0.127734 0.30306077 -0.94437194 
0.68612593 0.36596027 -0.6287324 
0.18662283 0.29284766 -0.93776983 
-0.029324748 0.4423938 -0.8963413 
0.06878497 -0.26265746 -0.96243435 
-0.16199535 0.26872024 -0.94949824 
-0.1784503 0.748762 -0.6383659 
0.14629233 0.23247783 -0.9615366 
-0.34956437 0.17417556 -0.9205801 
0.064682685 -0.4423166 -0.89452344 
0.24405791 -0.28880513 -0.9257577 
0.08297853 0.097644866 -0.9917561 
-0.05702145 -0.2401183 -0.96906745 
-0.020829126 -0.79127437 -0.6111065 
0.39868218 -0.47902295 -0.78204197 
-0.021459358 0.21740341 -0.97584593 
-0.7425969 0.1578667 -0.65086704 
-0.33868712 -0.10636331 -0.93486786 
-0.036793746 -0.5202084 -0.8532464 
0.0805936 -0.13015041 -0.98821336 
0.39339486 0.14844963 -0.90730554 
0.04417371 -0.23697263 -0.9705116 
-0.21500939 -0.66706866 -0.71329546 
-0.81936 -0.57244575 0.030904317 
-0.79614764 -0.5947376 -0.111517414 
-0.6962001 -0.7066728 -0.12617084 
-0.44655555 -0.59801584 -0.6655563 
-0.46694434 -0.070383295 -0.88148123 
-0.2284184 0.30294093 -0.92523074 
-0.24690615 0.57755816 -0.77811563 
-0.6161663 0.20359996 -0.7608458 
0.2107997 0.3318048 -0.919494 
0.63734335 0.028116526 -0.770067 
0.22681753 0.11534262 -0.9670833 
0.28939423 -0.5218173 -0.80246973 
0.7892761 -0.4047085 -0.46179464 
0.35772416 -0.4218418 -0.8331165 
0.3016882 -0.35008562 -0.88680565 
0.2471629 -0.54477006 -0.80133396 
0.12619403 -0.008205298 -0.9919717 
0.109326586 -0.38562703 -0.91615474 
0.3562438 -0.93111104 -0.07824764 
-0.95178825 -0.019948775 0.30610645 
-0.70477384 0.021410415 -0.70910895 
-0.4653095 -0.04730844 -0.883883 
0.48016658 -0.5311758 -0.69806325 
-0.03280181 0.007173249 -0.9994362 
0.63756716 -0.11158734 -0.76227057 
0.99969614 0.009636758 -0.02269137 
0.93684673 -0.19951713 0.28724778 
0.06552398 -0.9757764 0.20872761 
-0.4021619 -0.9150706 -0.03019434 
-0.68875295 -0.64270306 0.3354882 
-0.58201617 -0.6956244 -0.42114604 
-0.0031709357 -0.8114111 -0.58446723 
0.035166163 -0.12659873 -0.99133044 
-0.101568416 -0.44977447 -0.88734823 
0.08486219 -0.59357446 -0.8002924 
0.05612355 -0.90475214 -0.42222464 
0.26317358 -0.29681712 -0.9179539 
0.841175 -0.5320206 -0.09684348 
0.57220453 -0.3614962 0.7361404 
-0.26560867 -0.4969765 0.8261153 
-0.5710547 -0.8161504 0.08828935 
-0.20609476 -0.8942191 -0.39736292 
0.67834705 -0.4134306 -0.6073882 
0.2870115 0.34038314 -0.8954127 
-0.4691691 -0.10753383 -0.87653685 
-0.019975217 -0.7239832 -0.68952835 
-0.7988296 -0.36076114 -0.48137596 
-0.7448035 0.4995609 -0.4423876 
-0.3905698 0.28673333 -0.8747796 
-0.24911295 0.2657183 -0.9313091 
0.026061531 -0.03780594 -0.99894524 
0.028323393 0.47248134 -0.8808855 
-0.115306385 -0.5101076 -0.85234666 
-0.12662883 -0.57184 -0.81053334 
-0.73295826 -0.52101535 -0.43739605 
-0.08394788 -0.8881715 -0.45177898 
-0.6547372 -0.51245356 -0.5556173 
0.14625655 -0.67969716 -0.7187634 
-0.17795196 -0.98392725 -0.014847677 
-0.0080585135 -0.6110276 -0.79156834 
-0.02997548 -0.3010967 -0.95312244 
-0.28762367 0.3486332 -0.89203566 
-0.21661827 0.20185432 -0.9551605 
0.13554218 0.3396997 -0.93071616 
-0.023392804 -0.75484365 -0.6554875 
0.48306257 -0.4996109 -0.7190547 
0.1627011 -0.48765638 -0.857741 
-0.21458927 -0.09125328 -0.97243214 
-0.48769763 -0.09502014 -0.8678262 
-0.14391834 -0.20213689 -0.96872514 
-0.052997578 -0.67091495 -0.73963803 
-0.75775075 -0.10717424 -0.6436829 
-0.22167465 -0.44362494 -0.8683647 
-0.14038445 -0.34025577 -0.9297947 
0.05356596 0.49914375 -0.8648619 
0.11294577 0.100137636 -0.9885422 
0.55991066 0.59855723 -0.57291305 
-0.51083344 -0.4930377 -0.70424646 
-0.0500028 -0.7199928 -0.6921779 
-0.35438818 0.06496982 -0.93283874 
0.056502756 -0.24091253 -0.96890074 
0.023153516 -0.19612968 -0.98030466 
-0.08611737 -0.0038210189 -0.9962777 
-0.20184219 -0.64420235 -0.73774195 
-0.8233213 -0.5198002 -0.22792545 
-0.4976594 -0.8652296 0.060933832 
-0.49367803 -0.83028114 -0.25867966 
-0.6188728 -0.57582146 -0.53425294 
-0.10142275 -0.56484836 -0.81893826 
0.41050357 -0.41929567 -0.8097396 
0.038048152 -0.8571573 -0.51364744 
0.15848453 -0.4325543 -0.8875694 
0.5167371 -0.0029702515 -0.85613906 
0.34314775 -0.25123945 -0.90505713 
0.019099208 -0.8414681 -0.5399692 
-0.46241915 -0.6170505 -0.6367239 
-0.3512117 -0.9333421 -0.07431638 
-0.3940724 0.115702584 -0.91176754 
0.16955608 0.042668227 -0.98459655 
0.01091117 -0.27519256 -0.9613273 
-0.26011556 -0.96224535 0.080148935 
-0.16497925 0.18018073 -0.9696993 
0.23106498 -0.1975029 -0.95268124 
-0.0242567 -0.5030433 -0.86392087 
0.94263875 -0.25668257 -0.21341595 
0.0040151 -0.9737324 -0.22766007 
-0.4434146 -0.71747434 -0.53722817 
-0.044178806 -0.56833726 -0.8216089 
0.39331836 -0.49938238 -0.7719573 
0.017519472 -0.89922374 -0.43713814 
-0.5113492 -0.22916852 -0.8282535 
-0.3720007 0.859391 -0.3508031 
-0.3177797 0.10980108 -0.94178545 
0.16971694 -0.17875913 -0.96914464 
-0.076974094 -0.115125194 -0.9903642 
0.35201725 -0.8272396 -0.43790248 
-0.29974374 -0.56001097 -0.772361 
-0.018044233 -0.83060694 -0.5565667 
-0.23209484 -0.6546192 -0.71944827 
0.35815296 -0.91717196 0.17470612 
-0.40661392 -0.9025665 -0.14155953 
-0.3711222 -0.92766166 -0.041379936 
0.21856782 -0.53517467 -0.8159756 
-0.36226985 -0.58581525 -0.7249697 
-0.17940219 -0.033666067 -0.9831996 
0.98102754 0.19360387 0.010131053 
0.49971846 -0.8037024 -0.32302317 
0.0127151795 -0.79131246 -0.61127985 
-0.15002832 -0.3037524 -0.94086456 
0.65490615 -0.4997609 -0.56686604 
0.46316847 -0.78123724 -0.4185013 
-0.27265295 -0.89483994 -0.35344303 
-0.37411058 -0.81969833 -0.43374637 
-0.5242403 -0.4020993 -0.7506586 
-0.14617531 -0.1431023 -0.97885376 
-0.44972837 0.46921015 -0.75999093 
-0.4330053 -0.0197415 -0.9011752 
0.210127 -0.60567385 -0.7674672 
0.4218317 -0.21959022 -0.87968075 
0.09814137 -0.34194365 -0.93458164 
0.3605904 0.20802557 -0.9092304 
-0.09927206 0.040654935 -0.99422956 
0.04075793 -0.017070672 -0.99902326 
-0.20493725 0.015003714 -0.97866017 
-0.24611098 -0.43159202 -0.86784667 
-0.7975879 -0.12360149 -0.5904035 
-0.7842693 -0.01956968 -0.62011194 
-0.55528724 0.30722296 -0.7728327 
-0.50084513 -0.09922856 -0.85983026 
-0.3622579 -0.8064118 -0.46740708 
-0.2960763 -0.81460476 -0.4987565 
-0.017745053 -0.21957888 -0.9754334 
0.03298271 0.09982526 -0.9944582 
0.00927618 -0.44291002 -0.8965182 
-0.1321413 0.24769412 -0.95978457 
-0.071094535 -0.31731164 -0.9456527 
0.69784635 0.13241914 -0.70390034 
0.24891411 0.2698391 -0.93017673 
0.90224564 -0.01738645 -0.43087196 
0.33208477 -0.3955811 -0.8562917 
-0.19227289 -0.47138757 -0.860712 
0.18410785 -0.7389324 -0.64813834 
-0.01693033 -0.4885579 -0.8723673 
-0.16692953 -0.8955332 -0.41249856 
-0.16040376 -0.0006394637 -0.98705137 
0.032917596 0.00060052954 -0.9994579 
0.33991787 -0.71692026 -0.60867167 
0.31682202 -0.8442842 -0.43221295 
-0.40344778 -0.9143766 -0.033843886 
-0.8364785 0.022021025 -0.54755735 
0.12453813 0.3207277 -0.93894833 
0.007937514 0.5453759 -0.83815396 
0.3410123 0.07683442 -0.93691367 
0.3272464 0.16793254 -0.9298971 
0.32457218 0.45820263 -0.827468 
0.3634377 -0.10709242 -0.92544276 
-0.040315744 -0.750652 -0.6594666 
0.12926471 -0.89797163 -0.42063946 
-0.0050523123 -0.8828105 -0.46970233 
-0.39287147 -0.3619277 -0.84537596 
-0.41931263 0.08701008 -0.9036626 
-0.1833527 -0.09424295 -0.9785194 
0.52896786 -0.21482503 -0.82100135 
-0.19039498 -0.54883695 -0.8139581 
-0.09024978 0.08459913 -0.9923195 
-0.271912 0.76136917 -0.5885414 
0.29448333 0.59742725 -0.7458957 
-0.56970984 -0.49828103 -0.65356475 
0.03343275 -0.5699561 -0.8209947 
-0.43569154 -0.36802125 -0.82142156 
-0.28861535 -0.8939921 -0.34275252 
0.13122712 0.4092327 -0.9029442 
-0.3488011 -0.067004845 -0.93479854 
-0.33059907 0.03733314 -0.9430327 
-0.46077618 -0.12361802 -0.8788651 
0.21048544 -0.33570358 -0.91814977 
-0.41234687 -0.03756253 -0.9102522 
0.8182333 -0.1850901 -0.54427564 
0.37239802 -0.115946256 -0.920802 
0.14718635 -0.15785867 -0.97643065 
0.5440188 0.22964406 -0.80703604 
0.88725734 0.08751823 -0.4528964 
0.441835 0.11696018 -0.8894392 
0.5400033 0.027543109 -0.84121215 
0.99383396 0.07582023 0.08090459 
-0.072046936 0.78692186 -0.6128321 
0.43083447 0.6820998 -0.59086514 
0.42529634 0.41888356 -0.80228406 
0.91751224 0.029781882 -0.39659086 
-0.1520856 0.8609208 -0.48547426 
-0.3589418 -0.17061336 -0.91763383 
-0.34013844 0.20307401 -0.9181868 
0.02594769 0.33033296 -0.94350773 
-0.120412275 -0.49599943 -0.8599334 
0.13998117 -0.5444125 -0.82705534 
-0.60114527 0.4219655 -0.67865276 
-0.64490074 0.20160812 -0.73719555 
-0.4979121 0.48488852 -0.71900403 
0.27892748 0.2526982 -0.9264681 
0.15208662 0.0026677 -0.9883636 
-0.061111245 0.23172514 -0.9708599 
0.14667735 0.23936161 -0.9597874 
0.09336948 -0.19772166 -0.9758014 
0.13509743 0.017729724 -0.9906737 
-0.15498032 -0.20878455 -0.9656036 
-0.2880013 -0.41209605 -0.864426 
-0.14341363 0.41256586 -0.8995677 
0.081705034 -0.23254684 -0.96914726 
0.48894328 0.39882818 -0.77580315 
0.56321657 0.65997666 -0.49721023 
0.031341814 0.53336203 -0.8453062 
0.1221999 0.24272422 -0.962368 
0.04972665 0.41091982 -0.9103144 
0.23064779 0.3976828 -0.88805974 
-0.04581199 0.31095743 -0.9493192 
0.021509036 0.6790923 -0.73373777 
0.07906659 0.46234867 -0.8831661 
0.0702856 0.19023083 -0.9792203 
0.13337132 0.04712379 -0.98994523 
-0.26407394 0.46488896 -0.84507006 
0.52826446 -0.480199 -0.70024693 
-0.09983606 -0.32397977 -0.94078153 
-0.2444921 -0.04134936 -0.96876925 
0.39968655 -0.37422484 -0.8367834 
0.08317792 -0.29120547 -0.9530377 
-0.20277853 -0.13826424 -0.96941423 
0.07755223 -0.32471263 -0.94262797 
-0.22587466 -0.30913168 -0.9238065 
0.22426309 -0.29411498 -0.929087 
0.36967707 -0.19284764 -0.9089272 
-0.32552063 -0.40469256 -0.85455275 
-0.48497635 -0.054803994 -0.8728084 
-0.41723585 -0.16951217 -0.89284927 
0.33226207 -0.017732013 -0.9430204 
-0.090987995 -0.2361404 -0.96744967 
-0.75831234 -0.19431828 -0.62225634 
-0.841437 0.05056482 -0.5379843 
-0.73411065 0.062543616 -0.67614335 
-0.8929355 -0.43999302 -0.09524859 
-0.59556204 -0.67553604 -0.4346918 
-0.20088229 0.4864 -0.85033023 
-0.55505055 -0.32244626 -0.7667772 
-0.15057066 0.299141 -0.94225436 
-0.3417054 -0.15547615 -0.9268574 
0.19787186 0.45671776 -0.8673267 
0.21748905 0.32161644 -0.9215538 
0.3846073 -0.5375372 -0.7504206 
0.0019473246 -0.80427533 -0.5942537 
0.527039 -0.7717751 -0.35579923 
-0.106174104 -0.27828833 -0.9546113 
0.4883137 -0.064538315 -0.8702785 
0.4909769 -0.27630475 -0.8261945 
0.22238389 0.049899593 -0.97368145 
-0.17723812 0.0016347506 -0.9841667 
-0.48911256 -0.037245635 -0.8714252 
-0.2573842 -0.30641493 -0.91644055 
-0.44773608 -0.13533399 -0.8838649 
-0.58468246 -0.11349487 -0.80328417 
-0.0987239 -0.6697387 -0.73600525 
0.6103336 0.080617025 -0.7880316 
0.5484848 -0.82447857 -0.13928214 
0.9176466 -0.3313189 0.21943706 
0.9640257 -0.26406342 -0.030414838 
0.4691126 -0.45246097 -0.7584276 
-0.38452074 -0.91623914 -0.11247063 
-0.23521972 -0.91579765 -0.3255556 
-0.5572608 -0.8291974 0.043500133 
-0.44707605 -0.51468223 -0.731591 
-0.39476693 -0.35049504 -0.84930104 
-0.22485775 -0.4537389 -0.8622993 
0.59105325 -0.5802648 -0.5603114 
0.12114666 -0.43220517 -0.89360064 
0.4366239 -0.092837855 -0.8948412 
0.8002668 -0.40146118 -0.44542336 
0.15471047 -0.53023416 0.8336165 
-0.8220394 -0.54727536 -0.15729211 
-0.2868523 -0.50715685 -0.81271625 
0.15341268 -0.85292804 -0.4989774 
0.2939501 -0.6249906 -0.7231736 
-0.4717501 0.08259216 -0.8778556 
-0.9567405 0.22312921 -0.18671142 
-0.86388123 0.027065786 -0.5029679 
-0.58574855 -0.8093737 -0.042579036 
-0.61673844 -0.4004544 -0.67769474 
0.01757905 -0.01207232 -0.9997726 
0.3588405 -0.51927567 -0.7756199 
-0.083937034 0.013409345 -0.9963808 
-0.044454988 0.6251768 -0.7792161 
-0.26844832 -0.5243562 -0.8080756 
-0.4273312 -0.10031663 -0.89851254 
-0.37822577 -0.5772042 -0.7237269 
0.040087663 -0.5250102 -0.85015136 
-0.37454954 -0.23468655 -0.89701444 
-0.18939073 -0.6621505 -0.7250434 
-0.51022464 -0.6271719 -0.58849496 
-0.4457129 -0.10344058 -0.88917947 
-0.50774145 -0.059294675 -0.85946655 
0.19395901 -0.1662416 -0.96682143 
0.27010208 0.23502739 -0.93370605 
-0.087525435 0.19269244 -0.97734797 
0.2083731 -0.32600245 -0.9221188 
-0.02304232 0.5264257 -0.8499089 
-0.7032771 -0.08313103 -0.7060386 
-0.205469 0.094999954 -0.9740418 
-0.4112483 -0.37272403 -0.83183634 
-0.44984335 -0.537752 -0.7130666 
-0.043520045 -0.3960757 -0.91718596 
-0.17384772 -0.3455379 -0.92216086 
-0.18402609 -0.08283897 -0.97942436 
-0.0867624 -0.30817556 -0.9473649 
0.16061458 0.11582718 -0.9801974 
0.37128738 0.31355986 -0.87397134 
0.37239695 0.77051854 -0.51732165 
-0.15894783 -0.8139556 -0.55875933 
-0.16362473 -0.55168295 -0.8178465 
0.05817005 -0.05036375 -0.9970355 
0.21944842 0.43678537 -0.87238806 
-0.52554405 -0.3864998 -0.75790584 
-0.42747656 -0.46492842 -0.77530986 
-0.915022 -0.4013445 -0.04070907 
-0.60711753 -0.42010382 -0.67447835 
-0.6453067 -0.7271322 -0.23421828 
-0.08171038 -0.40945593 -0.9086636 
0.39089182 -0.9199976 0.02842714 
0.06580192 -0.6667059 -0.74241054 
0.24556363 -0.3743463 -0.8941831 
0.20031364 -0.11657122 -0.9727722 
0.3768477 -0.17770386 -0.9090694 
0.13807094 0.5166345 -0.84500015 
-0.1247012 0.15150516 -0.980559 
0.24167167 0.13366704 -0.96110773 
-0.5122445 -0.27194396 -0.81464845 
-0.2015465 0.08301175 -0.975955 
-0.43979752 -0.18590394 -0.87864554 
-0.19403924 -0.25900984 -0.94618326 
-0.1522055 -0.51763767 -0.8419529 
0.32497025 -0.18288435 -0.9278727 
-0.15262033 -0.109783605 -0.9821683 
0.11725108 -0.39319035 -0.91195035 
0.09580848 0.40256855 -0.91036224 
0.24932626 -0.4179509 -0.87358654 
-0.06915711 -0.93668747 -0.34326956 
-0.072494 -0.9652921 -0.25091013 
-0.21283877 -0.3205514 -0.92300946 
-0.40814275 0.3081019 -0.859356 
-0.10916646 -0.7344202 -0.66985804 
-0.70276564 0.20611805 -0.68090814 
-0.054741982 0.5183729 -0.8534008 
0.4346485 0.3171755 -0.84290004 
0.26108217 0.47559834 -0.8400253 
-0.28805983 -0.54502034 -0.78738457 
0.39615583 -0.49039018 -0.77625906 
0.4605495 -0.012895759 -0.88754034 
0.5215947 -0.6925717 -0.49828047 
0.13819592 -0.9641065 -0.22671677 
-0.15889877 -0.9810686 0.110704914 
-0.35429466 -0.85457003 -0.3797175 
-0.50190556 -0.7909594 -0.34996304 
-0.8139469 0.09593698 -0.5729629 
0.008723167 -0.11112825 -0.9937678 
0.41710657 -0.009472505 -0.9088083 
0.5190778 0.115692705 -0.84686095 
0.8813339 -0.25902122 -0.39516902 
0.3819601 0.06363312 -0.9219855 
0.5310685 0.66895235 -0.5200665 
0.47149453 -0.75463355 -0.4563127 
0.25907868 -0.64969856 -0.71468174 
0.015453339 -0.9149546 -0.4032609 
0.17054257 -0.97189206 -0.16229947 
-0.40662464 -0.107536666 -0.9072443 
-0.2644449 -0.08469848 -0.9606743 
-0.93337554 0.15991476 -0.321306 
-0.30063286 0.05021706 -0.952417 
-0.19333214 -0.17045762 -0.96621275 
0.013372241 -0.23940931 -0.9708266 
0.4861886 -0.34609407 -0.8023962 
0.14130385 -0.048473157 -0.9887788 
0.36749768 -0.28923193 -0.88390636 
-0.09315892 -0.4450794 -0.8906322 
-0.07633073 0.27959123 -0.9570802 
-0.6666087 0.55403703 -0.4986742 
-0.42619213 0.4190823 -0.80170465 
-0.9124485 -0.034506097 -0.4077339 
-0.61650467 0.3066159 -0.7251957 
-0.22444145 0.12483475 -0.9664586 
0.30875194 -0.10519544 -0.94530755 
0.07621374 -0.37414095 -0.9242349 
0.34070647 0.68205065 -0.64709055 
-0.09320873 0.2789378 -0.95577496 
-0.37657493 0.010670565 -0.9263248 
0.1478721 0.2890869 -0.9458133 
0.057311613 -0.12360972 -0.99067456 
-0.25269285 -0.31284347 -0.9155738 
0.44643834 0.37755328 -0.8112623 
0.26062584 0.54951453 -0.79379344 
-0.25335053 0.14221914 -0.9568632 
0.038431913 -0.7591833 -0.6497414 
-0.16820677 -0.9844444 -0.05075359 
-0.9554355 -0.27836147 -0.09827493 
-0.015512056 -0.63581985 -0.77168167 
-0.48910102 -0.23650669 -0.83955044 
-0.17761193 -0.52692467 -0.83114654 
0.44462803 -0.35836038 -0.8209043 
0.012465534 -0.10024262 -0.99488497 
-0.6245269 0.28261533 -0.72807604 
0.2401492 0.131012 -0.9618546 
0.0035056062 0.30114362 -0.95357233 
0.36507773 0.12464348 -0.9225955 
0.74804026 0.23984551 -0.6187972 
0.67543465 0.37648368 -0.6340727 
0.6210753 0.6986414 -0.35519823 
0.5124068 0.39929444 -0.76026523 
0.54571366 0.22031507 -0.8084912 
0.47614574 0.044058975 -0.8782619 
0.26215485 -0.17076951 -0.9497961 
-0.3290509 -0.01337787 -0.9442175 
-0.058875553 0.015656322 -0.9981426 
0.10067617 -0.09220645 -0.99063736 
0.19361901 0.66341865 -0.7227637 
-0.23349382 -0.29237422 -0.9273608 
-0.12140079 -0.23997411 -0.9631585 
-0.08914951 0.3155841 -0.9447005 
-0.29378483 -0.70244026 -0.648281 
-0.0381693 -0.26569486 -0.9633013 
0.29157436 -0.6220139 -0.72669333 
0.22418593 -0.45005664 -0.8644014 
-0.18219267 -0.15419202 -0.9710977 
-0.40706295 0.6158497 -0.6745584 
0.039765652 -0.214914 -0.97582304 
-0.67909855 -0.060921837 -0.7315147 
-0.1279275 0.09950338 -0.9867795 
-0.024251686 -0.5272611 -0.8493571 
0.1746714 -0.10677936 -0.9788197 
-0.30997592 -0.6412932 -0.70189595 
-0.09620605 0.49991482 -0.8607147 
0.28927848 0.34088057 -0.89449346 
0.4579046 -0.042389996 -0.8879902 
0.85281515 0.068583675 -0.51768965 
0.0047414396 -0.068446316 -0.99764353 
-0.5888009 0.46371177 -0.66203094 
-0.45945406 0.115812294 -0.88061893 
0.3459698 0.65337217 -0.6733571 
-0.077190176 0.13324608 -0.9880725 
0.5994827 0.38232493 -0.7031702 
0.8026558 0.46929508 -0.3681112 
0.5747618 0.7919695 0.20599316 
0.6898209 -0.17844601 -0.70164394 
0.3774021 0.31218773 -0.8718409 
-0.019687802 0.28008822 -0.95977247 
0.47867742 0.11155691 -0.87087494 
0.45400798 0.33495528 -0.8256403 
0.15997976 -0.01110629 -0.98705786 
0.44735327 0.26690903 -0.8536011 
-0.30139282 0.02467807 -0.9531807 
-0.015998196 0.1664405 -0.9859217 
-0.18129352 -0.14045319 -0.97334766 
-0.7872331 -0.19236122 -0.585885 
-0.40079883 -0.47252038 -0.7849107 
-0.32993302 -0.32482234 -0.88636047 
0.052993953 -0.17234705 -0.98360974 
-0.4072262 -0.2306265 -0.88372976 
0.15230808 -0.25657317 -0.9544488 
0.14538164 0.35027143 -0.9252968 
-0.061553914 -0.13935922 -0.9883269 
0.43140635 0.50394523 -0.74828327 
0.14418638 0.67175746 -0.7266032 
0.39471886 0.78113985 -0.48375386 
-0.25740245 0.59243923 -0.7633871 
-0.98907816 -0.06107185 -0.13414465 
-0.55610377 0.19201016 -0.80862886 
0.084709644 -0.14905848 -0.9851934 
0.07136447 0.21627092 -0.9737218 
-0.38677028 0.5774016 -0.7190384 
0.036622085 0.57886547 -0.81460035 
0.11508964 0.6710593 -0.7324164 
0.6589991 0.40331602 -0.6348673 
-0.12521212 0.044873007 -0.99111474 
0.060652252 -0.77284294 -0.6316923 
0.18727133 0.14908373 -0.97092927 
0.49487734 -0.21633051 -0.84160423 
0.10277466 -0.2260979 -0.9686677 
-0.30031273 -0.44526458 -0.84353536 
-0.23668064 0.71251863 -0.6605298 
0.051051736 -0.03350893 -0.9981337 
-0.054694235 -0.15275568 -0.9867494 
-0.24878368 -0.27307153 -0.9292678 
0.0093290005 -0.7177551 -0.6962332 
-0.3836583 -0.36985967 -0.8461738 
0.22543916 -0.24290645 -0.9434902 
0.11695485 -0.01965932 -0.9929427 
0.18720388 -0.07721005 -0.979282 
0.21445039 -0.47430342 -0.8538427 
0.18525867 0.061572604 -0.9807589 
0.08629505 -0.6250135 -0.77582943 
0.46958312 0.006479892 -0.88286453 
-0.31280246 0.17129569 -0.9342443 
-0.49154583 -0.47294623 -0.731235 
-0.21167293 -0.12038575 -0.96989787 
-0.14517817 0.06088751 -0.98753023 
-0.10617332 -0.0028240192 -0.9943437 
-0.23465848 -0.5739773 -0.784529 
-0.01889363 -0.8237887 -0.5665821 
-0.5379361 -0.042812344 -0.8418977 
-0.608472 0.11336995 -0.7854356 
-0.376106 0.39107645 -0.8400022 
-0.3866681 -0.09668319 -0.917137 
0.07770771 -0.26735657 -0.9604593 
-0.0976297 -0.5143082 -0.8520302 
-0.8009906 0.4507088 -0.39405045 
-0.19234009 0.4076784 -0.8926386 
-0.14705816 0.33155793 -0.9319031 
0.00022017655 0.124844976 -0.99217623 
-0.6783541 0.04322181 -0.73346275 
-0.6496445 -0.05073246 -0.7585436 
0.614711 -0.5435033 -0.57160705 
0.5764199 0.16925469 -0.79943293 
0.6305205 -0.425516 -0.6491379 
0.57215995 -0.8051902 -0.15589036 
0.33148554 -0.6866455 -0.6470204 
0.032773226 -0.16649117 -0.9854982 