# OOMMF: rectangular mesh v1.0
# Segment count: 1
# Begin: Segment
# Begin: Header
# Desc: Time (s) :  8.170000000000021e-07
# Title: m
# meshtype: rectangular
# meshunit: m
# xbase: 2e-09
# ybase: 2e-09
# zbase: 5e-10
# xstepsize: 4e-09
# ystepsize: 4e-09
# zstepsize: 1e-09
# xmin: 0
# ymin: 0
# zmin: 0
# xmax: 1.024e-06
# ymax: 1.024e-06
# zmax: 1e-09
# xnodes: 256
# ynodes: 256
# znodes: 1
# ValueRangeMinMag: 1e-08
# ValueRangeMaxMag: 1
# valueunit: 
# valuemultiplier: 1
# End: Header
# Begin: Data Text
0.19536416 -0.65073746 -0.7337395 
-0.35456067 0.21769224 -0.90933865 
0.14085622 0.41605246 -0.89836514 
0.55643505 -0.08919748 -0.82608944 
0.45971093 -0.008180389 -0.88803095 
0.08046903 -0.5140382 -0.8539845 
-0.02740669 -0.50824666 -0.86077535 
0.8172613 -0.47119698 -0.3317492 
0.9583673 -0.24647862 -0.1441542 
0.67867076 -0.7037815 -0.20999466 
0.09242507 -0.9934051 0.06785168 
-0.55268776 -0.8224496 0.13458428 
-0.8478302 -0.4871682 -0.20940694 
-0.24915797 -0.9658859 -0.070603915 
0.18035707 -0.802819 -0.5682897 
0.46730512 -0.80362684 -0.36852401 
-0.06966331 -0.9916282 0.10872202 
-0.21856602 -0.8731361 -0.4357319 
-0.058634058 -0.93156785 -0.35880852 
-0.46168593 -0.112901084 -0.87982935 
-0.6374821 0.14246246 -0.7571798 
0.20449397 -0.113153875 -0.9723058 
-0.22356647 -0.15264027 -0.9626625 
-0.066102535 -0.7320246 -0.6780638 
0.14069785 -0.56051207 -0.8161068 
0.5774398 0.14017734 -0.8043095 
-0.024014616 -0.691106 -0.7223544 
-0.048640154 -0.6779432 -0.73350334 
0.2195556 -0.48650402 -0.8456413 
0.76142997 -0.55359995 -0.3372709 
0.317697 -0.9470716 -0.046088196 
-0.041098557 -0.83436006 0.54968566 
-0.19341074 -0.9806877 -0.029051559 
-0.57157606 -0.47832653 -0.66671175 
-0.25120243 -0.9607727 0.11752967 
0.010757293 -0.9993465 -0.03450939 
0.29115072 -0.94771373 -0.13065249 
0.0051672608 -0.76001716 -0.64988244 
-0.40257528 -0.90927607 0.105594344 
-0.005694283 -0.92909205 -0.3698048 
-0.31461212 -0.898234 0.30691212 
-0.52561504 -0.7875702 -0.3216554 
-0.20218001 -0.43041146 -0.8796984 
0.83505726 -0.3061093 -0.45713943 
0.84239167 -0.53865016 -0.015243762 
0.8944529 0.43931645 -0.08339705 
-0.038304362 -0.94853026 0.31436163 
-0.5855332 -0.65857524 -0.47268334 
-0.041800603 -0.5555402 -0.8304383 
-0.19363363 -0.6117104 -0.76701796 
-0.088572875 -0.9232 -0.3739742 
-0.32124418 -0.39228728 -0.86192405 
-0.6290302 -0.6579687 -0.41400263 
-0.4754519 -0.04547607 -0.87856567 
-0.34827194 0.176763 -0.9205767 
0.17843866 -0.17703305 -0.96789414 
0.43494081 -0.5942213 -0.6765557 
-0.6130031 -0.21301852 -0.7608222 
-0.06321081 -0.20247342 -0.97724557 
0.4911648 -0.6163465 -0.6155276 
0.10882784 -0.9940496 -0.004689652 
-0.34552473 -0.7880779 -0.5094565 
-0.2767695 -0.29959527 -0.9130396 
-0.58080226 -0.44169483 -0.6837942 
-0.012737616 0.12312089 -0.99231 
0.18874186 0.73524004 -0.65099823 
-0.7052472 0.23471239 -0.6689817 
-0.26954508 -0.20972507 -0.9398728 
-0.05547111 -0.31197754 -0.94846874 
-0.29347435 -0.07719647 -0.95284504 
-0.42875254 0.45201308 -0.7822119 
-0.3325319 0.5561584 -0.7616499 
0.21320456 -0.79184157 -0.57230306 
0.40090248 -0.9052066 -0.14098977 
0.6709448 -0.6527617 -0.35176036 
-0.03051088 -0.99782693 -0.05840097 
0.23645885 -0.9089241 -0.3434302 
-0.10174501 -0.8490266 -0.5184609 
-0.20152187 -0.8922423 -0.40409493 
-0.031326402 -0.9821865 -0.18527924 
0.05876204 -0.5919421 -0.80383563 
0.5358042 -0.6895005 -0.48734277 
0.6921687 -0.46357974 -0.55316937 
0.58813983 0.34852397 -0.72981006 
0.8050073 -0.5472971 -0.22897431 
0.88478005 -0.45193234 0.113672964 
-0.0649949 0.43041006 0.90029055 
0.29525015 0.3883223 -0.8729452 
-0.12554398 -0.4690975 -0.87417746 
0.48638093 -0.5022921 -0.7149379 
-0.01798438 -0.2064381 -0.97829443 
0.91351455 -0.13593088 -0.383424 
0.66286176 0.3351732 -0.6695322 
0.5340107 -0.106305346 -0.83876795 
0.8693913 0.13407251 -0.47558734 
0.5785632 0.027413467 -0.8151768 
0.87688214 -0.096162535 -0.47098872 
0.6969064 -0.71373504 -0.07002799 
0.39973772 -0.79596734 -0.45458314 
0.046426598 -0.9867274 0.15560713 
-0.084190555 -0.26997322 -0.95918006 
-0.29348946 0.4784287 -0.82762915 
-0.39517137 -0.06456554 -0.9163356 
-0.6702195 -0.18478332 -0.71879137 
0.021450792 -0.36322677 -0.9314539 
0.23379849 -0.6906648 -0.6843394 
0.7013444 -0.70163876 -0.12577404 
-0.8489387 -0.27689156 -0.45014918 
-0.13564502 -0.54406345 -0.828007 
-0.27604103 -0.32426825 -0.9047936 
0.043964073 -0.055276286 -0.9975028 
-0.08776649 -0.47923133 -0.87328947 
0.042414498 -0.41415596 -0.90921724 
0.5195694 -0.64158404 -0.56428516 
-0.05030658 -0.69591355 -0.7163614 
-0.92309374 -0.36647844 -0.116582915 
-0.795378 -0.52503127 -0.30284637 
-0.27349514 -0.69104403 -0.6690729 
-0.0925942 -0.7682166 -0.6334583 
0.5603157 -0.32102928 -0.7635355 
0.50097436 -0.6939824 -0.51712006 
-0.41124657 -0.19769095 -0.8898285 
0.35188004 -0.83680665 -0.41944608 
-0.6154392 -0.5660898 -0.5484314 
-0.022504525 0.14923373 -0.9885459 
0.25828472 -0.17012043 -0.9509722 
-0.48430812 -0.18593308 -0.854912 
-0.66411424 0.052599564 -0.74577856 
-0.38322562 -0.06711031 -0.92121357 
0.122607194 -0.2803205 -0.9520441 
-0.46686837 0.033967353 -0.88367426 
-0.27456722 0.49309692 -0.82551086 
0.14782695 0.48677325 -0.86092925 
0.5446535 -0.6719011 -0.501898 
-0.111991666 -0.91569906 -0.38594443 
0.17871764 -0.1484193 -0.9726416 
-0.33328792 -0.7835727 -0.5243407 
-0.3791509 -0.8750959 -0.30075213 
-0.12274595 0.08913093 -0.9884276 
-0.07845056 -0.78025043 -0.62052786 
0.69310725 -0.5154135 -0.50393593 
-0.3119491 -0.55123305 -0.7738411 
-0.16301294 -0.15480687 -0.97440326 
-0.33762896 -0.47457597 -0.81288636 
-0.57614446 -0.013329567 -0.8172393 
-0.7704224 -0.37284806 -0.51714 
0.34579533 -0.59568906 -0.7249692 
0.12971456 0.38171566 -0.9151324 
0.41963217 -0.6201541 -0.6628106 
0.4548318 -0.178515 -0.8725024 
0.75156397 0.24352556 -0.6130635 
0.33379787 0.13986619 -0.9322105 
0.10869325 -0.15737185 -0.98153955 
0.031009499 -0.9948215 -0.09679194 
-0.07945116 -0.30281514 -0.9497319 
0.38386557 0.079785205 -0.91993564 
-0.5090081 -0.1280779 -0.85117966 
-0.29592228 -0.24469514 -0.92333865 
-0.4210742 -0.12237743 -0.8987326 
-0.50641465 -0.29327452 -0.8108849 
-0.7912918 -0.36578512 -0.48995793 
-0.653823 -0.5386333 -0.53140354 
-0.014101926 -0.45369864 -0.8910436 
0.008256557 -0.4395532 -0.8981787 
-0.19211899 -0.2782669 -0.94109404 
-0.38569042 -0.4978742 -0.7767653 
0.76738083 -0.19685872 -0.61022395 
0.55262566 -0.014256535 -0.8333077 
0.53702176 0.32349613 -0.77907515 
-0.12368518 -0.257812 -0.95824575 
-0.06594014 0.9139906 -0.40034142 
-0.28146598 0.12931909 -0.95081735 
-0.24832548 -0.54886377 -0.7981749 
-0.20511109 -0.08515809 -0.975027 
0.30164602 -0.94610614 -0.117868036 
0.44519797 -0.58576494 -0.67725796 
0.6595992 -0.7485503 -0.067833364 
-0.17599949 -0.55813265 0.8108713 
-0.81238765 -0.4947338 0.3086502 
-0.71220934 0.30728778 -0.6311355 
-0.94545597 -0.2524244 -0.20590062 
-0.53466755 -0.79052526 -0.2986644 
-0.20668694 -0.93601817 -0.28486928 
0.005593195 -0.42163128 -0.90675014 
0.3428134 -0.9329229 -0.11015455 
-0.3180691 -0.76599616 -0.558643 
-0.47635624 -0.65270233 -0.5891218 
0.9639237 -0.26429367 -0.031623114 
0.56072474 -0.7965222 -0.22614223 
0.075749636 -0.971765 -0.22346093 
-0.41255397 -0.90749073 -0.07911904 
-0.18753096 -0.77112895 -0.6084343 
0.31542227 -0.35775805 -0.8789301 
0.44210193 -0.41861194 -0.7932907 
0.60517436 -0.7802895 0.15783614 
0.020804863 -0.20086539 -0.979398 
0.35735118 -0.10253315 -0.9283249 
-0.17452532 -0.7120946 -0.68004584 
0.14609204 0.39524508 -0.906884 
0.7914778 0.5672589 -0.22755289 
0.031126866 0.2152156 -0.97607046 
0.58352464 0.10542072 -0.8052238 
-0.0494571 -0.21043643 -0.9763558 
-0.20285815 -0.59139365 -0.78045 
0.13854165 -0.17428616 -0.97490036 
0.036773305 -0.09024344 -0.9952407 
-0.38915518 -0.55444443 -0.7356287 
-0.839163 -0.07015874 -0.53933585 
-0.672564 0.04446065 -0.73870224 
-0.43006316 0.20386526 -0.87947977 
-0.7814895 0.08241515 -0.61845124 
-0.24382752 0.89423954 -0.3753448 
0.46106672 0.8320652 0.30835843 
-0.8245404 0.2319038 -0.5160949 
-0.15925269 -0.5946163 -0.78808 
-0.012639272 -0.7254186 -0.68819195 
-0.580392 -0.78900945 -0.20151739 
0.27584437 -0.942577 -0.18830463 
0.3623186 -0.7711803 -0.52345604 
0.025301255 -0.29901814 -0.953912 
0.38749427 -0.32956645 -0.8609496 
0.9447653 -0.075268604 -0.31898785 
-0.3443473 0.12512834 -0.93046653 
-0.0957535 0.58471614 -0.805567 
-0.004075846 0.25678462 -0.96646017 
-0.28633186 0.41134956 -0.8653356 
-0.2040033 0.67003924 -0.71374375 
0.08413979 0.06475448 -0.9943477 
0.4320478 0.21336581 -0.8762476 
0.7960349 -0.073291086 -0.60079694 
0.9478254 -0.16302554 -0.2739522 
0.57038885 -0.8171132 0.08356294 
0.57007366 0.4683153 -0.67505324 
0.49549216 0.5896408 -0.63781756 
-0.24486805 0.2705098 -0.9310554 
0.23187564 -0.17540182 -0.95680094 
0.082085945 -0.2094642 -0.97436476 
0.60571516 -0.09652977 -0.7898045 
0.37098294 -0.28952187 -0.8823541 
0.03548794 -0.9234094 -0.38217247 
-0.39091867 -0.7662222 -0.50998646 
-0.43652877 -0.7506797 -0.4959059 
-0.7174012 -0.12881634 -0.6846473 
0.07518299 -0.40690932 -0.9103694 
-0.34340099 -0.69761384 -0.62881696 
-0.32343835 -0.78538 -0.5277935 
0.04964318 -0.20604056 -0.9772834 
0.27074474 0.16092272 -0.94910556 
0.5510783 0.81923246 0.15865326 
-0.63126767 0.41241312 -0.65682316 
-0.33369067 -0.41023865 -0.8487371 
0.0016885393 0.03276555 -0.99946165 
0.15332553 0.50808805 -0.84754825 
0.17567386 0.6470141 -0.7419646 
0.023546617 0.2581821 -0.96580935 
0.79528564 0.22882955 -0.56138915 
0.13340187 -0.6391735 -0.75740427 
0.09971593 -0.8612437 -0.49831313 
-0.14790623 -0.33874875 -0.9291787 
-0.2651591 -0.3153532 -0.9111768 
-0.035856675 -0.33722943 -0.9407394 
-0.29233885 0.21239682 -0.93242997 
-0.26993707 -0.011455398 -0.96280986 
0.28647852 -0.3898759 -0.87517244 
0.3925076 -0.8889642 -0.23596737 
-0.25795928 -0.9307806 -0.25904545 
-0.5394358 -0.572439 -0.61751324 
-0.31297272 -0.8327673 -0.45666936 
-0.30472696 -0.30255887 -0.90310556 
0.3632332 -0.87008524 -0.3331869 
0.303841 -0.76438576 -0.5686785 
-0.40932053 -0.6991695 -0.58619004 
-0.27145353 -0.9177535 -0.28989935 
-0.70108914 -0.38029867 -0.6031974 
-0.36171222 -0.8539017 -0.3741874 
-0.19212715 0.41278782 -0.8903333 
-0.2960622 0.1668103 -0.94049007 
-0.15494652 0.14850643 -0.97669727 
-0.1389672 -0.23080947 -0.963024 
0.6662632 -0.051157784 -0.7439598 
0.24043724 0.0992647 -0.9655758 
0.6423191 -0.13112971 -0.75513655 
-0.21515785 -0.5469849 -0.8090209 
-0.52831835 -0.04744732 -0.8477196 
0.07285495 -0.73202175 -0.67737466 
-0.43676153 -0.4238702 -0.7934567 
-0.011644125 -0.6985793 -0.715438 
-0.25348997 -0.91155785 -0.3237362 
-0.21855535 -0.41749117 -0.8820061 
-0.13412833 0.053601146 -0.98951334 
0.02235157 0.105861545 -0.99412966 
0.5654282 0.026589124 -0.82436895 
0.91283906 -0.40831044 0.0027297053 
0.075664006 -0.9965163 -0.03507581 
0.041416544 -0.8833121 -0.4669524 
0.6173686 -0.5905809 -0.51968294 
-0.06159209 -0.92636204 -0.37156412 
-0.13591531 -0.828951 -0.54255646 
-0.39286172 -0.90716136 -0.15072489 
0.09055076 -0.45761636 -0.88452697 
0.59274995 -0.5092805 -0.62392384 
0.80770564 -0.38793984 -0.44397584 
-0.20969169 -0.60554785 -0.7676856 
-0.08231917 -0.061908133 -0.9946813 
-0.15177827 -0.3405642 -0.9278898 
-0.26428396 -0.1158025 -0.9574674 
0.49741212 -0.53131646 -0.68577266 
0.40938023 -0.6328387 -0.6572085 
-0.7420839 -0.6666557 -0.069868915 
-0.4461864 -0.115749866 -0.8874231 
-0.97424054 -0.08733589 -0.20791323 
-0.6634325 -0.041528143 -0.74708295 
-0.28175235 -0.7700309 -0.572423 
-0.16243932 -0.9823991 0.09222506 
-0.3208134 -0.41362888 -0.85205054 
-0.5141575 0.037486307 -0.85687625 
-0.41104433 -0.33105573 -0.84937894 
-0.5507999 -0.24563484 -0.7976735 
-0.6758535 -0.19648181 -0.71036404 
-0.7060481 -0.1605253 -0.6897303 
-0.20417953 -0.49664277 -0.8435975 
-0.18487646 -0.465943 -0.8652849 
-0.3240444 0.3421617 -0.88199806 
0.025773982 -0.14056014 -0.9897367 
0.23285986 0.28271234 -0.9305107 
0.08643008 -0.36179557 -0.9282423 
-0.20655619 -0.0010708238 -0.97843426 
0.46886525 -0.22121523 -0.8551195 
0.1847652 -0.40352014 -0.89612126 
0.4307482 -0.35580114 -0.8293743 
-0.18665628 -0.7377657 -0.64873815 
-0.054395378 -0.9423857 -0.33007658 
-0.1385199 -0.79893106 -0.58525336 
0.3067614 -0.7632539 -0.5686308 
-0.11340533 -0.81851715 -0.5631775 
-0.6171949 -0.26669055 -0.74023414 
-0.04394712 -0.69859886 -0.71416265 
0.21339613 -0.2887491 -0.93332 
0.763011 0.22473456 -0.60606 
-0.04272026 -0.86700505 -0.49646467 
0.6250877 -0.28103808 -0.7282053 
0.94890153 0.27299285 -0.15830575 
0.46482068 0.14053762 -0.87418014 
-0.6403566 0.18732204 -0.7448852 
0.18885626 -0.06729015 -0.97969663 
0.23892264 -0.11007225 -0.9647798 
0.09773977 -0.26007822 -0.9606281 
0.6052951 -0.44267002 -0.66155964 
0.44038185 -0.7016539 -0.56013 
0.603862 -0.24830708 -0.7574261 
0.75405705 -0.5291612 -0.38908422 
0.14793982 0.0009454221 -0.98899597 
0.29325643 -0.8847996 -0.3621192 
-0.13757953 -0.6183248 -0.77378696 
-0.04826702 -0.8586502 -0.51028454 
-0.07797982 -0.626828 -0.7752456 
0.1938461 0.0861801 -0.9772394 
0.31356958 0.29090038 -0.9039088 
0.1342401 -0.28366652 -0.9494804 
0.19978964 -0.343324 -0.91772157 
0.34065884 -0.4502803 -0.82534796 
0.20958899 -0.8514509 -0.48073253 
0.15230568 -0.54999477 -0.8211632 
0.23628253 -0.8350825 -0.49679774 
0.056216363 -0.28393543 -0.95719403 
0.032186 -0.24691562 -0.9685024 
0.06712925 -0.096271224 -0.9930889 
-0.022797681 -0.6121268 -0.7904309 
0.2671549 -0.36280042 -0.892751 
0.17085995 -0.34303108 -0.92365396 
0.09899091 -0.17359656 -0.9798292 
0.058441754 -0.3170547 -0.94660497 
-0.43058926 -0.5131178 -0.74249786 
-0.31869894 -0.47523668 -0.82011044 
-0.5138535 -0.4285754 -0.743154 
-0.2532827 -0.2446369 -0.93594915 
-0.46552595 -0.40492457 -0.7869699 
0.060346447 -0.3665001 -0.928459 
0.062288072 -0.23164761 -0.9708037 
0.13314523 -0.34897807 -0.9276242 
0.16118236 -0.35412064 -0.9212051 
-0.4676405 -0.52669835 -0.70986 
-0.3552908 -0.19986549 -0.91313875 
-0.40744698 0.5914764 -0.69580364 
-0.51906323 0.26961976 -0.8110972 
0.3360663 -0.49352172 -0.80218184 
-0.064757034 0.5512725 -0.83180845 
-0.54685605 0.43729368 -0.71394867 
-0.23219301 0.17381133 -0.9570142 
0.28781345 -0.6900887 -0.66403395 
-0.27855274 -0.49769393 -0.8214068 
-0.34025142 -0.06639919 -0.9379874 
0.1075083 -0.526025 -0.84364665 
0.33327848 -0.8746853 -0.3519249 
-0.5417396 -0.43516052 -0.7191339 
-0.4478163 -0.38220352 -0.80831987 
-0.10689909 -0.49795124 -0.8605912 
-0.1447799 -0.6390378 -0.7554267 
-0.17780283 -0.35876468 -0.9163374 
0.34623086 -0.5850587 -0.7333693 
-0.58632386 -0.13291146 -0.7990988 
-0.7026032 0.2765504 -0.65564364 
0.32167467 -0.31756982 -0.89200604 
-0.23982988 -0.37355325 -0.89606905 
-0.0817969 -0.62408584 -0.7770625 
0.16421613 -0.9012555 -0.4009635 
-0.38277343 -0.62646556 -0.6789886 
-0.42309812 -0.07155109 -0.9032544 
0.11300048 -0.68004763 -0.72440743 
-0.3345405 -0.90300053 -0.26957917 
0.37209707 0.009812506 -0.928142 
0.4819746 0.21460086 -0.8494981 
0.08242394 -0.25220737 -0.96415657 
-0.43640578 0.35880074 -0.8251134 
0.58026105 -0.26481235 -0.7701763 
-0.21767494 -0.0849282 -0.97231936 
-0.106860496 0.117747985 -0.9872772 
-0.67375994 0.1911361 -0.7138029 
-0.68581086 0.119234085 -0.7179462 
-0.17747732 0.00400329 -0.98411673 
0.1620163 0.09050045 -0.98262936 
0.28546074 -0.13021664 -0.9495029 
0.59682554 -0.045551404 -0.80107707 
0.42077035 0.35937485 -0.8329478 
0.52295524 0.1265901 -0.84290737 
0.11545925 0.34787354 -0.93040484 
-0.6653595 0.7094134 0.2324423 
-0.5553042 -0.028642738 -0.831154 
-0.3233146 -0.124671526 -0.938043 
0.20555197 -0.10337422 -0.97317123 
0.32740116 -0.90751 -0.26312387 
0.4982707 -0.86531013 -0.054450113 
0.57432294 -0.76912725 0.28035083 
0.10617826 -0.83656156 0.53748584 
-0.7120731 -0.67498654 0.19324882 
-0.8101414 -0.54475796 -0.21658652 
-0.852138 -0.5066807 -0.130903 
-0.31435853 -0.81907874 -0.4798842 
-0.13229585 -0.5983425 -0.7902431 
-0.029640947 -0.6901753 -0.7230349 
0.052415982 -0.6889949 -0.7228684 
0.4697839 -0.6903643 -0.55018204 
0.39196786 -0.21580477 -0.8943096 
0.43123993 -0.7494916 -0.5022893 
0.24067368 -0.5295127 -0.81344485 
-0.10669439 0.24438761 -0.96378994 
0.48341292 -0.32694164 -0.8120474 
-0.12207798 -0.42454782 -0.89713776 
0.3162683 0.3944966 -0.8627554 
0.09759403 -0.027948532 -0.9948338 
0.38053295 -0.45064744 -0.8075344 
-0.24515066 -0.24140002 -0.9389501 
0.4323866 -0.45939487 -0.77588546 
0.610202 -0.43629074 -0.6612896 
0.62176 -0.5202867 -0.58541983 
0.18863824 -0.30463278 -0.93360305 
-0.4216444 -0.46851665 -0.7763429 
0.14236277 -0.5400454 -0.82950824 
0.58039224 -0.30724236 -0.75415313 
0.1104295 -0.59312767 -0.7974993 
-0.017500887 0.0391234 -0.9990812 
0.11266486 -0.44303533 -0.8893967 
-0.52407014 -0.32977042 -0.7852401 
-0.46285605 0.41769227 -0.7818553 
-0.75885653 -0.18542354 -0.6243035 
-0.09547298 0.11862251 -0.9883388 
-0.24643725 0.059602328 -0.96732426 
0.22323978 0.0047590197 -0.97475195 
0.740765 -0.07410704 -0.66766423 
-0.2995736 -0.21338922 -0.92990357 
-0.100597344 -0.5979533 -0.795193 
-0.14380486 -0.84075564 -0.52196777 
-0.54153275 0.07401708 -0.8374149 
0.07585112 -0.29874533 -0.9513138 
0.54147226 -0.77056104 -0.33621955 
0.38298652 -0.62475055 -0.6804471 
0.2210316 -0.37481883 -0.90036434 
0.44872722 -0.60628194 -0.6565563 
0.4133826 -0.58144546 -0.7007396 
-0.30062628 -0.020219643 -0.9535276 
-0.037869275 -0.22619054 -0.97334677 
-0.13794832 -0.062314156 -0.9884773 
-0.6563786 0.5566729 -0.5091979 
-0.43679914 0.30519977 -0.846203 
0.022402737 -0.06974565 -0.99731326 
0.6494131 -0.3609035 -0.66933644 
0.71595436 -0.028579822 -0.6975619 
0.8290461 -0.41089854 -0.3792692 
0.3886897 0.38100109 -0.8389033 
0.62828994 0.56521237 -0.53459024 
0.2666022 0.7412148 -0.61605513 
0.22032687 0.4817601 -0.84815294 
0.39137247 0.27487993 -0.8782191 
0.2621671 0.24620269 -0.93308777 
0.045571808 -0.6271287 -0.7775814 
0.10693843 -0.73898256 -0.6651835 
-0.1448871 -0.4487624 -0.8818278 
-0.23118941 -0.3324316 -0.9143526 
-0.81106484 -0.18264115 -0.55571216 
0.06603452 0.11991902 -0.99058515 
-0.048530728 -0.31820086 -0.9467803 
-0.6900768 0.28377536 -0.665782 
-0.6071529 -0.28910425 -0.7401244 
-0.5370115 -0.2507693 -0.80543995 
-0.29801664 0.39648026 -0.8683257 
-0.29500785 0.22899885 -0.92764753 
-0.28852156 0.5431372 -0.788516 
-0.4218587 0.23458265 -0.875789 
-0.055569433 -0.03254144 -0.9979244 
0.12955815 0.121941835 -0.9840452 
0.9231403 -0.35646957 -0.14401947 
0.30293936 -0.5081959 -0.80620396 
-0.7242538 0.3012982 -0.6202225 
0.20307845 -0.025812948 -0.97882223 
0.06483948 0.2407667 -0.96841484 
0.2720675 -0.36132327 -0.8918659 
0.18944596 0.29681388 -0.93595505 
-0.023629054 -0.077723056 -0.9966949 
-0.31161028 -0.56817067 -0.7616306 
0.28634876 -0.48628256 -0.8255505 
0.05395562 -0.91196173 -0.40671203 
-0.088741 -0.44718623 -0.8900279 
-0.35418037 -0.533267 -0.7682334 
-0.66079104 -0.66676426 -0.34464568 
-0.8776473 -0.30524924 -0.369538 
-0.33527896 -0.220969 -0.91583884 
-0.49705276 -0.86264646 0.09370007 
0.47143632 -0.81140804 -0.34549215 
-0.054497506 -0.53756016 -0.8414626 
-0.38730016 -0.4334084 -0.8137295 
-0.30672485 -0.83201987 -0.46223697 
-0.19726585 0.3381971 -0.9201679 
-0.32401377 -0.37697512 -0.8677009 
0.2859681 -0.58090657 -0.7620826 
0.09826433 -0.57083505 -0.81516343 
0.080179 -0.4469482 -0.8909594 
0.22650203 -0.07906835 -0.9707961 
0.46293658 -0.17246234 -0.8694519 
0.5276771 -0.34753948 -0.77509564 
-0.36531836 -0.42750022 -0.8269136 
-0.09889028 -0.6103469 -0.7859373 
0.17165235 -0.29367885 -0.94036597 
0.30604067 -0.6365668 -0.7078996 
-0.29648754 -0.61718744 -0.72881746 
-0.5732573 0.257799 -0.7777633 
0.24026799 0.18913786 -0.952102 
0.35952228 -0.033290498 -0.93254244 
0.37698582 -0.20927338 -0.90226734 
0.1600765 -0.6603754 -0.7336756 
-0.3053545 -0.29020947 -0.9069383 
0.38244987 -0.79560035 -0.4698428 
-0.27318698 -0.89454424 -0.353779 
-0.5139533 -0.8576821 -0.01527718 
-0.057586905 -0.7789154 -0.6244794 
0.022381196 -0.76969343 -0.6380213 
0.38421386 -0.5297714 -0.756123 
0.08001616 -0.84125423 -0.5346857 
0.8805879 -0.460595 0.11143351 
0.53610986 -0.7024538 -0.46812913 
0.30090827 -0.39480415 -0.8680922 
0.22423263 -0.20913489 -0.9518311 
0.41219497 -0.24532808 -0.8774449 
0.49343354 -0.57212406 -0.65513164 
0.5499191 -0.420364 -0.72172236 
-0.30929267 -0.4498057 -0.8378622 
0.22883672 -0.22571708 -0.9469349 
-0.17817703 0.13332915 -0.97492373 
-0.8424914 -0.46730533 -0.2680188 
-0.5367113 -0.7106507 -0.454881 
-0.39947176 -0.88764924 -0.2291316 
-0.54423517 -0.37154412 -0.7521723 
0.054707512 0.26747122 -0.96201164 
-0.35463634 0.1374024 -0.9248534 
-0.28441986 0.12132867 -0.9509915 
-0.3966001 -0.16006505 -0.90392894 
0.21360666 -0.45170116 -0.8662207 
0.30588207 -0.366241 -0.8788082 
-0.8381511 -0.08065539 -0.5394419 
-0.8094457 -0.57061434 -0.13855338 
-0.263524 -0.1954657 -0.9446419 
-0.08598716 -0.15466502 -0.984218 
-0.78182817 -0.38154456 -0.4931213 
0.048930947 0.20796627 -0.97691137 
0.39465714 -0.3144557 -0.8633444 
0.5215033 -0.47622046 -0.707989 
-0.020801263 0.5194809 -0.8542289 
-0.7721962 -0.36240846 -0.521894 
0.114147656 -0.23969191 -0.96411526 
0.33794874 -0.45781913 -0.8223091 
0.6890281 -0.5129552 -0.51197404 
0.40676275 -0.7236425 -0.5575711 
0.21331632 -0.2703172 -0.93884236 
0.095111795 -0.5596324 -0.82326514 
0.44544998 -0.47010192 -0.76195705 
0.53928083 0.5571694 -0.63145757 
0.35420153 0.27614075 -0.8934694 
0.33796787 -0.10361806 -0.9354363 
0.6438907 0.12820654 -0.7542996 
0.10184008 0.18391365 -0.9776525 
-0.21548177 0.19605039 -0.95662534 
0.319966 -0.21101806 -0.9236304 
-0.22166379 0.69289464 -0.6861211 
-0.16148007 -0.17180316 -0.9718065 
-0.23726529 0.108312 -0.9653879 
0.1241747 -0.5020201 -0.8558952 
0.5659134 -0.5164613 -0.64265835 
-0.18143559 -0.7132694 -0.6769993 
0.19981907 -0.23182753 -0.95201284 
0.49973825 0.10900691 -0.85928994 
-0.15764965 -0.5524242 -0.8185195 
0.4357216 -0.28109732 -0.855062 
-0.23656812 0.19856636 -0.9511083 
-0.101634115 0.15908307 -0.9820199 
0.0212425 0.2503379 -0.96792555 
0.23597881 0.11320843 -0.96514136 
-0.219492 0.21623892 -0.9513486 
0.36363226 0.086348385 -0.92753196 
0.54377246 -0.10988204 -0.83200806 
-0.013634211 -0.6247312 -0.78072095 
-0.17203888 -0.30539647 -0.93655527 
0.13880897 -0.5230404 -0.84092855 
-0.26766232 -0.4806671 -0.8350545 
0.10650494 -0.46636516 -0.8781573 
0.4078888 -0.85309273 -0.3253608 
0.16526426 -0.87378526 -0.45736974 
-0.14880563 -0.5851593 -0.79714835 
-0.26872596 -0.82175016 -0.502507 
0.49170828 -0.41090807 -0.7677093 
0.32543802 -0.27141693 -0.90577203 
0.8068748 -0.4793277 -0.34525055 
-0.3608089 -0.17070125 -0.91688496 
-0.23278517 -0.17375322 -0.95688087 
-0.08880203 0.33089054 -0.9394817 
0.5883865 -0.63476694 -0.50087166 
0.61962336 -0.29169717 -0.72868353 
0.17647189 -0.35565597 -0.91780525 
0.02014042 0.4128981 -0.91055465 
-0.23097895 0.56421185 -0.79266244 
0.08732305 -0.24886967 -0.96459246 
-0.029512657 0.48403895 -0.8745486 
-0.3623466 0.31917128 -0.87569094 
-0.12725864 -0.2177793 -0.96766603 
-0.03587694 0.44030905 -0.89712924 
-0.62647414 -0.5830197 -0.5173183 
-0.52936655 0.26709473 -0.80525243 
-0.6526617 0.17348748 -0.7375194 
-0.15709476 -0.29031613 -0.94394803 
0.22779562 -0.5569664 -0.798685 
0.31067166 -0.50093323 -0.8078051 
0.01825214 0.07397866 -0.99709284 
0.091381155 -0.6171095 -0.7815532 
-0.30860403 -0.6016448 -0.7367409 
0.3050257 -0.71187717 -0.632606 
0.2956116 -0.058726896 -0.9535015 
-0.09679508 0.21071286 -0.97274405 
-0.036193933 -0.5794185 -0.8142262 
0.32694042 -0.052579805 -0.9435811 
-0.30404752 0.41034845 -0.8597497 
-0.22435407 -0.0028300115 -0.9745036 
0.28406075 -0.6811674 -0.67477447 
0.6084083 -0.48148617 -0.6308808 
0.45324335 -0.6851346 -0.570229 
-0.40241832 -0.8897467 -0.21543078 
-0.76916605 -0.28329754 -0.5728231 
0.07928019 -0.6334415 -0.76971847 
-0.10936497 -0.560918 -0.8206159 
-0.1711 -0.14009723 -0.9752424 
0.26401582 -0.29579073 -0.9180434 
-0.19545956 -0.11709033 -0.9736969 
0.047008716 -0.5206411 -0.85248053 
-0.24247074 -0.19049829 -0.951272 
-0.28015843 -0.44879156 -0.84858555 
-0.30623844 0.09836189 -0.9468596 
-0.3780297 0.073099375 -0.9229031 
-0.35641694 0.6232843 -0.6960486 
-0.11471572 -0.37935048 -0.91811407 
0.30268174 -0.21389654 -0.9287799 
0.14219207 0.056675006 -0.9882153 
0.10820615 -0.27242357 -0.95607364 
0.119154535 -0.23995195 -0.9634445 
0.14038345 -0.2745515 -0.9512697 
-0.7367077 0.09575254 -0.6693978 
-0.75666285 -0.04615049 -0.6521744 
-0.7310099 -0.6151801 -0.29525915 
-0.68978304 -0.076168194 -0.7199985 
0.3885961 0.16369793 -0.9067503 
0.7159179 -0.6442779 -0.26901236 
0.3083234 -0.5523289 -0.77451247 
0.07336772 -0.965972 0.24802274 
-0.0458488 -0.9983542 -0.034452215 
-0.3597247 -0.93117267 0.059293993 
-0.7756679 -0.42930984 -0.46263623 
-0.5477003 -0.3282042 -0.7696145 
-0.16209461 -0.3578239 -0.91961265 
-0.5532004 0.15070407 -0.81930315 
-0.58276266 0.0058762045 -0.8126212 
-0.38912815 -0.37015644 -0.84354234 
0.24760829 -0.45751378 -0.8540324 
0.3029916 -0.83746094 -0.4548137 
0.4487548 -0.8465599 -0.28627867 
0.43518808 -0.69654804 -0.5704666 
0.35529745 -0.06401949 -0.9325585 
-0.21595639 -0.9513296 -0.2198523 
-0.25517398 -0.7736616 -0.5799432 
0.353644 0.41139936 -0.84005153 
0.47222763 -0.4045944 -0.7831376 
0.28021657 -0.26925513 -0.9214013 
-0.39723003 -0.53783023 -0.743604 
0.18838783 0.26233292 -0.94640976 
0.47702175 -0.16256621 -0.86372596 
0.28831092 -0.27805367 -0.9162768 
-0.327458 -0.4395421 -0.83640546 
-0.5374315 -0.5336499 -0.6529818 
0.058861896 0.11059974 -0.9921205 
0.6040404 -0.021791456 -0.7966557 
0.5431489 -0.124560334 -0.83034575 
0.13397987 0.118328825 -0.9838942 
0.055901717 -0.057673905 -0.9967692 
-0.38672516 -0.16632077 -0.9070728 
-0.74723434 0.577638 -0.3285959 
-0.18141033 -0.24915247 -0.9513219 
0.14700176 -0.14237955 -0.97883534 
0.07980806 0.08477559 -0.9931988 
-0.30651116 -0.08665903 -0.94791406 
0.59300387 0.22057477 -0.7743986 
-0.10706938 0.056525785 -0.9926435 
-0.25671655 -0.18449217 -0.94871455 
0.15045668 -0.011999427 -0.98854387 
0.004958732 -0.5769112 -0.8167918 
-0.44548738 -0.634682 -0.63144267 
-0.5838332 -0.07427635 -0.80846876 
0.27247438 -0.16578041 -0.9477735 
0.5007803 -0.77670413 -0.3820338 
0.1843086 0.024084518 -0.9825733 
0.10521473 -0.829747 -0.5481332 
0.04067675 0.453989 -0.89007837 
-0.1665601 0.37090203 -0.9136135 
-0.7145302 -0.09139845 -0.6936086 
-0.11389282 0.6362188 -0.76305586 
0.749125 0.09462003 -0.6556362 
0.25165182 -0.055342566 -0.9662342 
0.06612556 -0.48200357 -0.8736705 
-0.14577746 0.4332574 -0.8894026 
-0.14632493 -0.77790487 -0.61110806 
0.44964662 -0.31070286 -0.8374257 
-0.24636912 -0.018876975 -0.9689923 
0.37146166 0.06476113 -0.9261869 
0.68072337 0.28200144 -0.6760851 
0.81169957 0.32337815 -0.48638523 
0.8104221 0.1210912 -0.5731954 
0.14407562 -0.06507589 -0.9874246 
0.36842367 -0.41651684 -0.83113045 
-0.2063387 0.48327443 -0.8508056 
-0.61680686 0.44628638 -0.6483655 
-0.19214557 -0.26985088 -0.9435363 
-0.0026682608 -0.13946699 -0.9902232 
-0.044122536 -0.42581695 -0.903733 
-0.14027664 -0.57224905 -0.80799365 
-0.018120466 -0.45901304 -0.8882448 
0.04523522 -0.30886903 -0.95002836 
-0.26355964 0.34977868 -0.8989945 
-0.08742404 0.47955403 -0.8731467 
0.29136032 0.7807379 -0.5527725 
-0.5993289 0.24493551 -0.76210994 
0.19990994 0.60858065 -0.7678969 
-0.123619854 0.36279628 -0.9236325 
0.80298305 -0.48961586 -0.33984506 
0.39960065 -0.9040645 -0.15161408 
-0.27400202 0.14064184 -0.95138997 
-0.10912992 0.7411976 -0.6623571 
0.019531736 0.2731747 -0.9617662 
0.4855374 0.14830042 -0.8615454 
0.30803937 0.006656175 -0.95135033 
0.28550875 0.10522431 -0.95258206 
-0.24583095 -0.24255541 -0.9384744 
0.09372182 0.1643319 -0.98194265 
-0.011636551 -0.33369154 -0.94261056 
-0.016833302 -0.2075021 -0.9780898 
-0.4903972 -0.32291475 -0.80946696 
-0.22544304 -0.6552936 -0.72094786 
0.1174388 -0.46819428 -0.87578666 
-0.18281701 -0.14358637 -0.9726052 
-0.40198976 -0.85773355 -0.32046422 
0.115781926 -0.77135026 -0.62579024 
-0.3982469 -0.7631519 -0.5089192 
0.08887758 -0.8784242 -0.46954402 
-0.03466954 -0.6029755 -0.79700613 
-0.6753301 -0.043263767 -0.7362455 
0.053510375 -0.53706586 -0.8418414 
0.6967303 -0.20311333 -0.6879767 
-0.29712743 -0.44123557 -0.84677416 
0.10124179 -0.7852619 -0.6108304 
0.5255014 0.0737706 -0.84758854 
0.09955162 0.49920052 -0.8607488 
0.37591502 -0.05114816 -0.9252416 
0.6973604 0.33423373 -0.6340161 
-0.0013430201 -0.0003274044 -0.9999991 
-0.002831142 -0.99145883 -0.13038948 
0.2801278 -0.29438344 -0.9137105 
-0.0542689 -0.6204738 -0.78234726 
-0.47364423 0.06528315 -0.87829345 
-0.40652508 0.014533763 -0.91352403 
-0.50743085 0.36316836 -0.7814236 
0.22143611 0.1472675 -0.9639908 
0.14423956 -0.70495576 -0.6944295 
0.5140436 -0.09098584 -0.85292476 
0.018721739 -0.668706 -0.74329126 
-0.1779495 -0.8475585 -0.49997878 
0.4124776 -0.9007655 0.13595594 
0.084239945 -0.54321456 -0.8353571 
-0.07731842 -0.07740055 -0.9939975 
0.12503624 -0.5166594 -0.84701186 
0.42903066 -0.7076122 -0.56144255 
0.4817128 -0.8290578 -0.28392974 
-0.05649172 -0.8528172 -0.5191452 
0.009594754 -0.8791528 -0.47644347 
-0.27203402 0.06793728 -0.9598865 
0.23767899 -0.7506056 -0.6165226 
0.21310882 0.14053404 -0.96686864 
0.0512406 -0.10139421 -0.9935259 
0.4549852 0.035021354 -0.88981014 
0.53171635 -0.12403515 -0.83779055 
-0.51545 -0.031202473 -0.85635144 
-0.5570729 0.3279627 -0.76296157 
0.0049766293 -0.42773432 -0.90389085 
-0.52566075 -0.06428404 -0.848262 
-0.3220296 0.109375425 -0.94039035 
-0.5612283 0.6127403 -0.55639213 
-0.593517 0.3107841 -0.7423954 
-0.23012322 0.17298542 -0.9576635 
-0.24374117 -0.0063854977 -0.96981937 
0.16795851 -0.27378464 -0.9470121 
-0.10592489 -0.41996995 -0.9013352 
-0.57320106 -0.44833806 -0.6858817 
-0.39640749 -0.68918675 -0.6065334 
-0.6114101 -0.45306262 -0.6487773 
0.3157238 -0.4387874 -0.8412991 
-0.21522239 -0.39971393 -0.8910152 