# OOMMF: rectangular mesh v1.0
# Segment count: 1
# Begin: Segment
# Begin: Header
# Desc: Time (s) :  8.680000000000023e-07
# Title: m
# meshtype: rectangular
# meshunit: m
# xbase: 2e-09
# ybase: 2e-09
# zbase: 5e-10
# xstepsize: 4e-09
# ystepsize: 4e-09
# zstepsize: 1e-09
# xmin: 0
# ymin: 0
# zmin: 0
# xmax: 1.024e-06
# ymax: 1.024e-06
# zmax: 1e-09
# xnodes: 256
# ynodes: 256
# znodes: 1
# ValueRangeMinMag: 1e-08
# ValueRangeMaxMag: 1
# valueunit: 
# valuemultiplier: 1
# End: Header
# Begin: Data Text
-0.20409523 -0.9015522 -0.3815085 
-0.80128837 -0.28704014 -0.5249237 
-0.7160708 0.22651769 -0.6602518 
-0.7921921 0.0030581749 -0.6102643 
-0.8226697 0.38565177 -0.4177169 
-0.039069325 0.12421221 -0.99148625 
-0.38428825 -0.2270623 -0.8948549 
-0.9310883 0.19994731 -0.30511582 
0.5859722 -0.30901036 -0.749099 
-0.22204792 -0.82085425 -0.52620625 
-0.40232557 -0.2870783 -0.8693218 
0.13310564 -0.6668801 -0.73318064 
-0.6288102 0.1509182 -0.76277214 
-0.4953611 -0.17383286 -0.8511167 
-0.25239956 -0.27584887 -0.9274707 
-0.32834014 -0.07276253 -0.94175285 
-0.005389058 -0.012293864 -0.9999099 
-0.012950892 -0.2586693 -0.9658792 
0.24669488 0.72488874 -0.643178 
0.2646756 0.49534228 -0.8273953 
-0.47747242 0.28963366 -0.8295376 
-0.3419205 -0.2543221 -0.9046606 
-0.4755439 -0.46679553 -0.7456273 
-0.4522554 -0.45861357 -0.7649436 
0.09158329 -0.5124164 -0.8538395 
0.31383955 0.05582977 -0.9478333 
0.20957506 -0.045194175 -0.97674763 
0.52294093 0.008117577 -0.8523303 
0.6873338 -0.11470458 -0.7172274 
0.36122352 -0.70494753 -0.61038244 
0.8996568 -0.26551193 -0.34658495 
0.93116707 -0.34594905 0.11509624 
0.41871953 -0.9073827 0.036476765 
0.34134904 -0.93955857 -0.026656816 
-0.6205952 -0.51734966 -0.58924615 
0.18954243 -0.6726348 -0.71528745 
0.11262095 -0.8807511 -0.4599937 
0.11728669 -0.3971077 -0.9102469 
0.19176643 -0.29062107 -0.93742466 
-0.020148003 -0.3662234 -0.9303088 
0.4222879 0.18769184 -0.88681716 
-0.18032478 0.5388816 -0.8228546 
-0.58578 -0.11357188 -0.8024732 
-0.08298361 -0.5671663 -0.8194122 
-0.5739258 -0.09847517 -0.8129648 
-0.66466963 0.19604895 -0.72095716 
-0.58092386 -0.552202 -0.597997 
0.20772614 -0.9504088 -0.23145829 
0.38169345 -0.60776573 -0.6963699 
0.34125328 -0.82569796 -0.44918725 
-0.21126103 -0.97540265 -0.062916294 
-0.26983353 -0.16838545 -0.9480698 
-0.057443257 -0.4320624 -0.9000125 
-0.4071902 -0.42355067 -0.8091977 
0.47078893 -0.16406806 -0.86685616 
0.76744676 -0.53579134 -0.35206997 
0.32129088 -0.87767935 0.35559988 
0.25654185 -0.9665328 -0.00081224076 
0.3650819 -0.77901113 -0.50976163 
0.26479772 -0.82017237 -0.5071485 
-0.28533697 -0.71194404 -0.64165294 
-0.023061031 -0.65165687 -0.7581633 
-0.088462986 -0.32452232 -0.9417322 
0.19711243 -0.8653179 -0.4608381 
-0.0680866 -0.882404 -0.4655397 
0.18378854 -0.52404565 -0.8316238 
-0.30693725 -0.013253996 -0.95163757 
-0.22402447 -0.11730961 -0.9674975 
0.3238843 -0.8592593 -0.39594495 
0.09838596 -0.8984071 -0.428001 
0.13225749 -0.5034309 -0.8538532 
0.037482213 -0.40735465 -0.9125006 
-0.1671142 -0.5112198 -0.8430464 
-0.6627506 -0.15712777 -0.73216975 
-0.47098544 -0.06039193 -0.8800713 
-0.31644192 0.26696554 -0.91027135 
0.037863016 0.594429 -0.80325615 
-0.79565084 0.5326972 -0.28839827 
0.24474004 0.88275534 -0.40105537 
-0.35008916 0.70052826 -0.6218504 
-0.10450752 0.44976526 -0.8870115 
-0.26879847 0.83186036 -0.48554692 
0.061564855 0.39787158 -0.9153732 
-0.5449262 -0.19008483 -0.8166537 
-0.5869003 -0.21031183 -0.7818676 
-0.49429947 -0.6552441 -0.5712471 
-0.080397144 -0.29843396 -0.9510382 
-0.18243226 -0.36557996 -0.91272664 
-0.48475295 -0.043546613 -0.8735665 
-0.18206379 -0.8858996 -0.42665544 
-0.4312215 -0.7720074 -0.46696118 
-0.33665794 -0.90861505 -0.24714415 
-0.57640207 -0.8138614 -0.07341976 
-0.814676 -0.29221675 -0.5009117 
0.5610132 -0.56939465 -0.60087764 
0.7622477 -0.06758776 -0.6437471 
0.40412208 -0.8991683 0.1678744 
0.05613215 -0.93068784 -0.36148238 
0.57979053 -0.3885636 -0.7161434 
-0.2232143 -0.73170567 -0.64403594 
0.13743708 -0.8309935 -0.539037 
0.62869287 -0.25309116 -0.7353164 
0.7498646 0.034531064 -0.66068965 
0.9631984 -0.26677614 -0.032853708 
0.5774867 -0.25713652 -0.77484834 
0.81116784 0.10124088 -0.5759836 
0.5867742 -0.5781107 -0.5669957 
-0.6892327 -0.44682172 -0.57035834 
-0.41775256 -0.8900334 -0.18254709 
0.23532404 -0.80288917 -0.5477148 
-0.0906635 -0.67118037 -0.735729 
0.050694026 -0.70665175 -0.70574325 
-0.34255436 -0.4742934 -0.8109885 
-0.05993216 -0.7855193 -0.6159283 
-0.036092795 -0.97479075 -0.22018246 
-0.53902626 -0.6672458 0.5140368 
0.09253994 -0.562207 -0.82180274 
0.4338381 -0.14529055 -0.88919926 
0.69810504 0.0065464545 -0.7159655 
0.6043877 -0.2613686 -0.7525969 
0.45732495 -0.12854245 -0.8799607 
0.13212588 -0.74914634 -0.6490937 
0.54635143 -0.7388278 -0.3945043 
0.32390708 -0.32303935 -0.8892299 
0.20988432 -0.77045846 -0.6019489 
0.41503194 -0.54936063 -0.72522515 
0.5680857 -0.76043475 -0.31467086 
0.16976458 -0.25248525 -0.9525919 
0.41901138 -0.35349807 -0.83634233 
0.17928717 -0.466923 -0.8659324 
-0.1382034 -0.21237755 -0.9673653 
0.23633368 -0.4872393 -0.84068084 
0.2428348 -0.74137706 -0.6256128 
-0.25302622 -0.19399263 -0.9478105 
-0.07093413 -0.4133409 -0.9078093 
0.30654877 0.0059119905 -0.95183665 
0.19199596 -0.90615404 -0.37685874 
0.36242658 -0.37824264 -0.8518096 
0.5903256 -0.36080575 -0.72203535 
-0.014265868 -0.8284537 -0.55987585 
0.36258063 -0.36404693 -0.8579075 
-0.11682812 -0.105739854 -0.98750716 
0.060858767 -0.27589262 -0.9592599 
-0.42453927 -0.56016505 -0.7113238 
-0.2977125 -0.6330491 -0.7145741 
0.34924066 -0.7830211 -0.51469314 
0.39353752 -0.89233285 -0.22106613 
0.41673812 -0.550169 -0.7236321 
-0.19762541 -0.91638684 0.3481082 
-0.16846539 -0.980973 -0.096496545 
0.07227415 -0.9481323 0.30955094 
-0.5771755 -0.8044829 0.1402706 
-0.34467918 -0.7701525 -0.5367136 
0.037699588 -0.9775071 0.20750551 
-0.32152906 -0.72324854 -0.61117154 
-0.77483314 -0.52777666 -0.3479736 
-0.010115776 0.21397689 -0.9767864 
-0.055429988 0.47073355 -0.8805325 
-0.501583 -0.4203842 -0.7561031 
-0.09982615 0.21891455 -0.97062415 
-0.40970427 0.682921 -0.60478216 
-0.5349503 0.12759285 -0.8351935 
0.15452328 -0.75139165 -0.64150846 
0.7575937 -0.65272224 -0.0023372462 
0.94736093 -0.29188022 -0.1315802 
0.515878 -0.286148 -0.8074585 
0.89404136 -0.21987545 -0.39031368 
-0.10446923 -0.9669645 -0.23252043 
-0.685407 -0.6979565 0.20754303 
0.20508651 -0.26051354 -0.9434364 
-0.5276424 -0.6363298 -0.56274134 
-0.17756091 -0.82132024 -0.54213023 
-0.25736776 -0.5604456 -0.78718656 
-0.22980267 -0.19832878 -0.95281506 
0.22844355 0.123102285 -0.96574295 
0.05330466 0.28189978 -0.957962 
-0.39621985 0.4512158 -0.7996338 
-0.6701976 0.6031981 -0.4324202 
-0.79241323 -0.32141402 -0.5184344 
-0.3567944 -0.8912819 -0.27984735 
-0.052799605 -0.99373806 -0.09847288 
0.026223488 -0.6800216 -0.732723 
0.49468547 0.0059026596 -0.86905205 
0.9123781 -0.07390159 -0.4026224 
0.4629378 -0.60382247 -0.64891225 
0.3531194 -0.75240254 -0.55605495 
0.7079876 -0.6589796 -0.25396764 
0.4788448 -0.7313449 -0.485636 
0.34270763 -0.9000962 -0.26903233 
0.19365084 -0.6031872 -0.7737343 
-0.36282897 -0.76965374 -0.525346 
0.39175844 -0.6136034 -0.68557733 
-0.027616624 -0.86071837 -0.50833184 
0.6782613 -0.7037159 -0.21153173 
0.3748668 -0.87015367 -0.31985563 
0.19599265 -0.8693942 -0.45358667 
0.6236191 -0.6359857 -0.4545563 
0.30906668 -0.9249786 -0.22111647 
-0.17803736 -0.8944177 -0.41026783 
0.6866987 -0.393738 -0.6110772 
0.8178585 -0.46145496 -0.34375402 
0.8079975 -0.52695054 -0.26355883 
0.026707068 -0.7357469 -0.6767298 
0.5164897 -0.2315042 -0.8244054 
0.31585217 -0.47154626 -0.8233357 
0.04239699 -0.9557114 -0.2912359 
0.7571154 0.25798875 -0.6001817 
0.68607 -0.7229514 -0.08154248 
0.051848155 -0.97986066 0.1928341 
-0.26194206 -0.01493512 -0.9649681 
0.1378534 0.20442614 -0.96912664 
-0.47088692 -0.33525538 -0.81600815 
-0.56994325 -0.62132555 -0.5376981 
-0.25934565 -0.5221837 -0.8124433 
-0.7383461 -0.4185447 -0.528834 
0.5097374 -0.30915725 -0.8028635 
0.19956602 -0.29300708 -0.935051 
-0.017158614 -0.8993776 -0.4368359 
-0.23655808 -0.22183096 -0.9459552 
-0.123936035 -0.33623934 -0.9335861 
-0.049493913 -0.17596759 -0.98315096 
-0.05889493 -0.7345399 -0.6760048 
-0.26252827 0.09635107 -0.9601018 
-0.8341488 -0.4142765 -0.36410272 
-0.19564776 -0.96212673 0.1898265 
-0.3782323 -0.8470814 -0.3733542 
-0.11784458 -0.8258351 -0.5514608 
-0.0011627728 -0.9304256 -0.3664792 
-0.6016503 -0.5356654 -0.59251964 
-0.29734814 -0.56812114 -0.7673477 
0.46573302 -0.77332485 -0.43018752 
0.39644885 -0.8990611 -0.18578917 
0.51469266 -0.35379055 -0.7809761 
0.9334446 -0.23026018 0.27506632 
0.650281 0.32301477 -0.6876017 
-0.13293473 0.6250244 -0.7692029 
0.57553 -0.30404106 -0.7591602 
0.2547463 -0.23780414 -0.93731195 
0.19264205 0.34056792 -0.9202731 
0.105051704 -0.025610061 -0.9941369 
0.4668604 0.34093484 -0.81596875 
-0.3165861 -0.2737493 -0.908204 
-0.329692 -0.82739854 -0.45465904 
-0.03798193 -0.5558535 -0.83041215 
-0.31044194 -0.8085353 -0.4998966 
-0.61077607 -0.40013027 -0.68326306 
-0.23702574 0.24002664 -0.9413852 
-0.65691435 0.086806715 -0.7489514 
-0.019727672 -0.10929857 -0.99381316 
-0.1350765 -0.31655678 -0.9389069 
0.3001852 -0.53569406 -0.7892533 
0.05844054 -0.6740155 -0.73640203 
0.50171506 -0.13070446 -0.8551014 
0.9725014 0.210954 0.09868873 
0.8391927 -0.16617624 0.5178236 
0.5029095 -0.416674 0.75727475 
-0.9665339 -0.22044511 0.13121039 
-0.88169676 -0.4700146 0.041196194 
-0.5829734 -0.009957221 -0.8124302 
-0.63390946 0.14925812 -0.7588681 
-0.44002026 0.03546258 -0.89728737 
-0.16414711 -0.37664467 -0.9116987 
-0.28138945 0.54158527 -0.79215235 
-0.14639357 -0.22506714 -0.9632829 
0.09320302 -0.34034628 -0.93566966 
-0.8190873 -0.38607305 -0.42431536 
-0.39881402 -0.0072799698 -0.917003 
-0.058030598 0.49032786 -0.86960393 
-0.33171427 0.32678124 -0.88497436 
-0.21074414 -0.25506696 -0.9436778 
-0.575933 -0.36483097 -0.7315734 
-0.39352164 -0.27890825 -0.87598574 
-0.4774879 -0.6575854 -0.5827408 
-0.17659403 -0.64721614 -0.7415699 
-0.07877524 0.8837228 -0.46133342 
0.002355017 0.6075797 -0.7942552 
-0.4794835 -0.15861513 -0.8630973 
-0.290693 0.47812298 -0.82879186 
-0.729848 0.2534735 -0.63488036 
-0.028017648 0.2650284 -0.9638335 
0.31596798 -0.05392215 -0.9472364 
0.483367 -0.5151879 -0.7077696 
0.5115224 0.43900812 -0.7386587 
0.56884533 -0.41036007 -0.71275496 
0.42194378 -0.15097262 -0.8939635 
-0.025392262 -0.083174296 -0.99621147 
0.018198354 -0.43327373 -0.90107864 
0.1851762 -0.86942786 -0.4580447 
0.59405315 -0.65251225 -0.47045583 
0.281668 -0.6271147 -0.72621644 
-0.23773068 -0.9121211 -0.33394513 
0.2502972 -0.70528096 -0.6632724 
-0.021945804 -0.2270469 -0.97363657 
0.16951308 0.05858456 -0.9837852 
0.122560434 -0.3870822 -0.9138634 
0.20697753 -0.39334357 -0.8957909 
0.5494423 0.51938874 -0.6544835 
0.43401924 0.45676136 -0.7765284 
0.011780259 -0.1407734 -0.98997176 
0.04672361 -0.59663576 -0.80115086 
0.7820544 0.17418665 -0.5983728 
-0.22445075 0.32858 -0.91741866 
-0.40691757 -0.55702215 -0.7239782 
0.34008908 -0.2391932 -0.9094647 
0.6943277 -0.37500262 -0.614233 
0.611662 -0.45668748 -0.64599246 
0.1283042 -0.7610543 -0.6358731 
-0.6207793 -0.15105338 -0.7692958 
0.3510254 -0.42961022 -0.83199537 
-0.20987001 -0.4866196 -0.8480307 
0.47160983 -0.11173034 -0.8747003 
0.5234778 0.20126416 -0.8279274 
0.02859691 -0.68008065 -0.73257947 
0.0662741 -0.88526917 -0.4603329 
-0.52440053 -0.5396243 -0.6586425 
-0.10991604 -0.9397773 -0.3236312 
0.29836893 -0.87634945 -0.37813717 
0.12073469 -0.06005684 -0.9908664 
0.14148511 -0.11957874 -0.9826917 
0.03908641 -0.23513506 -0.97117645 
0.11991846 -0.7049916 -0.699004 
0.62399113 -0.6701053 -0.40198767 
0.1983621 0.20836742 -0.95772415 
0.17680539 -0.105298854 -0.97859704 
0.12912223 -0.04723447 -0.99050313 
0.29248115 -0.18586473 -0.9380347 
0.044656206 -0.060698982 -0.9971567 
-0.06277987 -0.09457721 -0.99353606 
0.011788223 -0.023039749 -0.9996651 
0.32357198 -0.005431248 -0.946188 
-0.06921769 0.17562564 -0.98202074 
0.4036337 0.7868604 -0.46683037 
-0.26498106 0.9508907 -0.15997507 
-0.38858506 -0.42592403 -0.8170621 
-0.3272466 0.4296169 -0.84162885 
-0.388451 0.47414243 -0.7901233 
-0.26841807 0.26987845 -0.9247256 
-0.11529277 0.33577064 -0.93486136 
-0.1371122 -0.06256421 -0.9885777 
-0.5297095 0.18037166 -0.82877856 
-0.705992 -0.028648833 -0.70764023 
-0.6824899 0.4285275 -0.59209114 
-0.23298334 0.07387666 -0.96967065 
-0.4601961 0.36295876 -0.81023496 
-0.60166 0.6325752 -0.48770273 
0.0012986428 -0.8069508 -0.59061736 
-0.5192659 -0.6397392 -0.56665397 
0.11571766 -0.12691538 -0.9851406 
0.38200364 -0.5554482 -0.73861396 
0.007954683 -0.86531836 -0.5011595 
-0.13778205 -0.69147515 -0.7091391 
0.13977829 -0.6491782 -0.74768287 
0.18934591 -0.6866115 -0.7019351 
-0.51773775 -0.43264198 -0.7380844 
0.19129029 0.019483922 -0.98134017 
0.024978578 -0.005736935 -0.9996716 
-0.0914855 -0.17928672 -0.979534 
0.6158115 -0.09552144 -0.7820817 
0.8192679 0.06303753 -0.5699353 
0.6170169 -0.76936483 -0.16543278 
0.54263645 -0.5468633 -0.6375628 
0.13502371 0.025456231 -0.99051535 
-0.1282493 -0.431838 -0.8927867 
-0.37047753 -0.6403019 -0.6728744 
0.65473473 -0.28439045 -0.70031744 
0.6861313 -0.1702469 -0.7072764 
0.29323 -0.60169864 -0.7429502 
-0.34089622 -0.39791787 -0.8517342 
-0.48598686 -0.34987444 -0.80087745 
-0.66732377 -0.04467885 -0.7434264 
-0.15940548 -0.9732818 -0.1652649 
-0.5790301 -0.7862303 -0.21579203 
-0.5288924 -0.3474964 -0.7742862 
-0.42401055 -0.14258671 -0.8943625 
0.15112972 -0.30100825 -0.94156986 
-0.200152 0.22524057 -0.953523 
0.31501758 -0.856163 -0.40957153 
0.18448393 0.142816 -0.97240394 
-0.22865288 -0.30115503 -0.9257557 
0.017991837 -0.14279485 -0.9895888 
0.2903607 -0.02915198 -0.9564731 
0.29067853 0.04671294 -0.9556798 
0.04009287 0.15897247 -0.9864686 
-0.36743307 -0.033395723 -0.9294503 
-0.17378695 -0.7534893 -0.63407564 
-0.09250963 -0.19436298 -0.9765578 
0.0042943317 0.30532327 -0.95223916 
0.2242441 -0.25566098 -0.94039994 
0.083096676 -0.20152816 -0.9759515 
0.083882935 -0.25811288 -0.96246636 
0.11598329 -0.19150762 -0.9746142 
-0.44229892 -0.16960852 -0.8806842 
0.5050707 -0.26859403 -0.8202201 
0.8388091 0.06823697 -0.5401324 
0.92466897 -0.23574126 -0.29902056 
0.31639144 -0.30569255 -0.8980248 
-0.25094098 -0.24479254 -0.93653905 
0.39142814 0.0049585453 -0.9201954 
0.7821483 -0.2784978 -0.55738956 
-0.5412774 -0.047978316 -0.83947414 
0.10486305 -0.83736193 -0.53649676 
0.48233217 -0.3980283 -0.7803392 
-0.1639077 -0.31678906 -0.9342264 
-0.680746 -0.6306157 -0.3727046 
0.24028306 -0.6938231 -0.67887676 
-0.69483304 -0.65120536 -0.30518627 
-0.54954475 -0.8304067 -0.09178976 
-0.5231794 -0.749582 -0.40547526 
-0.0066648684 -0.82460177 -0.5656744 
-0.18644983 -0.24972343 -0.95019716 
-0.45131055 -0.28734833 -0.8448371 
-0.2948913 -0.1395186 -0.9452903 
-0.32936406 -0.17846084 -0.9271846 
-0.27511516 0.42991266 -0.8599342 
0.3797726 0.13356157 -0.9153874 
-0.08613805 0.0021671613 -0.99628085 
-0.43447998 0.045698754 -0.89952147 
-0.06647723 -0.59570396 -0.8004483 
0.6745045 -0.1390044 -0.7250666 
0.51877445 -0.72510034 -0.45288253 
-0.08736184 -0.9157289 -0.39218438 
0.47329617 -0.37191367 -0.79854304 
0.037593234 -0.16448621 -0.9856628 
0.172956 -0.8274685 -0.53421175 
-0.7359712 -0.6734994 -0.068884455 
-0.80762106 -0.46364897 -0.36438712 
-0.7793257 -0.2026985 -0.592929 
-0.12963547 0.010984375 -0.991501 
-0.35741445 -0.20795415 -0.9104999 
-0.61812305 0.74577403 -0.24848537 
-0.31862718 0.592693 -0.73972416 
-0.028203692 0.19168462 -0.98105127 
-0.27738696 0.26428837 -0.92369264 
0.40272257 0.15959197 -0.9013018 
-0.2425262 -0.88304067 -0.40177166 
-0.73920715 -0.46632776 -0.48591286 
-0.2784121 -0.8401807 -0.46538505 
-0.11159478 -0.4890448 -0.86509067 
0.71886045 -0.33229983 -0.610587 
0.5619442 -0.44214293 -0.6990911 
0.3790971 -0.18315843 -0.9070493 
0.12202755 -0.40285137 -0.90709436 
0.16886425 -0.6415337 -0.74827766 
-0.14758362 -0.85265774 -0.5011926 
-0.101849526 -0.86978716 -0.48280114 
0.07243825 -0.5210698 -0.85043466 
0.15018462 -0.64993286 -0.74500465 
-0.30301657 -0.6347608 -0.7108162 
0.19306625 -0.64372534 -0.740502 
-0.26517826 -0.5594151 -0.785325 
-0.4352462 -0.76100636 -0.48107183 
-0.4253086 -0.4593234 -0.7798298 
0.37247264 -0.66013175 -0.6522961 
-0.22531368 -0.7659391 -0.6021388 
-0.1058521 -0.8008864 -0.58938634 
0.29905963 -0.8759583 -0.37849754 
0.6229195 -0.67542356 -0.39468265 
0.26769283 -0.23091419 -0.9354247 
0.52122843 -0.6266707 -0.579314 
0.34532392 -0.44043678 -0.828714 
0.014753777 -0.5342133 -0.84522104 
0.43602884 -0.73060113 -0.5254531 
0.37269166 -0.54881454 -0.74826705 
0.6468892 -0.75509655 -0.10660001 
-0.09587314 -0.9281686 -0.35959914 
0.1311037 -0.47557566 -0.86985046 
-0.43159014 -0.072028406 -0.89918965 
0.22795822 0.35259506 -0.9075857 
0.09502665 -0.59102976 -0.801033 
0.09343721 -0.3302957 -0.9392414 
-0.44458544 -0.37822157 -0.8119681 
-0.29088777 -0.33487102 -0.89623976 
0.3371319 -0.057482876 -0.939701 
-0.59698457 -0.007005195 -0.8022222 
0.26699677 -0.30182755 -0.9152119 
0.11031669 -0.5549896 -0.82451004 
0.32835755 0.16763881 -0.92955834 
0.90542644 0.22620037 -0.3592165 
-0.05172937 0.3455687 -0.9369666 
-0.7343939 -0.1258482 -0.66695416 
-0.7714372 -0.48331407 -0.41387478 
-0.19622976 -0.82431847 -0.53103024 
0.012505209 -0.52537274 -0.8507803 
-0.7363906 -0.38381952 -0.5571459 
-0.18713649 -0.24978475 -0.95004606 
-0.36001244 -0.043160524 -0.9319486 
0.36042634 -0.3713189 -0.8556958 
0.6071926 -0.63289165 -0.48038048 
0.8051145 -0.4949079 -0.32688984 
0.8963848 -0.24274224 -0.37090525 
0.62324077 0.022285873 -0.7817124 
0.5431251 0.5162195 -0.662218 
0.3029594 -0.06956458 -0.95046115 
-0.27176043 -0.00605158 -0.962346 
0.3127632 0.30635887 -0.8990681 
0.43331438 -0.047533814 -0.8999885 
-0.28638282 -0.11197481 -0.9515496 
0.1666878 -0.41538933 -0.89424103 
0.0873969 -0.85134 -0.5172834 
0.043407094 -0.6850326 -0.7272181 
-0.03765099 -0.42587766 -0.9039971 
-0.5106182 0.20084149 -0.83602136 
-0.6874851 -0.20513126 -0.6966243 
-0.3624363 -0.6189462 -0.696811 
-0.19545378 -0.4380591 -0.8774407 
-0.04809523 -0.5595665 -0.8273888 
0.2637475 -0.76160616 -0.59194034 
0.61477435 -0.5275619 -0.58628577 
0.5790363 -0.25766104 -0.7735165 
0.7946121 -0.45513117 -0.40180495 
0.32001063 -0.86696154 0.38206145 
-0.062293217 -0.9775367 -0.20134984 
-0.74100494 0.02881459 -0.6708811 
-0.8641531 0.18131365 -0.4694304 
-0.92654806 -0.17598963 -0.33247012 
-0.5245977 0.062296394 -0.8490681 
-0.20478217 -0.19212447 -0.959767 
-0.109252416 -0.49144906 -0.8640265 
-0.5666407 0.15374793 -0.8094937 
-0.35605556 0.04263452 -0.93349177 
-0.1595212 -0.64176166 -0.75013 
-0.17218588 0.6369921 -0.75139415 
-0.22344108 0.34718043 -0.91079074 
-0.20402227 0.33948427 -0.9182186 
0.26598576 0.6764782 -0.6867524 
-0.61305904 -0.0831153 -0.7856529 
-0.53142387 -0.6542753 -0.5380638 
-0.33931842 0.100387454 -0.93529963 
0.09324643 -0.1594002 -0.9828004 
-0.43220013 -0.3523319 -0.8300995 
-0.6060534 0.4047176 -0.6847649 
0.14219844 0.66586596 -0.7323948 
0.38238493 -0.20880727 -0.9001007 
0.2131744 -0.09578902 -0.9723072 
-0.5681307 -0.5509001 -0.61134005 
-0.18855551 0.4056872 -0.8943516 
-0.019851113 -0.14899652 -0.98863846 
0.33267027 -0.098274864 -0.9379087 
0.37912518 0.29653794 -0.8765441 
0.58765364 0.03900305 -0.808172 
-0.2741889 0.5970596 -0.75388354 
-0.17423356 -0.35242066 -0.91947937 
0.030983716 -0.5690249 -0.82173645 
0.27220267 -0.54226637 -0.7948918 
0.5103854 -0.3652405 -0.7785282 
0.3184851 -0.1670667 -0.93308944 
0.12114657 0.20978521 -0.9702133 
0.2999576 -0.73471034 -0.6084622 
0.6783771 -0.22235216 -0.70026004 
-0.073025905 0.04711212 -0.9962167 
-0.59162146 0.10038539 -0.79994184 
-0.04726757 0.23621178 -0.97055125 
-0.02913623 0.75622934 -0.6536576 
0.17010815 0.10175536 -0.9801577 
0.47619092 -0.1921649 -0.858088 
0.7274482 -0.07996195 -0.68148756 
0.101534486 -0.5986087 -0.7945807 
0.44075388 0.12194064 -0.88930684 
-0.09852552 0.10990558 -0.9890468 
0.67684585 0.30280414 -0.6709616 
0.6366389 -0.35219854 -0.68603736 
0.11522081 -0.46051127 -0.8801441 
0.4916398 -0.33887115 -0.80215746 
-0.4920174 0.31465223 -0.81173456 
-0.3402441 0.19294469 -0.92032945 
0.093420096 -0.4888433 -0.8673552 
0.033162996 -0.25682998 -0.9658874 
0.23686378 0.20192313 -0.95032763 
0.26998112 -0.2317877 -0.9345506 
0.32885677 -0.48637575 -0.80950105 
-0.29209715 -0.45041767 -0.8436844 
0.4524358 -0.4672674 -0.7595809 
-0.2501628 -0.21650071 -0.9436875 
0.55862373 0.13062711 -0.8190703 
-0.47782084 0.5207178 -0.70748866 
-0.2560755 0.2550713 -0.93239695 
-0.22020979 -0.2756346 -0.93569934 
0.3637028 -0.3028997 -0.88089275 
0.05383965 0.10455745 -0.99306047 
0.068218425 0.057255533 -0.9960262 
-0.23178364 -0.1751426 -0.9568707 
0.12726554 0.47220656 -0.8722526 
0.073115274 0.23499253 -0.9692434 
-0.25320876 -0.049627375 -0.96613795 
-0.20810182 0.031038819 -0.9776146 
-0.25239637 0.17197421 -0.95221895 
-0.023919974 -0.11735287 -0.99280214 
0.055340733 0.3720635 -0.9265561 
-0.20256302 0.75749636 -0.62061876 
0.07537225 -0.24926399 -0.96549815 
-0.5086742 0.0026902463 -0.86095494 
-0.263194 0.19712573 -0.9443889 
-0.4528211 0.25003687 -0.855824 
-0.2588286 0.38202515 -0.8871667 
0.21811871 0.017899044 -0.9757581 
-0.21661784 0.32441866 -0.9207765 
-0.50830984 0.51901585 -0.68719995 
-0.2425334 -0.4005022 -0.883615 
0.18969116 0.067550324 -0.9795174 
0.24269265 0.40849477 -0.87990475 
-0.009735484 0.21390091 -0.9768069 
0.27520758 0.028637944 -0.9609583 
0.14091693 -0.6370458 -0.75783575 
0.23482235 -0.5419985 -0.8069054 
0.021900699 -0.057191245 -0.99812305 
0.33849955 -0.37953758 -0.8610281 
-0.052722324 -0.5536983 -0.83104676 
-0.513625 -0.09769775 -0.8524346 
-0.06991437 0.07848797 -0.9944605 
-0.29314405 -0.10526558 -0.95025563 
-0.14154698 -0.37631294 -0.9156163 
0.08975497 0.13504957 -0.9867653 
-0.008921927 0.05319181 -0.99854445 
-0.05118306 -0.19745485 -0.97897494 
0.06432712 0.05530038 -0.9963955 
0.13743365 -0.76359767 -0.6308966 
0.16336118 0.4082604 -0.8981295 
0.068604305 0.40401107 -0.9121779 
0.07911199 -0.580385 -0.81049025 
-0.4010814 -0.5255179 -0.75030965 
-0.07707702 -0.14517185 -0.9863997 
0.27118006 -0.2863604 -0.9189446 
-0.059976965 -0.022504866 -0.9979461 
0.037969284 0.32281208 -0.94570124 
-0.017684704 0.477578 -0.8784115 
-0.24053635 0.09366471 -0.96611035 
-0.8046233 -0.19567992 -0.56061643 
-0.8263627 -0.1237468 -0.54937375 
-0.5335973 -0.6798088 -0.5031242 
-0.15549372 -0.24466816 -0.9570576 
-0.11116811 -0.12939185 -0.98534226 
-0.098801374 0.38395897 -0.9180489 
0.3602474 -0.30544758 -0.8814327 
-0.06099841 -0.3523635 -0.9338733 
0.2515754 -0.19310921 -0.94837683 
0.012970774 -0.78800404 -0.6155334 
0.17792691 0.29609343 -0.9384406 
0.22589357 0.17779857 -0.95778906 
-0.18477039 0.26830128 -0.94544935 
-0.21226428 0.025213223 -0.97688705 
-0.011970241 -0.07055913 -0.99743587 
0.4497936 -0.079575665 -0.8895806 
0.7695549 0.104083866 -0.6300412 
0.25738475 0.8608243 -0.43901563 
0.16246694 -0.15653595 -0.97421813 
-0.160375 -0.30270767 -0.9394935 
-0.030230505 -0.2694286 -0.9625458 
0.25085616 -0.6694785 -0.6991922 
0.31319016 -0.6662347 -0.6767889 
-0.32944992 -0.0883583 -0.9400296 
0.23086625 -0.9410804 -0.24712065 
-0.22873601 -0.5898887 -0.77441025 
-0.51777446 -0.3926163 -0.76010674 
-0.25557378 0.16566761 -0.9524895 
0.42432642 0.49453384 -0.7585404 
0.7860355 0.2576623 -0.5619238 
0.19481124 -0.5950119 -0.7797497 
0.30464068 -0.73252034 -0.60877585 
0.12686536 -0.48254615 -0.8666341 
-0.24332254 -0.7850274 -0.569672 
0.16992098 -0.8539504 -0.49182883 
-0.27468708 -0.6875343 -0.67219317 
-0.15041639 -0.7941162 -0.58885866 
-0.73966247 -0.2168412 -0.6370866 
-0.63367295 -0.07400678 -0.770053 
-0.34608418 -0.3979902 -0.84960556 
-0.67233354 -0.41692212 -0.61167276 
-0.67758703 -0.106427975 -0.7277012 
-0.6209258 -0.18521068 -0.7616746 
-0.3009811 -0.09719851 -0.9486638 
0.1979661 0.013722981 -0.98011285 
-0.015563876 -0.04968082 -0.9986439 
-0.2661302 -0.3224955 -0.9083895 
-0.21176228 -0.27481502 -0.93788785 
-0.11838559 0.17202502 -0.97795314 
0.4679265 -0.37276512 -0.80130583 
-0.7972609 -0.21451186 -0.56423396 
0.2796018 -0.40882513 -0.8687261 
-0.20829739 -0.28279886 -0.93628895 
0.128871 -0.87110287 -0.47389027 
-0.1487796 -0.891842 -0.42717978 
-0.664059 -0.6134235 -0.4274778 
-0.24438533 -0.5860438 -0.77254677 
0.047970455 -0.47341222 -0.8795339 
-0.21128061 -0.13838476 -0.9675796 
0.111414924 0.2526935 -0.9611102 
-0.1624136 0.5884073 -0.79208505 
0.39114243 0.15580085 -0.90704674 
-0.0948092 0.10547057 -0.98989254 
0.04270438 -0.61117035 -0.7903463 
0.2768814 -0.055588935 -0.9592949 
-0.5935166 -0.5742601 -0.5638826 
-0.09637929 -0.2773153 -0.9559327 
0.3385527 -0.09994822 -0.9356242 
0.80179745 -0.5852555 -0.1208172 
-0.01669806 -0.08830871 -0.9959532 
-0.13966583 -0.5631734 -0.8144503 
-0.34792206 -0.10366958 -0.9317741 
-0.30148366 0.22107211 -0.92748845 
-0.4196798 -0.74611455 -0.51689655 
-0.45714098 -0.7586261 -0.46422902 
0.20247334 -0.21199001 -0.9560674 
-0.67389846 -0.12123885 -0.72880864 
-0.6451133 0.03181367 -0.76342446 
-0.18179622 -0.38423523 -0.9051593 
-0.23233636 -0.38843387 -0.89170575 
0.18272252 -0.95981187 -0.21301082 
0.16673087 -0.76134956 -0.6265363 
0.66200644 -0.7059132 -0.25186118 
-0.2232347 -0.8353748 -0.5023101 
-0.0757733 -0.52008307 -0.850748 
0.06968308 -0.5797865 -0.8117833 
0.45583507 -0.27779722 -0.84560215 
0.26124385 -0.37147316 -0.8909317 
0.5139834 -0.14544618 -0.84537953 
0.10426434 0.2670082 -0.95803744 
0.23800926 -0.22099774 -0.9457863 
0.36952013 -0.53969574 -0.756428 
0.11859247 -0.9321612 -0.34206912 
0.7536601 -0.458418 -0.4710088 
-0.39993483 -0.29345044 -0.8682966 
0.012162589 0.25210217 -0.9676242 
-0.2985 0.5538229 -0.7772889 
-0.062563926 0.02619404 -0.99769723 
-0.38828143 -0.4385077 -0.81052357 
0.37738952 0.6270681 -0.6814418 
-0.06797132 0.4054336 -0.911594 
-0.70552987 -0.1857392 -0.68390685 
0.01349995 -0.4236732 -0.9057146 
0.24186206 -0.048099123 -0.9691178 
0.093373366 0.07204161 -0.9930214 
-0.17833593 -0.12427454 -0.9760903 
-0.09482452 0.41516283 -0.90479183 
0.32358134 -0.06112893 -0.94422376 
-0.08806431 -0.15323685 -0.9842577 
-0.31436968 -0.046560455 -0.94815814 
-0.67627263 -0.5319026 -0.50964206 
-0.2993136 -0.3019994 -0.90510094 
-0.061413728 -0.38005087 -0.9229246 
0.036020912 -0.59627855 -0.8019692 
0.40314317 -0.66889644 -0.6245425 
-0.7299357 0.43547508 -0.52683526 
0.28737915 0.18205152 -0.94035655 
0.16095601 -0.17680097 -0.97099674 
0.837933 0.33706042 -0.42925352 
0.8298378 -0.025323868 -0.5574298 
0.6922249 -0.32522893 -0.64424443 
0.31706697 0.6575609 -0.6834342 
0.10861093 0.7811957 -0.6147657 
0.5608111 0.27238244 -0.781856 
0.9314261 0.08574509 -0.35368544 
0.49236503 -0.17396869 -0.85282576 
0.28853115 -0.5547898 -0.7803578 
-0.33826435 -0.08202718 -0.9374694 
0.7904325 0.0028796166 -0.6125424 
-0.23183267 -0.38994697 -0.89117616 
-0.45325252 -0.13464537 -0.88115424 
-0.3910849 0.91333044 -0.11349166 
-0.40996686 0.21527468 -0.88633186 
-0.32416072 0.027447797 -0.9456038 
0.40100983 -0.35310096 -0.84528744 
0.60613513 -0.7146033 -0.34920242 
0.49924773 -0.5350195 -0.6815467 
0.38905913 0.24422537 -0.88824934 
0.020377621 0.39150298 -0.9199512 
0.14207534 -0.21874729 -0.96538305 
0.269825 -0.3220844 -0.9074449 
0.4694281 -0.8202677 -0.32680023 
-0.69008124 -0.059136882 -0.72131187 
-0.27544698 0.017375072 -0.9611593 
-0.91281736 -0.21655844 -0.34621793 
-0.51290196 0.27781308 -0.812251 
-0.43687376 0.16682126 -0.8839186 
0.43260238 -0.48205438 -0.7618916 
0.045329414 -0.20292816 -0.9781439 
0.10422671 -0.119163945 -0.98738885 
-0.61105233 -0.21648178 -0.7614137 
0.034094285 0.30671316 -0.95119125 
0.31865054 0.49223343 -0.810042 
-0.11459181 0.32467148 -0.9388595 
-0.089459874 0.24636456 -0.9650397 
0.11577189 -0.07171988 -0.9906832 
0.29790714 -0.29015437 -0.9094294 
-0.1577274 -0.14765368 -0.97638136 
-0.5946102 0.23945308 -0.76752925 
0.14494471 0.66840696 -0.7295363 
-0.65309805 0.51652825 -0.55377024 
-0.46622303 0.48402348 -0.74051166 
0.1138326 0.3890007 -0.9141776 
0.40017578 0.36975515 -0.8385348 
0.47934 0.28739524 -0.8292389 
-0.124605685 0.44696417 -0.88583094 
0.019194525 0.044742964 -0.9988141 
-0.42975244 0.034676656 -0.90228075 
-0.2066245 0.30530983 -0.9295657 
0.45642668 0.20042536 -0.86689353 
0.11746473 0.1233528 -0.9853864 
0.20177677 -0.24648646 -0.9479085 
0.36358154 -0.3290279 -0.8715212 
0.7649695 -0.21827653 -0.6059514 
0.42952797 0.084379755 -0.8991028 
0.31073692 -1.0426223e-05 -0.95049596 
-0.062035784 -0.04017677 -0.997265 
0.17392634 -0.5193406 -0.83668095 
0.41332865 -0.46264452 -0.7842957 
-0.021917744 0.09965553 -0.99478066 
0.14616305 0.17522277 -0.9736187 
0.39696053 0.23781948 -0.88648987 
0.035573952 0.8267109 -0.5615012 
0.3183171 0.7345405 -0.59927 
0.5101546 0.27754885 -0.81406933 
0.60625404 -0.24197464 -0.75756466 
0.793834 -0.31793538 -0.5184061 
0.6399101 -0.5677807 -0.5178226 
0.5182934 0.43314084 -0.73740155 
0.37448704 0.007767784 -0.92719966 
0.13363454 -0.43405622 -0.8909192 
-0.58595777 -0.4563906 -0.66959774 
-0.23048718 0.35287258 -0.9068388 
0.3885904 0.3890082 -0.8352666 
0.4904159 0.020814912 -0.87124 
0.56274796 -0.07967472 -0.8227799 
0.2249722 -0.19472021 -0.95471025 
0.03131164 0.51743287 -0.8551508 
-0.43248716 -0.020311374 -0.90141135 
-0.18438984 0.0983222 -0.97792286 
-0.22184561 -0.05603608 -0.97347033 
-0.31608218 -0.020723661 -0.9485055 
-0.08869749 -0.5286561 -0.8441892 
-0.23050019 0.110545814 -0.9667726 
-0.15189336 0.06825369 -0.98603743 
0.060229637 0.71535724 -0.69615835 
-0.65177345 0.17382339 -0.73822546 
-0.15936464 0.18758796 -0.9692336 
0.10366212 -0.17687866 -0.9787585 
0.03625893 0.73735446 -0.67453223 
0.3754975 -0.08595417 -0.9228291 
0.42377585 0.34514916 -0.8374283 
0.5420876 0.49596047 -0.67835414 
0.5006176 0.03442713 -0.86498374 