# OOMMF: rectangular mesh v1.0
# Segment count: 1
# Begin: Segment
# Begin: Header
# Desc: Time (s) :  8.860000000000024e-07
# Title: m
# meshtype: rectangular
# meshunit: m
# xbase: 2e-09
# ybase: 2e-09
# zbase: 5e-10
# xstepsize: 4e-09
# ystepsize: 4e-09
# zstepsize: 1e-09
# xmin: 0
# ymin: 0
# zmin: 0
# xmax: 1.024e-06
# ymax: 1.024e-06
# zmax: 1e-09
# xnodes: 256
# ynodes: 256
# znodes: 1
# ValueRangeMinMag: 1e-08
# ValueRangeMaxMag: 1
# valueunit: 
# valuemultiplier: 1
# End: Header
# Begin: Data Text
-0.26013958 -0.10213267 -0.9601543 
-0.20181076 -0.40153077 -0.893334 
-0.48968476 0.23275422 -0.8402585 
-0.30636296 -0.5377974 -0.7854399 
0.01769419 -0.03539907 -0.9992167 
0.21635202 -0.12324636 -0.96850514 
0.022190262 -0.6215699 -0.7830444 
0.23954433 -0.47980976 -0.84403855 
0.06405049 -0.90659314 -0.41711685 
-0.2838832 -0.21038997 -0.93549263 
0.18810888 0.14680724 -0.9711142 
-0.13067769 -0.08663477 -0.9876324 
-0.59663105 -0.25538772 -0.7607947 
-0.29620177 -0.5386798 -0.788726 
0.10043 0.0019624552 -0.99494225 
-0.25105247 0.24423827 -0.93665385 
-0.34161085 -0.6223688 -0.7042437 
0.1264007 0.42404336 -0.8967777 
0.2777059 -0.4291425 -0.859486 
0.62364477 0.077222176 -0.7778843 
0.13095988 -0.44231126 -0.88724875 
0.73480165 -0.6075088 -0.30166155 
0.6041203 -0.7259906 -0.32859752 
0.59027743 -0.7658567 -0.25502202 
0.021354593 -0.10146869 -0.99460953 
0.7522661 -0.3580023 -0.55310947 
0.33272117 -0.80249757 -0.49527216 
-0.20529623 -0.82530624 -0.5260447 
0.03205181 -0.030836781 -0.9990104 
-0.10314584 -0.5939323 -0.79787564 
-0.5137175 0.10398599 -0.85163444 
0.59529406 -0.049029715 -0.8020108 
0.89845806 -0.43606633 -0.051179197 
0.28896502 -0.30160385 -0.90858924 
0.32523113 -0.20434646 -0.9232915 
0.52704173 0.3816833 -0.7593056 
0.4936687 0.35730666 -0.79285765 
0.19609211 0.4834243 -0.85314065 
-0.69633 -0.6262145 -0.35068503 
-0.1810064 0.14982343 -0.972003 
0.1992775 -0.34502694 -0.9171941 
0.6362921 -0.26435712 -0.72473973 
0.7443231 -0.61945134 -0.24952608 
0.3656271 -0.4410905 -0.81960726 
0.041786756 -0.38543782 -0.92178714 
-0.18063767 0.38649088 -0.9044307 
0.48999804 0.062412333 -0.8694865 
0.02119254 -0.18758526 -0.98201966 
0.4609298 -0.5849985 -0.6673234 
-0.12276188 -0.06513839 -0.99029624 
0.32041752 -0.18896964 -0.92823654 
-0.10275328 -0.34913796 -0.9314207 
0.41800892 0.18184817 -0.890056 
0.5687706 -0.17637503 -0.80336285 
0.14296399 -0.20996572 -0.9671999 
-0.97186625 0.11003823 -0.20824894 
-0.73200274 0.16521032 -0.6609672 
-0.3959189 -0.8493363 -0.3491074 
-0.1031029 -0.76276237 -0.63840705 
0.4588779 -0.38985798 -0.7983995 
0.5841813 -0.50251 -0.6373507 
0.25921956 -0.9465743 -0.1918399 
0.58493805 -0.39063722 -0.7108095 
-0.20528342 -0.7275087 -0.65466774 
0.5168955 -0.04186685 -0.8550241 
0.15890308 -0.5748972 -0.8026476 
0.057651304 -0.24820651 -0.9669902 
-0.7700406 -0.16222286 -0.6170263 
-0.34144628 -0.4248887 -0.8383819 
0.1477672 -0.48538768 -0.8617214 
-0.33415863 -0.28602576 -0.8980687 
-0.5814544 0.04334097 -0.8124238 
-0.11242663 -0.2569029 -0.95987564 
0.046271153 -0.7340221 -0.67754745 
0.3687902 0.14378795 -0.9183239 
0.11244108 0.12086899 -0.9862797 
0.7095952 0.1615665 -0.685836 
-0.37504643 -0.92692083 -0.012572026 
-0.39402112 -0.5383981 -0.74489933 
-0.3111951 -0.65814006 -0.6855723 
-0.6233304 0.25304112 -0.7398848 
-0.5441562 -0.5573421 -0.6271075 
-0.11111471 -0.8741528 -0.47276902 
0.19174558 -0.6003387 -0.7764194 
-0.3834824 -0.33557856 -0.86042345 
0.2216691 -0.15737912 -0.9623381 
-0.59938073 -0.0029400988 -0.8004587 
-0.7710533 -0.62098694 0.14089778 
-0.7995887 -0.5633368 -0.2081095 
-0.319025 -0.5344976 -0.78264636 
0.12481782 -0.63362104 -0.7635083 
0.043714356 -0.99820673 -0.04089469 
-0.15588215 -0.94337153 -0.29283246 
-0.1630939 -0.91156346 -0.37742862 
-0.15366109 -0.5532459 -0.81872296 
-0.2509177 -0.07100994 -0.9654004 
0.5536751 -0.08288938 -0.8285972 
0.33080858 -0.85136986 -0.40710583 
0.5775427 -0.6974869 -0.42421287 
0.102692224 -0.33045033 -0.93822014 
0.8196778 -0.25448078 -0.51319385 
0.29189888 -0.92485756 -0.24379002 
-0.44165507 -0.8895654 0.116680644 
-0.5778968 -0.6870758 -0.44041157 
-0.5464798 -0.6074647 -0.576495 
-0.06437652 -0.46775025 -0.88151324 
-0.29620698 -0.6235954 -0.72345716 
-0.5823826 0.12159625 -0.8037691 
-0.43707335 -0.595215 -0.6743042 
0.34151158 -0.513356 -0.7872965 
0.40924567 -0.10251288 -0.90664726 
0.44425806 -0.539978 -0.7148837 
0.3122948 -0.9369577 0.15678741 
0.6414822 -0.704094 0.3045526 
0.3887812 -0.8828356 -0.26353478 
-0.32407779 -0.23011193 -0.9176177 
-0.10199871 -0.8334454 -0.5431068 
0.09314449 0.9018472 -0.42189544 
0.35595855 0.6520716 -0.6693999 
0.19371589 -0.2505685 -0.9485197 
-0.47326663 -0.7357649 -0.48442626 
0.2089334 -0.2900124 -0.9339377 
0.74866956 -0.15207013 -0.6452663 
0.21618043 0.11663468 -0.96936184 
-0.21110451 0.11860481 -0.9702412 
-0.36486852 0.41930208 -0.83129823 
0.5348869 -0.13540776 -0.8340029 
0.09297974 -0.6638284 -0.74208266 
0.37301233 -0.9129776 -0.16532964 
-0.5788226 -0.71079004 -0.39967737 
-0.22024141 -0.46054083 -0.8598814 
0.10078461 -0.9647532 -0.2430922 
-0.4283801 -0.63561326 -0.642251 
-0.06586293 0.03808815 -0.9971015 
-0.21947603 -0.5735561 -0.7892171 
-0.13659127 -0.62946045 -0.7649329 
-0.05216205 -0.10748363 -0.9928376 
0.22528113 -0.86834025 -0.4418525 
0.39176625 -0.9192653 0.03834994 
0.078220084 -0.80293953 -0.5909059 
-0.2698657 -0.15467127 -0.95039433 
-0.4323595 -0.14663039 -0.8896994 
-0.80768424 -0.1252951 -0.5761486 
-0.555345 0.22684677 -0.8000829 
-0.41605 -0.0054652174 -0.9093254 
-0.40704566 -0.8059812 -0.42977685 
0.11399494 -0.96707153 -0.22754756 
0.11014625 -0.09963244 -0.9889091 
0.47736946 0.18996766 -0.85792243 
0.54232633 -0.31208822 -0.78005326 
0.44252005 -0.37635377 -0.81396174 
0.55718154 -0.7659963 0.32062227 
0.19708316 -0.94858676 0.24767183 
-0.96397537 -0.07549089 -0.25505432 
-0.1626831 -0.67831165 -0.7165386 
-0.14037117 -0.026059221 -0.9897559 
-0.91866887 -0.029165143 -0.39395046 
-0.8202791 -0.42093 -0.387247 
-0.26954886 -0.73510975 -0.62205875 
0.04053497 -0.88219553 -0.46913537 
-0.5400159 -0.83842933 -0.07361579 
-0.4755562 -0.24788441 -0.8440378 
-0.43506503 -0.8294571 -0.3503131 
-0.7425132 -0.5350278 -0.40301296 
-0.014692426 -0.4395323 -0.8981067 
0.28763014 -0.52451915 -0.80134183 
-0.35473433 0.23277979 -0.9055259 
0.07982752 -0.56054014 -0.82427084 
0.18928888 -0.38255185 -0.9043361 
-0.68952096 -0.26399904 -0.6744371 
-0.035523087 -0.3364944 -0.9410153 
-0.011395867 -0.8255949 -0.5641481 
0.045989003 -0.81951857 -0.5712044 
-0.023900853 -0.73110974 -0.6818412 
0.33573297 -0.20139875 -0.920175 
0.6025078 -0.20280759 -0.7719154 
-0.30844182 -0.4525102 -0.83671874 
-0.3568602 -0.82414985 -0.43980438 
0.06710754 -0.99690205 0.041024532 
-0.27268848 -0.7212466 0.63674515 
-0.44418007 -0.7847096 -0.43235984 
-0.7713939 -0.61356956 -0.16877216 
-0.44539315 -0.3616361 -0.8190508 
0.05020822 0.30374345 -0.9514301 
0.11733363 -0.34210816 -0.9323062 
0.33359647 0.4399207 -0.83377653 
-0.56332046 0.49900365 -0.65853274 
-0.30048713 -0.392184 -0.86942476 
-0.42637727 0.17784387 -0.88689005 
0.379943 0.6895329 -0.6165938 
0.09050863 -0.46946582 -0.8782995 
0.12119632 -0.8883432 -0.4428972 
0.29795063 -0.94649047 -0.12402167 
0.6019278 -0.6173661 -0.5064999 
-0.8441212 -0.50596523 -0.1773658 
-0.30651748 -0.58067113 -0.75423354 
-0.29940844 -0.387022 -0.8721058 
0.2564346 -0.50563663 -0.8237554 
-0.21154326 -0.63462734 -0.7433019 
0.0012823042 -0.3052145 -0.95228285 
0.3144648 -0.107178465 -0.9431992 
-0.63731706 -0.3613413 -0.68063164 
-0.8296364 -0.347073 -0.43731448 
-0.55039483 0.60981154 -0.57025903 
-0.20922828 0.71321106 -0.6689945 
-0.42262647 0.07573221 -0.9031343 
0.25302687 -0.26508692 -0.9304334 
0.49407962 -0.61867785 -0.61083806 
0.19746089 -0.97930175 -0.044466235 
-0.18529384 -0.9400974 0.28615245 
0.6458472 -0.73180246 0.21759269 
-0.70865315 -0.67877173 -0.19256102 
-0.40739408 -0.62952036 -0.66161484 
-0.32105675 -0.89166707 -0.31914327 
0.19366857 -0.8656007 0.46176615 
-0.54027134 -0.8261974 0.15970275 
-0.33877233 -0.94056815 -0.023768574 
-0.95409 0.25373355 -0.15915886 
-0.39327884 0.53469634 -0.7479516 
-0.21153468 0.0983201 -0.97241265 
-0.58897394 0.0027368392 -0.8081475 
-0.06345786 -0.941498 -0.33099046 
-0.13010702 -0.9651434 -0.22709127 
-0.70937085 0.15111694 -0.6884452 
-0.9166826 0.37968212 -0.12463743 
-0.6131284 0.062232997 -0.78752816 
-0.4244601 0.13958016 -0.89462346 
0.24586721 -0.12733364 -0.9609035 
-0.14765449 -0.40186265 -0.90371716 
-0.86415505 -0.33886793 -0.3720276 
-0.9054099 -0.25584665 -0.33878544 
-0.8795461 -0.23128319 -0.41582057 
-0.7484377 -0.6065842 -0.26813564 
-0.9803622 -0.19647816 -0.01692675 
-0.075022705 0.124045916 -0.9894363 
0.11135981 -0.3553022 -0.9280945 
0.07234966 -0.059753615 -0.9955879 
0.32146728 -0.6975173 -0.64041275 
-0.2909738 -0.95454854 -0.06458679 
-0.49611732 -0.7317058 -0.46741244 
0.084651925 -0.73655534 -0.6710591 
0.2628272 -0.43320328 -0.86212355 
-0.17659386 -0.08661786 -0.98046523 
-0.5895231 -0.4904625 -0.64180154 
-0.34851784 -0.93324953 -0.087067835 
-0.042121645 -0.44566 -0.8942108 
0.17279537 -0.32155284 -0.9309917 
0.34048665 -0.3772969 -0.8612293 
0.07543351 -0.9426551 -0.32513252 
-0.011992977 -0.90919095 -0.4162068 
-0.862421 -0.22671151 -0.45258367 
-0.6541475 -0.7099426 -0.2609074 
-0.061832283 -0.8996958 -0.432116 
0.15126802 -0.9871525 -0.051458053 
-0.5612166 -0.82101977 -0.10470241 
0.3973222 -0.9175907 -0.012743998 
0.042785045 0.071687 -0.99650913 
0.13811195 -0.32185626 -0.936661 
-0.1531664 -0.15165448 -0.9764943 
-0.50993633 -0.6819305 -0.5243433 
0.2363994 -0.44948244 -0.86144125 
0.08209454 -0.3209589 -0.9435285 
0.40653473 -0.072443984 -0.9107587 
0.33614036 -0.4580602 -0.82291585 
0.12365667 -0.8180151 -0.5617476 
0.4877389 -0.07812498 -0.8694868 
0.035095826 -0.07456133 -0.99659866 
0.059799105 -0.5592175 -0.82686144 
-0.070271954 0.120523915 -0.9902201 
-0.42050463 -0.06593414 -0.9048915 
-0.2727652 0.036007255 -0.96140665 
-0.53424984 0.40125105 -0.74402606 
-0.6369696 0.3090497 -0.706228 
0.19108605 0.1246566 -0.9736257 
-0.38480565 -0.4264406 -0.8185799 
0.030781636 0.13434492 -0.99045646 
-0.025348628 -0.3218769 -0.9464421 
0.052618235 -0.5489808 -0.83417714 
0.57487786 -0.66327006 -0.47915375 
-0.20970634 -0.8901288 -0.40459117 
0.20268486 -0.72845167 -0.6544289 
0.2503522 -0.17075084 -0.95297843 
0.44913083 -0.6172911 -0.64593595 
0.28273723 -0.68667954 -0.66972446 
0.14062744 0.18596369 -0.972441 
-0.26926973 -0.33672705 -0.9022798 
0.49996528 -0.026231676 -0.86564815 
-0.48527974 -0.5575361 -0.6735408 
0.4376207 -0.31906217 -0.84064704 
0.31349117 0.73301965 -0.60366017 
0.0827083 0.1969082 -0.97692716 
-0.09078253 0.6840525 -0.7237615 
-0.51293474 0.04341448 -0.85732913 
0.30606264 0.12473344 -0.94380474 
0.2898029 -0.15161128 -0.94500184 
0.00860814 0.015620032 -0.99984103 
0.2749768 0.23473987 -0.9323545 
0.552517 0.095709525 -0.8279884 
0.115820795 -0.43897274 -0.8910042 
-0.6676573 -0.5106611 -0.5417185 
-0.4994568 -0.40784526 -0.7643333 
-0.3982117 0.097823456 -0.9120625 
0.3684621 0.15139018 -0.9172333 
0.7824184 0.42038056 -0.45945817 
-0.20588171 -0.50141174 -0.8403565 
0.3267229 0.55143726 -0.7675736 
0.27506357 0.088216186 -0.95737034 
0.08518859 -0.31666955 -0.94470286 
-0.25101417 -0.033094566 -0.9674176 
0.45970502 0.4328797 -0.7754267 
-0.54056144 -0.18860468 -0.8198913 
-0.6901788 0.015571006 -0.72347134 
-0.4998953 -0.75448203 -0.42527828 
-0.3242795 -0.15151857 -0.9337478 
0.16813618 -0.5001609 -0.84945244 
0.16428874 -0.48410383 -0.859449 
0.69920725 -0.42595348 -0.57417154 
0.5739788 -0.47765568 -0.6651266 
0.46756944 -0.2347103 -0.85222644 
-0.5973282 -0.53518504 -0.5973073 
-0.51243097 0.25827488 -0.8189681 
-0.43239522 0.094989836 -0.8966669 
0.17735046 -0.36639652 -0.9134005 
0.7118773 -0.48650956 -0.5064971 
-0.09486765 -0.4855314 -0.86905664 
0.013409572 -0.44905773 -0.8934022 
-0.27423424 -0.40542808 -0.87202287 
0.036642868 -0.31602934 -0.94804156 
-0.38303697 -0.4618771 -0.79997027 
-0.2920488 -0.47364405 -0.8308844 
0.4278698 0.26297244 -0.86473876 
0.4089847 -0.3373666 -0.8478888 
0.76041216 -0.2600722 -0.59509325 
0.6647176 -0.64876014 -0.37048742 
-0.1316532 -0.84636074 -0.5160823 
0.34391528 -0.3881749 -0.8550103 
0.29859874 -0.40891597 -0.8623378 
-0.2525311 -0.34383425 -0.9044368 
0.6954835 -0.5506025 -0.46167052 
-0.24063355 -0.7885809 -0.56589377 
0.27289554 -0.2932394 -0.91626346 
0.11927874 -0.19903189 -0.97270703 
0.18109776 -0.066082984 -0.9812425 
0.040869646 -0.26696947 -0.962838 
-0.025607662 -0.9172785 -0.39742225 
-0.42676505 -0.6944808 -0.57928246 
0.3476361 -0.69863695 -0.6253445 
0.114547804 -0.8326229 -0.54186517 
-0.5273582 -0.2815507 -0.80163753 
-0.61744046 -0.21260422 -0.7573419 
-0.59695303 -0.5842788 -0.5497867 
-0.64210725 -0.036577452 -0.7657417 
0.4179862 -0.3249629 -0.84834355 
0.11009406 -0.24644041 -0.9628845 
0.34918007 -0.031699162 -0.9365193 
0.03434474 -0.10936432 -0.9934082 
0.45316443 -0.29214424 -0.8421958 
-0.074866444 -0.6446387 -0.76081276 
0.38560688 -0.49790508 -0.77678686 
-0.24651738 -0.96297014 -0.109168686 
-0.11485199 -0.5357194 -0.83654875 
0.014107713 0.31025004 -0.9505503 
-0.16464408 -0.17676349 -0.970385 
0.18211095 -0.05707923 -0.98161995 
0.27070352 -0.0981455 -0.9576467 
0.21263026 -0.19139987 -0.95820385 
0.059365064 0.1537002 -0.9863326 
-0.6054643 0.35111836 -0.7142332 
0.2213143 -0.17804879 -0.9588111 
-0.07653503 -0.6005304 -0.79593074 
0.40347105 -0.16121054 -0.90067875 
0.42868567 0.1643927 -0.88837135 
-0.17888398 -0.21812785 -0.9593857 
-0.44093782 0.34508324 -0.8285478 
-0.19729765 0.019471852 -0.98015034 
-0.4363593 -0.57194537 -0.6946 
-0.16703488 -0.3788287 -0.91026825 
-0.2850862 -0.1411512 -0.9480518 
-0.3069917 -0.038211673 -0.95094484 
0.01588008 -0.18770291 -0.98209757 
0.30621913 0.15863882 -0.9386499 
0.22208065 0.53023666 -0.81824774 
-0.078920506 0.009264244 -0.9968379 
-0.0017782896 -0.18543305 -0.9826553 
0.0080129085 -0.38651982 -0.9222463 
0.15436529 -0.0060691154 -0.9879952 
0.46411976 -0.49378926 -0.7353673 
0.2308091 -0.4029596 -0.88563585 
0.18112387 -0.81774914 -0.54633373 
-0.5037458 0.088085614 -0.8593493 
-0.07192103 -0.19387415 -0.9783865 
-0.3516745 0.46865815 -0.8103607 
-0.18882765 -0.5573313 -0.80853313 
0.26723564 -0.21523875 -0.9392856 
0.3641403 -0.5830962 -0.7262235 
-0.5930482 -0.39640766 -0.70082444 
-0.30412486 0.1958876 -0.9322748 
-0.45724654 0.0056889416 -0.8893218 
-0.63934475 0.18016332 -0.7475156 
-0.18354478 0.11795944 -0.97590834 
-0.38508785 0.016829487 -0.9227265 
-0.7044848 -0.19474734 -0.6824768 
0.009750538 0.040536933 -0.9991305 
0.13002726 0.26283216 -0.9560399 
0.4465092 0.038033012 -0.89397043 
0.56065446 0.21413213 -0.79988384 
0.1411723 -0.40379322 -0.90389246 
-0.12270853 -0.72804815 -0.67445433 
-0.8357857 -0.21072645 -0.50700766 
-0.8115231 -0.2277527 -0.53810686 
0.12394612 -0.5975319 -0.79220766 
-0.5109533 0.3394671 -0.78973967 
-0.35665473 -0.16859397 -0.918898 
-0.89784294 0.19486846 -0.39484733 
-0.5969277 -0.20711012 -0.7751018 
-0.36314783 -0.45941415 -0.81059384 
-0.5426698 -0.3101952 -0.7805693 
-0.72855 -0.24868919 -0.6382544 
-0.52683187 -0.648523 -0.54942346 
-0.15217486 0.030696062 -0.98787683 
0.25086275 -0.40791643 -0.8778794 
0.04914086 -0.5145942 -0.8560246 
-0.5832002 0.30171612 -0.75421816 
-0.2530828 -0.06989904 -0.9649162 
-0.24028192 0.040906057 -0.9698408 
-0.56851983 -0.29750192 -0.76699287 
0.15332563 -0.120277755 -0.9808285 
0.08361584 -0.45995024 -0.883999 
-0.38951614 -0.3371356 -0.85709786 
0.017188432 -0.2711852 -0.9623737 
0.33478367 0.205838 -0.9195384 
0.12469803 -0.58281577 -0.8029796 
-0.039252337 -0.6058859 -0.7945827 
0.37339318 -0.47101313 -0.7992023 
-0.6197853 -0.24412276 -0.74583536 
-0.06859546 -0.57864195 -0.812692 
-0.29414204 -0.6758078 -0.6758435 
-0.007792806 -0.3003982 -0.9537821 
0.7180631 -0.45996177 -0.5223223 
0.72201043 -0.38752306 -0.5731726 
-0.39147097 0.16293758 -0.90564996 
-0.012269819 0.47737062 -0.8786165 
-0.1311303 0.4846902 -0.8648007 
-0.37000954 0.36357638 -0.8549299 
-0.23653464 0.107111916 -0.96570104 
-0.47742623 0.07992316 -0.8750295 
0.42204782 0.040652968 -0.90566164 
0.6890288 -0.6262474 -0.3647652 
0.76906395 -0.6357164 0.066373535 
0.6366398 -0.72899026 -0.25152153 
0.10298288 -0.27729338 -0.95525026 
-0.023810066 -0.67372274 -0.73860055 
-0.24463978 -0.2378823 -0.93998057 
-0.20960763 0.14622903 -0.9667895 
-0.5611854 -0.45072642 -0.69420224 
-0.31903964 -0.52894104 -0.78640646 
0.09802665 -0.44450814 -0.8903951 
-0.5331181 -0.64830685 -0.5435838 
0.052517347 -0.26817533 -0.96193767 
-0.27831846 -0.0481173 -0.95928293 
0.37708563 -0.13666017 -0.91604066 
0.36428702 -0.105205044 -0.92532533 
0.27254385 0.061957438 -0.9601464 
0.56005514 0.6455446 -0.51924026 
0.8958063 -0.39058968 -0.21206316 
0.36964265 -0.86876065 0.3295744 
0.08316973 -0.8615269 -0.50085354 
-0.261887 -0.6003593 -0.7556348 
0.11955653 -0.9917027 0.047245733 
-0.6085405 -0.5091684 -0.6086265 
-0.35844487 -0.9294994 -0.086880006 
-0.49660322 -0.8631243 -0.091660194 
-0.64986044 -0.7216323 -0.23859634 
-0.9472939 0.13056096 -0.29255465 
-0.15802214 -0.27845165 -0.9473614 
-0.2027319 0.0853307 -0.9755094 
0.11017982 0.0043832758 -0.9939021 
0.37665048 -0.26151714 -0.888675 
-0.16548239 0.11379306 -0.9796259 
0.15037414 -0.30527738 -0.9403156 
-0.53265 -0.08288552 -0.8422673 
0.010630015 -0.34208435 -0.9396091 
0.2493965 -0.28659067 -0.9250228 
0.35636473 0.005232624 -0.93433225 
0.13252398 0.10071412 -0.9860497 
-0.41005293 -0.1281236 -0.90301764 
-0.50398934 -0.39136356 -0.769954 
0.030442461 -0.31717652 -0.94787776 
-0.08185658 -0.79316247 -0.6034839 
-0.656582 -0.16432439 -0.7361369 
-0.36184424 0.29766205 -0.8834399 
-0.6205309 0.069127426 -0.7811292 
-0.10923259 -0.29281378 -0.94990975 
0.24336047 -0.85328937 -0.4611648 
-0.03233101 -0.8016451 -0.5969253 
0.27195567 -0.46654195 -0.84165245 
0.2550012 0.12870179 -0.95833725 
0.7008398 -0.08798818 -0.70787126 
0.21136221 -0.50235534 -0.8384302 
-0.32762593 -0.05372171 -0.943279 
-0.44711027 -0.8893956 -0.09522535 
-0.10194788 -0.5449526 -0.83224595 
0.010526076 -0.1637024 -0.9864536 
-0.076678105 0.35499278 -0.93171924 
0.36055693 -0.64546216 -0.67333305 
0.15490608 -0.8345588 -0.5286925 
-0.18849875 -0.18913439 -0.963689 
0.13063543 -0.83363426 -0.53664565 
0.24443911 -0.7244773 -0.64450157 
-0.46201456 -0.37547803 -0.8034667 
-0.6306242 -0.72249836 -0.28338903 
0.0636572 -0.61947405 -0.78243196 
-0.55364686 -0.5591605 -0.6171019 
-0.22072573 -0.48246902 -0.8476461 
0.004275539 -0.4886248 -0.8724836 
-0.09281518 -0.6284808 -0.7722676 
0.06458518 -0.4467188 -0.8923402 
0.26020584 0.111030586 -0.95914817 
0.24106464 0.2672715 -0.9329812 
-0.24476136 -0.17411076 -0.9538225 
0.0006451987 -0.14777444 -0.98902094 
0.4891797 -0.1393062 -0.8609861 
0.20366646 -0.63544047 -0.7448057 
0.4613451 -0.66793877 -0.583968 
0.2573113 -0.33202222 -0.90749776 
-0.24648198 -0.113697074 -0.96245503 
-0.31818956 0.01872066 -0.94784236 
-0.19203682 -0.2497243 -0.94908357 
-0.7207863 -0.07372382 -0.6892257 
-0.37002778 -0.47177058 -0.80032 
0.025719061 -0.17470966 -0.9842841 
0.64468896 -0.020971274 -0.7641573 
-0.18318826 -0.8818409 -0.43450984 
-0.31846714 -0.107066855 -0.941868 
-0.49549627 0.0052256114 -0.8685944 
-0.55748475 -0.6980192 -0.44942188 
-0.7255134 -0.5152634 -0.45621717 
0.3192192 -0.5473184 -0.7736547 
-0.14283513 -0.5174577 -0.8437036 
0.24431308 -0.5008179 -0.8303569 
0.3316824 0.24390139 -0.91131717 
0.31918058 -0.084037334 -0.9439606 
-0.06363724 -0.035054944 -0.9973573 
0.08638665 -0.6688132 -0.7383944 
0.2716322 -0.5201775 -0.8097106 
0.6691911 0.41748735 -0.6147256 
-0.48438883 -0.11991889 -0.86659515 
0.23373939 -0.19920348 -0.95167434 
0.16206996 -0.093257815 -0.9823626 
-0.035625026 0.29807585 -0.95387715 
0.46686152 0.61867636 -0.631886 
0.35426974 0.8035593 -0.47831532 
0.41952398 0.6029055 -0.6786049 
0.15569179 0.23078504 -0.96046776 
-0.40115643 0.1523423 -0.9032527 
-0.426318 -0.25679326 -0.86735815 
-0.7361984 -0.23132572 -0.63600343 
-0.27020165 -0.35280955 -0.89583284 
-0.20094085 -0.18111114 -0.96271574 
-0.35550722 0.40174547 -0.8439285 
-0.6220648 -0.44410488 -0.64483047 
-0.11730905 0.44073552 -0.8899387 
-0.79368126 -0.28629285 -0.5367556 
0.11843725 0.4330381 -0.8935607 
0.12829104 -0.48526168 -0.8649061 
0.51464754 -0.3855564 -0.7658226 
-0.2840602 -0.13003255 -0.9499481 
0.053727165 0.065398775 -0.9964118 
-0.44684422 -0.5838958 -0.67778766 
0.3320851 -0.54523623 -0.76969934 
-0.35513508 -0.452682 -0.8178986 
-0.6724929 -0.19970419 -0.7126511 
-0.5259184 -0.25599167 -0.81109685 
0.025965998 -0.71065694 -0.70305943 
-0.078734964 0.17228267 -0.9818959 
-0.4711192 -0.27096048 -0.83942074 
-0.6673427 0.24002147 -0.7050131 
0.23132057 0.33998373 -0.9115382 
-0.22020839 -0.7961447 -0.5636151 
0.53305656 -0.23468876 -0.8128789 
0.02209858 -0.62708604 -0.7786365 
0.27935314 -0.5745013 -0.7693569 
0.2910233 -0.42225033 -0.8584929 
-0.08899667 -0.51971704 -0.8496904 
-0.40198746 -0.44392863 -0.8008329 
-0.15998532 -0.029182663 -0.9866879 
0.43260962 0.18056966 -0.8833141 
-0.2708994 -0.17274025 -0.9469818 
0.058829438 -0.35874632 -0.9315795 
0.059579615 -0.6798722 -0.73090637 
0.47992453 -0.63086563 -0.6096565 
-0.077300414 -0.7776286 -0.623954 
0.22470334 -0.83471775 -0.5027472 
0.108107924 -0.021308633 -0.9939108 
0.20990776 -0.28748086 -0.9345018 
0.43653834 0.09981015 -0.89413214 
-0.07662912 -0.18731426 -0.9793066 
-0.25408694 -0.80037576 -0.5429904 
-0.081522726 -0.5738763 -0.81487435 
0.57897276 -0.5080797 -0.63768774 
-0.28557372 -0.4076398 -0.8673394 
-0.015039341 -0.68989307 -0.72375506 
0.13232134 -0.48054126 -0.86693203 
0.44859427 -0.6774161 -0.5829843 
-0.48556063 -0.46703115 -0.7389945 
-0.39982882 -0.1405535 -0.90574926 
-0.21594226 -0.15715289 -0.9636762 
0.00373966 -0.3284407 -0.94451725 
-0.6284749 -0.09030906 -0.77256954 
-0.45297018 0.7749705 -0.44072533 
-0.41221824 0.54829156 -0.7276349 
-0.31063497 0.20535603 -0.92808133 
0.0949009 -0.38396323 -0.91845864 
0.3923406 -0.37786928 -0.8386201 
0.19553071 0.120819725 -0.9732268 
-0.17186919 -0.39440703 -0.9027204 
-0.23980884 -0.9210108 -0.3069707 
-0.092414975 -0.70602465 -0.70213157 
-0.22358187 -0.74280274 -0.6310747 
-0.1366296 -0.021589933 -0.99038696 
-0.14312108 -0.51002866 -0.848167 
-0.7088642 -0.05845583 -0.7029185 
-0.1447783 -0.097633 -0.98463553 
-0.08258971 0.36662492 -0.9266959 
0.4944382 -0.15213467 -0.8557955 
0.13912821 -0.34922606 -0.9266523 
0.23760594 -0.02809212 -0.9709553 
0.30911705 0.28108636 -0.9085358 
-0.08413718 -0.15729281 -0.9839614 
-0.53402954 -0.29151177 -0.79362047 
-0.7097646 0.17918652 -0.6812682 
-0.3237941 -0.064616814 -0.9439185 
-0.5401169 0.118290134 -0.83323544 
0.12999123 -0.060541358 -0.9896651 
-0.23579632 0.13288395 -0.9626744 
-0.54172426 -0.51303166 -0.6658329 
-0.05417784 -0.568434 -0.82094306 
-0.11565106 -0.2408467 -0.9636482 
-0.05400009 0.16189373 -0.9853296 
-0.0964325 0.45413548 -0.8856985 
-0.29920748 -0.61641985 -0.72835535 
-0.34145927 -0.8226053 -0.45467156 
0.82674396 -0.42068028 -0.3735273 
0.08241773 -0.59412295 -0.8001408 
-0.070734836 -0.2350408 -0.96940833 
-0.09836955 -0.027769232 -0.9947624 
-0.5156693 0.4836495 -0.7072258 
-0.3420819 0.45755333 -0.82074666 
-0.42012995 -0.020019254 -0.9072432 
0.07162061 0.35931683 -0.9304634 
0.0011603658 -0.030697856 -0.9995281 
-0.6023282 0.26808423 -0.7518854 
-0.35088614 0.19722366 -0.91541344 
-0.14910538 0.4945016 -0.856292 
0.2387918 -0.21470474 -0.94703776 
-0.37510782 0.1375908 -0.9167132 
-0.6141827 0.32511935 -0.7190807 
0.019215515 -0.24709415 -0.968801 
0.25314066 -0.4872572 -0.83576334 
-0.20966674 0.040774446 -0.97692245 
-0.37343553 -0.32298055 -0.86961466 
0.6109737 -0.33033913 -0.71943533 
0.3911778 -0.07740932 -0.9170538 
-0.10347211 -0.31033373 -0.9449797 
-0.6230502 -0.5702026 -0.5354227 
-0.1443674 -0.56924963 -0.8093905 
0.22663797 -0.15724476 -0.9612021 
0.50198555 0.22882909 -0.83405507 
0.5016167 -0.8200874 -0.27538592 
-0.77285343 -0.46966967 -0.42674115 
-0.8677362 -0.4947553 0.047445804 
-0.16525732 -0.46555194 -0.8694547 
-0.6213635 -0.34595713 -0.70300865 
-0.58108354 -0.81005186 -0.0784736 
-0.6486678 -0.15898563 -0.7442807 
-0.078398556 -0.8616022 -0.5014931 
0.4933979 -0.8682969 -0.051177107 
0.4774472 -0.87193435 -0.10851099 
0.020713573 0.35937825 -0.93296206 
0.13084987 -0.15769033 -0.978781 
0.19053492 0.05477416 -0.9801511 
-0.09554719 -0.036252372 -0.9947646 
0.063361995 -0.5124948 -0.8563495 
-0.5531702 -0.34888172 -0.7564948 
-0.543685 -0.42873284 -0.7215226 
-0.06284651 -0.7228029 -0.68819064 
0.37527475 0.1445364 -0.9155754 
-0.2793733 -0.5609181 -0.7793084 
-0.20640732 -0.2421199 -0.9480369 
-0.06289839 -0.48069662 -0.8746283 
-0.56994617 0.05792829 -0.8196376 
-0.101703316 0.13685007 -0.9853571 
0.18318135 -0.78798985 -0.58780676 
0.33965632 -0.40082616 -0.8508655 
-0.06940414 -0.16365574 -0.9840731 
0.25353876 -0.08865635 -0.96325403 
0.05589232 -0.027031416 -0.99807084 
-0.2242368 0.6426905 -0.73257554 
-0.26783383 0.4129161 -0.87049717 
-0.40771165 0.91297466 -0.015769115 
0.0054233987 0.75579345 -0.65478766 
0.3831588 0.022253066 -0.9234144 
0.30385336 0.029916063 -0.952249 
0.4856821 -0.11149856 -0.86699545 
0.6504795 -0.7594559 -0.010162918 
0.6968531 -0.50154245 -0.51269007 
0.6054944 0.07723885 -0.79209274 
0.789112 -0.37468767 -0.48673543 
-0.12689355 -0.23368657 -0.96399623 
-0.10644881 -0.22344102 -0.96888745 
-0.26935142 -0.23439914 -0.9340807 
-0.643715 -0.35480723 -0.6780434 
-0.13734534 -0.2574749 -0.9564743 
-0.37430274 -0.3224644 -0.86943334 
0.11426171 0.44599435 -0.8877125 
-0.040059146 -0.013265317 -0.9991093 
0.191352 -0.23872112 -0.95204866 
-0.27718973 -0.355461 -0.8926441 
0.123556904 -0.03851057 -0.99159 
0.72452796 -0.10480096 -0.68123126 
0.5121795 -0.6534278 -0.5574087 
0.08782206 -0.99574196 0.028021503 
-0.07482611 -0.04649297 -0.9961122 
-0.30275187 -0.43248826 -0.8492911 
0.14225526 -0.9358496 -0.32241136 
0.11276481 -0.9423642 -0.315014 
0.44996125 -0.124497496 -0.8843276 
-0.9705514 -0.03275034 -0.23865752 
-0.59557104 -0.28401217 -0.75142014 
-0.7360229 -0.30567393 -0.6040147 
0.39950186 -0.6275911 -0.6682273 
0.5146488 -0.37732446 -0.769911 
-0.35480154 0.33131433 -0.87426925 
0.22516786 -0.33550736 -0.9147318 
0.1705254 -0.3218666 -0.93130183 
-0.0012366052 0.45514145 -0.89041835 
-0.12587047 -0.04921417 -0.99082524 
-0.07460212 -0.004594829 -0.9972029 
-0.10054786 0.11592886 -0.9881552 
0.19171755 0.393114 -0.8992808 
0.12021854 -0.0101932 -0.9926951 
0.49390057 -0.10715768 -0.8628902 
0.11408474 -0.26239458 -0.958193 
0.2891674 0.46093005 -0.83900285 
0.52387494 0.047164857 -0.8504885 
-0.4762786 -0.40320688 -0.7813981 
-0.18883044 -0.54145306 -0.81925076 
-0.027447997 -0.39583054 -0.9179133 
0.45211306 -0.63914055 -0.6221681 
0.05956003 -0.47789884 -0.87639344 
0.292893 -0.18389668 -0.9382941 
0.73038906 0.28237203 -0.6219308 
0.0721403 0.02290423 -0.99713147 
-0.11481812 -0.41933343 -0.9005422 
-0.037779678 -0.5560441 -0.8302938 
-0.6734264 -0.2586596 -0.6925259 
-0.84984535 -0.31349993 -0.42365164 
-0.7224299 -0.2391701 -0.6487625 
0.35445255 -0.18899888 -0.9157744 
0.050782837 0.35447723 -0.93368465 
-0.18290436 -0.8251956 -0.53441393 
-0.14125286 -0.3757049 -0.9159113 
0.25588012 -0.527301 -0.810234 
-0.12008328 0.2935835 -0.9483611 
-0.16449867 -0.39834592 -0.9023641 
-0.15997283 -0.00025618778 -0.9871214 
-0.12679568 -0.5518233 -0.8242656 
0.19162203 -0.000330912 -0.98146874 
0.24056861 0.013985312 -0.97053146 
0.2873923 -0.15998004 -0.9443581 
-0.022746203 -0.6392997 -0.76862127 
0.057581615 -0.86470413 -0.49897012 
-0.025361842 -0.15065402 -0.98826116 
0.23056598 0.49293083 -0.83896273 
0.58785504 0.50938755 -0.6284511 
0.3568708 0.17227174 -0.91813165 
-0.1465297 -0.11484216 -0.9825174 
-0.029785706 -0.09426309 -0.99510163 
-0.18782906 -0.5221936 -0.8318858 
-0.30332592 -0.84917593 -0.43231213 
0.1836449 -0.66544676 -0.72350204 
0.23526381 0.098478466 -0.9669296 
-0.30714515 -0.3899187 -0.86811596 
0.2741659 0.43910077 -0.85558385 
-0.2860408 -0.108636186 -0.95203936 
-0.07712818 0.33179072 -0.9401947 
0.10868863 0.8269032 -0.55174065 
-0.15540795 0.10267983 -0.98249954 
-0.06406432 -0.65869844 -0.7496748 
0.24769562 -0.18786828 -0.95044863 
0.17397839 0.07842184 -0.981622 
-0.36012504 -0.22106066 -0.9063345 
0.35304266 -0.43126708 -0.8302829 
0.25629106 -0.6038858 -0.754743 
-0.15692605 -0.10450983 -0.9820652 
-0.10195873 0.30369934 -0.9472968 
0.018632382 0.026199441 -0.9994831 
0.24681012 -0.20507379 -0.94711643 
-0.097870566 -0.33194706 -0.93820715 
-0.14156526 0.36986923 -0.91823536 
0.25513288 -0.13631733 -0.9572486 
0.43087536 -0.14514537 -0.89066225 
0.29089212 0.20448287 -0.934649 
-0.08263746 0.42544442 -0.90120375 
-0.23041095 0.16090164 -0.9596986 
0.1526293 0.3020944 -0.94098 
-0.092478774 0.323764 -0.9416075 
0.28975114 -0.19779481 -0.9364408 
-0.18810648 0.14375854 -0.9715707 
-0.57134175 0.5808147 -0.5798473 
-0.40385348 0.17509554 -0.89791083 
-0.1248139 0.44432497 -0.8871284 
-0.2726204 0.16494566 -0.9478772 
-0.4426308 0.60918844 -0.6580026 
-0.43928573 -0.18859735 -0.8783275 
-0.3259458 -0.22040923 -0.9193363 
-0.61074054 0.021171127 -0.7915477 
-0.3987349 -0.1639144 -0.90229845 
-0.24007064 -0.5030463 -0.83024734 
0.076995514 0.17286532 -0.9819314 
0.10716483 -0.569335 -0.8150911 
0.55710506 -0.07769257 -0.82679975 
0.42972934 0.35155937 -0.8317083 
0.16071706 0.019495687 -0.986808 
-0.0752666 -0.36062908 -0.92966753 
0.38518 -0.71248853 -0.5865122 
0.29428905 -0.5024706 -0.81296825 
-0.62928677 -0.17466906 -0.7572906 
-0.38031852 -0.13636559 -0.9147471 
-0.08112933 -0.57769567 -0.8122105 
-0.09327442 -0.676412 -0.7305934 
0.1632609 -0.2785727 -0.9464371 
-0.006396365 0.08877427 -0.9960313 
-0.045781214 0.23084974 -0.9719118 
-0.14120531 -0.831013 -0.538032 
0.057580307 -0.99155015 -0.116245285 
0.08144457 -0.98077583 0.17732905 