# OOMMF: rectangular mesh v1.0
# Segment count: 1
# Begin: Segment
# Begin: Header
# Desc: Time (s) :  8.980000000000025e-07
# Title: m
# meshtype: rectangular
# meshunit: m
# xbase: 2e-09
# ybase: 2e-09
# zbase: 5e-10
# xstepsize: 4e-09
# ystepsize: 4e-09
# zstepsize: 1e-09
# xmin: 0
# ymin: 0
# zmin: 0
# xmax: 1.024e-06
# ymax: 1.024e-06
# zmax: 1e-09
# xnodes: 256
# ynodes: 256
# znodes: 1
# ValueRangeMinMag: 1e-08
# ValueRangeMaxMag: 1
# valueunit: 
# valuemultiplier: 1
# End: Header
# Begin: Data Text
-0.13279018 -0.49055883 -0.861231 
-0.2129338 -0.5933365 -0.7762802 
-0.15388292 -0.23276222 -0.96028215 
-0.07109696 0.15794381 -0.98488533 
-0.38570642 -0.80292314 -0.45447233 
0.030248648 0.3637246 -0.9310153 
0.72182006 -0.06987488 -0.68854445 
0.34177226 -0.7035253 -0.6230922 
-0.3994496 -0.8839124 -0.2431851 
-0.45160705 -0.74006313 -0.49835503 
-0.6348172 -0.2422527 -0.73370355 
-0.51096225 -0.28501186 -0.8109784 
0.7549027 0.13191296 -0.6424335 
0.7520037 0.39180255 -0.53007656 
-0.052180674 0.21839155 -0.97446513 
0.26463872 0.27107444 -0.9254648 
0.16253841 -0.5715132 -0.8043346 
-0.25240353 -0.37516862 -0.8919311 
-0.2758565 0.22685795 -0.93404424 
-0.37241971 -0.33557156 -0.86527187 
0.2292805 -0.5916165 -0.7729297 
0.012393031 0.075476564 -0.9970706 
-0.08038878 0.55695873 -0.82664055 
-0.26942256 -0.23475549 -0.93397075 
-0.037420146 -0.89934736 -0.4356307 
-0.027877467 -0.5525812 -0.83299285 
-0.14887872 -0.6954654 -0.70296735 
0.10440225 -0.62871474 -0.7705958 
0.3474489 -0.5536364 -0.75681317 
0.772949 -0.01017628 -0.6343866 
0.1010073 -0.060508154 -0.99304396 
-0.39497566 -0.23664737 -0.88768935 
0.5248517 0.23793283 -0.81726307 
-0.43586928 -0.18982062 -0.8797649 
-0.66759145 -0.4701971 -0.5772663 
-0.8898444 -0.0008733643 -0.4562635 
-0.62870926 0.174701 -0.7577627 
-0.8676146 -0.0009109071 -0.4972364 
-0.67049885 0.3236857 -0.6675769 
0.3535568 0.45554876 -0.81699014 
0.40243652 0.23789993 -0.8839958 
0.52633685 -0.16964231 -0.83318126 
-0.31643093 0.3679259 -0.8743581 
-0.15177038 0.05531546 -0.9868667 
0.04904598 -0.0366804 -0.9981228 
-0.10942582 -0.50486225 -0.8562361 
-0.19600748 -0.48122707 -0.8544013 
-0.46706745 -0.5465575 -0.69507045 
-0.79557395 -0.30519652 -0.52337104 
0.17430963 -0.29686514 -0.9388755 
0.34126434 0.15781927 -0.9266238 
0.5359801 -0.30114934 -0.7886917 
0.7396742 -0.28272745 -0.6106941 
0.067906655 -0.8107847 -0.5813922 
0.023998093 -0.99971175 0.00069983763 
0.28307453 -0.9496884 -0.13401851 
0.32764575 -0.8558629 -0.40018383 
-0.40893397 -0.18253388 -0.8941221 
-0.28095132 0.20396154 -0.9377986 
-0.5945293 -0.4298627 -0.6795242 
-0.41503188 -0.77039915 -0.48397687 
-0.48650753 -0.7265771 -0.48517647 
0.52092904 -0.43732047 -0.73306465 
0.92830604 -0.35730186 -0.102875255 
0.48998553 -0.36972898 -0.78943956 
0.8472104 -0.48170695 0.22403789 
0.8804952 -0.45852897 0.12033038 
0.63647187 -0.09062158 -0.7659577 
-0.04249911 -0.35706455 -0.93311244 
-0.056699865 -0.7955845 -0.6031836 
0.005077643 -0.21242549 -0.97716415 
0.34178415 0.60713965 -0.717332 
0.47776464 0.50842816 -0.716409 
0.263361 0.5725564 -0.776415 
-0.1334196 0.6664612 -0.7335044 
0.28077814 0.84784603 -0.44980097 
-0.49718973 0.10371599 -0.86142063 
0.4735377 0.0979914 -0.87530553 
0.48423344 -0.5702814 -0.6635489 
0.7009861 -0.2695958 -0.66025496 
-0.5481326 -0.66141593 -0.51193726 
-0.27273607 -0.6564593 -0.7033323 
0.09727543 -0.6490546 -0.75449705 
-0.3323022 -0.8842926 -0.32802743 
-0.15719783 -0.7065272 0.69000596 
-0.9925268 -0.064331114 -0.10369186 
-0.8493775 -0.08417527 -0.52103007 
-0.17883185 -0.6582548 -0.7312454 
-0.25127354 -0.38408047 -0.88845026 
0.144309 -0.16844314 -0.9750907 
-0.67022187 0.08236583 -0.7375761 
-0.57964593 0.1542339 -0.8001391 
0.300333 -0.5559311 -0.7750747 
0.1858256 -0.53521544 -0.8240226 
0.16405241 -0.3061903 -0.93772835 
0.2972301 -0.65522295 -0.6945051 
0.21884148 -0.37722528 -0.8998943 
0.422841 -0.23209809 -0.87597716 
-0.50125057 -0.23545648 -0.8326513 
-0.62974626 -0.42705977 -0.6488757 
-0.93244326 -0.36010945 0.029508056 
-0.6539313 -0.6304951 -0.41815054 
-0.46129325 -0.09159817 -0.8825069 
-0.73667485 0.13136278 -0.6633658 
-0.4001071 -0.708669 -0.58112186 
-0.36928958 -0.46925372 -0.80213857 
0.18389124 -0.3056023 -0.93423295 
0.16809712 -0.78095245 -0.6015452 
0.10303546 -0.43863046 -0.8927414 
0.45044056 -0.80989534 -0.37572983 
0.074481465 -0.991271 -0.108785555 
0.5918705 -0.38951424 -0.70566857 
0.58200884 -0.4934798 -0.64633083 
0.537992 -0.32666445 -0.77708113 
0.25725555 -0.5563827 -0.7901 
0.06301371 -0.60825175 -0.7912391 
-0.19106631 -0.7263784 -0.66020316 
-0.6331969 -0.35105133 -0.68980044 
0.28115186 0.11656888 -0.95255727 
-0.37026635 -0.06964633 -0.9263111 
-0.18701802 0.0517873 -0.9809905 
-0.18687356 -0.21590087 -0.95836586 
-0.43012765 -0.50196695 -0.7503463 
-0.68891144 -0.13353615 -0.7124389 
-0.6530218 -0.72798693 -0.20880048 
-0.5849153 -0.2783058 -0.76185304 
0.21715564 -0.031210363 -0.975638 
0.52719855 -0.4919926 -0.69282395 
0.15298355 -0.5877974 -0.79441196 
-0.16087781 -0.5936683 -0.7884646 
0.67284596 -0.08667829 -0.73468715 
-0.096200585 -0.727185 -0.6796672 
0.17542161 -0.675608 -0.7160874 
0.052437093 -0.45915937 -0.88680494 
-0.20864862 -0.56990683 -0.7947779 
-0.06370348 -0.031577505 -0.99746925 
-0.41855368 -0.84267986 0.33867902 
-0.18637268 -0.6143198 -0.7667311 
0.32565188 -0.5788615 -0.7475763 
0.04253461 -0.6282737 -0.7768288 
0.36904934 -0.55493385 -0.74555415 
-0.16282198 -0.1952952 -0.96713436 
0.1830845 0.021484448 -0.9828625 
0.1897734 0.09575072 -0.9771479 
0.103044294 -0.019932048 -0.9944771 
0.0986465 0.14052454 -0.9851507 
-0.4586803 -0.26142165 -0.84927684 
0.24994808 -0.064818434 -0.9660872 
0.42271328 -0.24207306 -0.8733352 
-0.0010166317 0.33345956 -0.9427639 
0.26143643 0.37723306 -0.8884516 
-0.32554412 -0.63460064 -0.70093024 
-0.26373813 -0.68036556 -0.68377256 
0.27933982 -0.71501696 -0.6408745 
-0.13328364 -0.36596912 -0.92103314 
0.3877401 -0.3282317 -0.8613486 
0.24064359 -0.08649605 -0.9667519 
-0.048957337 -0.031586763 -0.9983013 
0.3466643 -0.7923545 -0.50199425 
-0.50055474 -0.8052332 -0.31787503 
0.4177169 -0.789371 -0.44989553 
0.17714384 -0.027916221 -0.98378897 
0.13172299 0.12356946 -0.9835546 
-0.015667714 -0.7989786 -0.6011552 
0.80313283 0.08350361 -0.5899194 
-0.23266163 -0.23996468 -0.9424891 
-0.21867007 -0.3224302 -0.92098975 
0.36696002 -0.82171965 -0.4360244 
-0.36929977 -0.638822 -0.6749253 
0.64805037 -0.50898486 -0.566538 
0.16752017 -0.13746911 -0.97623736 
0.5088288 -0.5049596 -0.6972153 
-0.026019098 -0.6942122 -0.7193 
0.42297873 -0.6396054 -0.6418676 
-0.26586163 -0.84251183 -0.46849918 
0.009206369 -0.9729109 -0.23099716 
0.071630746 -0.975846 -0.20638248 
0.52644926 -0.7510885 -0.39839336 
0.7865761 -0.6095672 -0.09862026 
0.622683 -0.04731075 -0.7810427 
0.6690949 -0.6571827 -0.34702018 
0.63709056 -0.33783275 -0.6928093 
0.71963125 -0.2582803 -0.6445326 
0.10662798 -0.48661238 -0.8670864 
0.0898868 -0.539979 -0.836865 
-0.4691202 -0.47780368 -0.7427179 
-0.53362036 -0.43232265 -0.7268744 
0.70257896 -0.33229756 -0.62925446 
-0.52489746 -0.10098074 -0.84515417 
0.16191722 -0.025981542 -0.9864623 
0.5282485 -0.046236232 -0.84783 
0.3006372 -0.5597782 -0.7721824 
0.32319534 0.177744 -0.9294901 
-0.12445671 -0.3410613 -0.931766 
-0.3401156 0.07455723 -0.9374234 
0.35294753 -0.2893014 -0.8897937 
0.6273538 0.528883 -0.57158566 
-0.2981282 0.34492582 -0.8900258 
-0.7058167 0.36236337 -0.60870004 
-0.53088343 -0.2882365 -0.7969206 
0.15913168 0.18258542 -0.97022665 
-0.43241876 -0.2463597 -0.86736435 
-0.4014288 -0.14744525 -0.90394413 
-0.023917101 -0.45624334 -0.8895336 
-0.8290797 -0.49000546 -0.26929826 
0.16864301 -0.7798042 -0.6028805 
0.27518559 -0.3511781 -0.8949563 
0.24880299 -0.42517254 -0.87024444 
-0.09236618 -0.36856332 -0.9250025 
0.21635474 -0.6226495 -0.75199616 
-0.25042817 -0.10992991 -0.96187377 
-0.5534743 -0.21751969 -0.80395985 
-0.5110303 -0.7701233 -0.38178283 
0.06952446 -0.9460869 -0.31636393 
-0.024413398 -0.05650863 -0.99810356 
0.36562413 0.018510144 -0.9305786 
0.02501449 -0.45361373 -0.8908473 
-0.10121099 0.24826768 -0.9633897 
-0.42290634 0.37516022 -0.8248667 
0.5125068 -0.6363943 -0.5764886 
0.2600503 -0.28860605 -0.92145556 
0.61111253 -0.47464854 -0.6334433 
-0.052506946 -0.80893457 -0.58554935 
0.19321187 -0.5085282 -0.83908784 
-0.24415004 -0.9510903 -0.18925656 
-0.9663597 -0.25689092 0.012490476 
-0.1470583 -0.35296294 -0.92400813 
0.19584031 -0.16376765 -0.9668644 
0.24805108 -0.49651372 -0.83183223 
0.7390139 -0.48826057 -0.46417686 
0.45604253 -0.86486197 -0.20985492 
0.6079965 -0.7145832 0.34599277 
0.0985435 -0.9534872 -0.2848708 
-0.21146382 -0.9748135 -0.07086351 
-0.3857727 -0.5099327 -0.76886153 
-0.28122613 -0.5937223 -0.7539269 
0.8868635 -0.16498554 -0.43157032 
0.80596167 -0.58427656 -0.095113836 
-0.11013273 -0.8307815 -0.5455943 
-0.5877117 -0.7961884 -0.14380184 
-0.4932152 -0.6116283 -0.61858684 
0.87215185 -0.4479902 -0.19661151 
0.7053106 -0.48314062 -0.5187602 
0.8843075 -0.33577 -0.32443613 
0.3997796 -0.72107905 -0.565881 
-0.4564346 -0.87396216 0.16690625 
0.048600357 -0.09742423 -0.99405557 
0.11859693 -0.46007055 -0.87992615 
0.013732948 -0.9904641 -0.13708514 
-0.07122225 -0.9604514 -0.26918513 
0.14956734 -0.23141031 -0.9612903 
0.3986432 0.22783574 -0.888355 
0.6795968 0.005136264 -0.73356795 
-0.80701506 -0.096839786 -0.58253664 
0.76725316 -0.18752277 -0.6133172 
0.9876296 -0.12843795 0.08995289 
0.19398464 -0.22466916 -0.9549313 
-0.27298415 -0.013289869 -0.9619268 
0.10134223 -0.032032624 -0.9943358 
-0.6198904 -0.33629236 -0.70897347 
-0.6029315 0.20016015 -0.7722755 
0.039109 -0.25279856 -0.96672827 
0.32036278 -0.7139238 -0.62263995 
0.24847798 -0.30936635 -0.9179059 
0.002131002 -0.721162 -0.69276327 
0.11777987 -0.9785866 -0.16880798 
-0.05487895 -0.44006276 -0.8962886 
-0.013085961 -0.13193347 -0.9911722 
0.3728937 -0.40340596 -0.835592 
0.44202828 -0.30612743 -0.84314716 
0.21846086 -0.38966513 -0.89467084 
0.6204427 -0.23815152 -0.7472181 
0.6506179 -0.12473943 -0.74909043 
0.28098184 -0.09210036 -0.95528364 
-0.14250319 -0.18836956 -0.9717046 
-0.44924596 -0.81182903 -0.37297693 
-0.19863458 -0.4160583 -0.8873781 
-0.03393614 -0.5057951 -0.8619859 
0.3043936 0.28612947 -0.90855634 
0.28947493 -0.50855494 -0.81091076 
0.7075334 -0.5364487 -0.46002096 
-0.13768962 -0.6707324 -0.7288071 
-0.16761582 -0.4040541 -0.8992471 
0.37195846 -0.45736155 -0.8077545 
-0.16724618 -0.7393086 -0.65226656 
-0.010845945 -0.32807702 -0.9445887 
0.2250802 0.0008756826 -0.9743399 
0.34506035 0.4184949 -0.8401163 
0.21874164 0.85933596 -0.4622702 
-0.40278822 0.2522315 -0.8798528 
-0.4363456 -0.46352175 -0.7712005 
-0.40026912 0.43824962 -0.8048117 
-0.6132217 0.21109098 -0.76118314 
-0.4635808 -0.48647138 -0.7405664 
-0.696124 0.09454671 -0.7116687 
-0.5760782 0.18137291 -0.7970182 
0.12787703 0.17108649 -0.97692215 
0.20733878 -0.027436107 -0.9778845 
0.10150876 0.35844052 -0.92801744 
0.26753742 -0.0046969033 -0.9635361 
0.288739 0.008349868 -0.9573715 
0.0017705063 -0.47219944 -0.88149 
-0.1469824 -0.8979484 -0.41483128 
-0.51318026 -0.83674747 -0.19104938 
-0.52478576 0.27138656 -0.8068143 
-0.27945614 -0.38905752 -0.87780327 
-0.18583019 -0.4970615 -0.84758306 
-0.268664 -0.44159755 -0.856044 
0.46666884 -0.26834506 -0.8427403 
0.38448417 -0.35158414 -0.8535577 
0.2885601 -0.71847564 -0.6328712 
0.11488306 -0.19298272 -0.97445345 
0.1106314 -0.4531074 -0.8845646 
0.4674398 -0.023027541 -0.883725 
-0.5528354 0.3379864 -0.761668 
-0.25130418 -0.3359206 -0.90774643 
-0.52579284 -0.6206173 -0.5817011 
0.31320202 -0.767155 -0.5598017 
0.24603416 -0.352349 -0.90294933 
0.32637417 -0.72196287 -0.61012256 
0.7825782 -0.5761347 -0.23588192 
0.5951244 -0.75363004 -0.2790498 
0.13060817 -0.8518961 -0.50716335 
-0.061523095 -0.92989737 -0.3626373 
-0.40330318 -0.8292286 -0.38694537 
-0.45726454 -0.61177385 -0.6454781 
-0.034756064 -0.44478315 -0.8949637 
0.14740942 0.4290711 -0.8911614 
0.46679765 0.69033664 -0.5527526 
0.446074 0.5827524 -0.6792773 
0.28981593 0.13341664 -0.94773775 
0.38486043 0.8257317 -0.41237062 
-0.29999003 0.78946084 -0.53549767 
0.20594905 0.1380683 -0.96877354 
0.6716683 -0.07076537 -0.73746455 
0.5926055 -0.57215285 -0.5669744 
0.5153341 -0.31882203 -0.7954768 
-0.35993302 -0.3667901 -0.8578539 
-0.070646115 -0.5541659 -0.82940304 
0.15187405 -0.8291217 -0.53804415 
-0.20029809 -0.87926894 0.43216532 
-0.637524 -0.47978523 0.6028013 
-0.7420571 -0.0016794013 -0.67033464 
-0.51699847 -0.058865633 -0.8539598 
-0.2834236 -0.048102744 -0.95778775 
-0.2718291 0.001975549 -0.9623435 
-0.15510972 0.21337587 -0.9645785 
-0.23205736 0.55564386 -0.7983793 
0.38540664 -0.03269882 -0.9221673 
0.09113244 -0.29044962 -0.95254076 
0.071328335 -0.09068221 -0.9933222 
-0.03289621 0.133842 -0.9904565 
0.51388454 -0.1746041 -0.8399025 
-0.1153113 0.13506523 -0.9841041 
-0.17483854 -0.33027035 -0.92755216 
-0.38227853 -0.10097973 -0.9185131 
-0.710713 -0.24004948 -0.66125894 
-0.63147265 0.75269353 -0.18626557 
-0.21641341 -0.038959485 -0.9755242 
-0.24663672 0.09850513 -0.96408874 
-0.332712 0.12888141 -0.93418 
-0.5653079 -0.4570237 -0.68669957 
0.38736942 -0.8199343 -0.42148867 
0.7577735 -0.13185886 -0.639056 
0.835661 -0.21923341 -0.5035946 
0.065625526 -0.76617277 -0.6392752 
-0.3053625 -0.949388 -0.07359432 
0.4955222 -0.6284214 -0.5996202 
0.5486847 -0.7115215 -0.43895602 
0.4244201 -0.48902598 -0.7620507 
-0.42793947 -0.52372086 -0.7366032 
-0.22261833 -0.38919166 -0.89385176 
0.10766489 -0.5996208 -0.793009 
-0.5618612 -0.3114362 -0.76636773 
-0.63493407 -0.23005746 -0.73751765 
-0.49033275 0.12907268 -0.86192465 
-0.30979708 -0.27333122 -0.91066784 
-0.458973 -0.72980934 -0.5066777 
-0.26930684 -0.14020132 -0.9527946 
-0.55492806 -0.17988703 -0.81221646 
-0.58260477 -0.05479938 -0.8109062 
-0.479117 -0.29012108 -0.82841825 
0.44521213 0.081443444 -0.8917136 
0.5750506 -0.74291843 -0.34262082 
0.6728925 -0.66830754 -0.31714457 
0.3928596 -0.6432376 -0.6571962 
0.48034704 0.030093823 -0.87656206 
0.35882857 -0.29997763 -0.88388664 
-0.20643806 -0.082985625 -0.9749342 
-0.14498028 -0.49206716 -0.85840005 
0.04109152 0.21149212 -0.9765156 
0.2752338 -0.03361023 -0.9607896 
-0.34617347 -0.7373301 -0.5800934 
-0.3037368 -0.37569806 -0.8755542 
0.64400524 -0.3717686 -0.66861457 
0.42210442 -0.48342857 -0.766893 
0.22554314 -0.86460954 -0.44897753 
-0.062110275 -0.6140329 -0.7868329 
0.1883692 0.34222198 -0.920544 
0.016575111 0.17186764 -0.98498064 
-0.2742599 0.6694125 -0.6904118 
-0.49834296 0.6620606 -0.5597589 
0.08803842 -0.25494587 -0.96293926 
0.026073217 0.23013392 -0.9728096 
-0.15284394 0.69964707 -0.69794905 
0.41302663 -0.27243015 -0.8690172 
-0.03140048 0.31530857 -0.9484696 
-0.32666725 0.44142038 -0.8357253 
-0.13141255 0.25098893 -0.9590284 
0.36556917 0.12714876 -0.9220588 
0.49321002 -0.30978402 -0.8128824 
0.27487528 -0.39550263 -0.87636834 
-0.16170505 0.11700249 -0.9798785 
0.29297128 -0.44668674 -0.8453632 
0.29270235 -0.5183175 -0.8035375 
0.30321375 -0.28462324 -0.9094235 
0.1619269 -0.66316885 -0.73074406 
0.023089865 0.74336374 -0.6684888 
0.016111532 0.44195053 -0.89689475 
0.34562603 0.16506533 -0.9237403 
0.2410062 -0.073315 -0.9677505 
0.30265155 -0.090202734 -0.9488233 
-0.1232567 -0.14411084 -0.9818554 
0.42208177 -0.06720617 -0.9040633 
0.41713625 -0.3376187 -0.8438075 
0.66232914 -0.5258748 -0.533644 
0.047027193 0.08918038 -0.9949047 
0.11770043 0.054340627 -0.9915613 
-0.35571355 -0.7146902 -0.602234 
-0.41392362 -0.52096814 -0.74649817 
0.32041526 -0.18457298 -0.9291216 
0.41358086 -0.289901 -0.8630807 
-0.09506461 -0.23219538 -0.9680124 
0.31614444 -0.3033512 -0.8989053 
0.106909 -0.004914437 -0.99425673 
0.67332894 -0.22448805 -0.7044383 
0.35422042 -0.3690428 -0.8592644 
0.68887746 -0.50225216 -0.5226765 
0.8263988 -0.51870376 -0.21911539 
0.6168043 -0.736735 -0.2770815 
-0.21087125 0.18255186 -0.9603168 
-0.2897928 0.63823754 -0.7132132 
0.2173209 0.12773454 -0.9677063 
0.2282993 0.23500499 -0.9448027 
-0.553696 -0.038202293 -0.83184224 
0.34428734 -0.65162253 -0.67591 
0.9150313 -0.16711707 -0.367137 
0.37923563 -0.4408037 -0.8135555 
0.119183026 0.054901913 -0.9913532 
-0.12565947 -0.60457176 -0.7865767 
0.30582333 -0.42426997 -0.8523304 
0.06315652 0.09378732 -0.99358714 
-0.05700905 0.35194382 -0.9342835 
0.043014374 -0.57508457 -0.81696236 
0.11236228 0.59456563 -0.79615736 
0.048294164 0.3561138 -0.9331938 
0.11481863 0.056412254 -0.99178344 
0.12906414 -0.46327403 -0.87676656 
0.019705025 -0.25614092 -0.9664386 
0.369931 -0.13193949 -0.91964287 
0.0611704 -0.9025215 -0.42627853 
0.1575788 -0.79028887 -0.5921254 
0.034591176 0.07010667 -0.9969396 
0.050787058 0.10776219 -0.9928786 
0.14531612 -0.23035231 -0.96219593 
0.17158274 0.41947415 -0.8914039 
-0.5408904 -0.56513274 -0.6229468 
-0.40613562 0.24571879 -0.88015693 
-0.7118281 -0.45870504 -0.53187454 
-0.21444452 -0.5935545 -0.7756975 
-0.12553746 -0.36512506 -0.92245543 
-0.31668678 0.7731094 -0.54955566 
-0.67023635 0.09888621 -0.7355303 
-0.38703886 0.41647273 -0.82264894 
-0.9317375 -0.08962196 -0.3518996 
0.19726607 -0.6930555 -0.69336873 
-0.7393001 -0.095082276 -0.6666295 
0.43209466 0.018110296 -0.9016465 
-0.014535957 -0.48138335 -0.8763896 
-0.35986018 -0.68062377 -0.638163 
-0.42233104 -0.35915002 -0.8322547 
0.2476449 -0.9688479 0.0024093753 
-0.31552726 -0.779485 -0.5411524 
-0.64200264 -0.7109964 -0.28690895 
0.31381446 -0.38799113 -0.866593 
0.49585447 -0.28409255 -0.82062167 
0.16290627 -0.98531157 -0.051212512 
-0.055170126 -0.901909 0.42838815 
0.34603718 -0.870998 -0.34874177 
-0.25490278 -0.314122 -0.9145228 
0.12494192 -0.35350993 -0.9270493 
0.40370226 -0.58959985 -0.6995688 
0.8944163 -0.28622255 -0.3436514 
0.73815966 -0.06450647 -0.671535 
0.69076955 -0.32626024 -0.6452842 
0.18937315 -0.80755275 -0.55856645 
-0.103177376 -0.24889761 -0.9630184 
0.5098741 -0.38000643 -0.7717665 
0.30838123 -0.5850322 -0.75009227 
0.6173473 -0.616312 -0.48891905 
-0.020950783 -0.8122841 -0.58288574 
-0.031039165 -0.9311824 -0.36323005 
-0.38971952 -0.40198663 -0.82856834 
0.24009302 -0.32159853 -0.9159311 
0.30699953 -0.5922518 -0.744976 
0.5931204 -0.6743504 -0.43984064 
0.50789946 -0.14086138 -0.8498214 
0.5050008 0.5284879 -0.68240356 
0.7718511 -0.3797526 -0.5099352 
0.3640862 -0.20737939 -0.907984 
0.7282293 0.33611235 -0.59725255 
0.98246443 -0.18355884 -0.032709837 
-0.2943606 -0.8898518 -0.348591 
-0.44595635 -0.4930214 -0.74702936 
-0.2052103 0.00011945832 -0.978718 
-0.31244943 -0.32864642 -0.8912727 
-0.17742665 0.056036133 -0.98253745 
-0.22969083 -0.21011704 -0.9503121 
-0.5266507 -0.49505097 -0.69105977 
-0.6525339 -0.31018195 -0.69136584 
0.42399657 -0.64343154 -0.63735616 
0.7899842 -0.49124217 -0.36688706 
-0.042501952 -0.3567345 -0.93323857 
-0.09075884 0.55362433 -0.8278062 
0.4066322 0.05571357 -0.91189164 
0.30389383 0.06600406 -0.95041686 
0.076571375 0.21415392 -0.9737941 
0.24629506 -0.5882707 -0.7702444 
-0.1601658 -0.1792319 -0.97068167 
0.3757221 -0.28894576 -0.88053584 
0.013750275 -0.47505546 -0.8798485 
-0.39045498 -0.72331035 -0.5695324 
-0.25944242 -0.33543718 -0.9056332 
-0.5246261 -0.02830364 -0.85086226 
0.47469068 0.09842296 -0.87463236 
0.18404394 -0.41839704 -0.88942224 
0.29234582 -0.6608212 -0.6912664 
0.45053202 -0.6852177 -0.57227415 
-0.24455625 -0.40439475 -0.8812816 
-0.3273732 -0.35055804 -0.8774599 
-0.5435899 -0.31855863 -0.7765504 
-0.18072027 -0.14840691 -0.97227347 
-0.45831233 0.24465606 -0.85445493 
-0.30947042 0.7708319 -0.556818 
-0.066856496 0.90885943 -0.41170964 
-0.33705673 -0.047387213 -0.9402911 
-0.18830693 -0.61360675 -0.7668295 
0.5957657 -0.5232318 -0.6093372 
0.51166457 -0.0014575613 -0.859184 
0.12404186 -0.0019776304 -0.992275 
0.47660357 -0.0010453019 -0.8791177 
-0.38640678 -0.6241852 -0.6790308 
0.22105268 -0.14521553 -0.96439004 
-0.1592921 -0.87166697 -0.4634896 
0.3415868 -0.06624824 -0.93751246 
0.10288412 -0.15282363 -0.9828835 
0.49144003 -0.067074694 -0.8683247 
0.20062767 -0.0550788 -0.97811806 
-0.021804404 -0.92147946 -0.38781476 
-0.17249563 -0.91543907 -0.3636161 
-0.44293106 0.10588988 -0.8902806 
-0.5106573 -0.23413616 -0.8272905 
0.31766212 -0.37175268 -0.87229055 
0.45812964 -0.6083792 -0.64806795 
-0.16851667 -0.7419129 -0.6489741 
0.14931053 -0.7017308 -0.69662064 
-0.047800917 -0.45477787 -0.8893212 
-0.18635057 -0.07728999 -0.9794385 
-0.07743851 -0.46792677 -0.8803681 
-0.60109794 -0.2576604 -0.7565002 
-0.03659114 0.11215097 -0.9930173 
-0.19804993 -0.7431618 -0.63912976 
-0.12159253 -0.47158885 -0.87339526 
0.14323592 -0.58003247 -0.8019014 
0.28715262 -0.27161396 -0.91856915 
0.33614835 -0.41640085 -0.8447572 
0.4520543 -0.5398824 -0.710052 
0.10986774 -0.914381 -0.38966197 
0.277329 -0.9525866 -0.12516947 
0.32998732 -0.7821696 -0.52850646 
0.12719242 -0.8706193 -0.47523075 
-0.5533908 -0.60418946 -0.57333565 
-0.08168097 -0.638461 -0.7653078 
0.3440876 0.38254812 -0.8574735 
0.5279008 0.06581968 -0.84675175 
0.34170687 0.4666311 -0.8157768 
-0.060741976 0.4557047 -0.8880561 
0.073287666 0.8169214 -0.5720738 
-0.13664408 0.74144137 -0.6569575 
0.35670993 0.67875624 -0.6419097 
-0.09261017 -0.044547066 -0.9947055 
-0.47741538 -0.435354 -0.763244 
-0.114439934 0.6505598 -0.7507834 
0.26953086 0.12662005 -0.9546311 
-0.21329296 -0.9434072 -0.25394696 
-0.14871778 -0.4893452 -0.85931623 
-0.28415495 -0.95360386 -0.09947733 
-0.9149452 -0.35002244 0.20089719 
-0.6520325 -0.23501734 -0.72084713 
-0.25015584 -0.28620055 -0.9249386 
-0.24503967 -0.56061035 -0.79099417 
-0.04116736 0.29979712 -0.95311433 
0.0938529 0.33536562 -0.9374015 
-0.017496064 -0.63674146 -0.77087885 
0.35675973 0.07304798 -0.93133587 
-0.33125883 -0.33578107 -0.8817702 
-0.15313993 -0.29143924 -0.9442518 
-0.35153872 -0.05567768 -0.93451625 
-0.17826249 -0.6359836 -0.75083107 
-0.9230447 -0.18460691 -0.33750388 
-0.3948437 -0.0025159568 -0.91874486 
-0.24684708 -0.7158823 -0.6531303 
-0.28900218 -0.6118645 -0.7362741 
-0.74046105 0.23300718 -0.63041675 
-0.8701009 -0.025361676 -0.4922208 
-0.071919635 -0.27021673 -0.96010965 
0.4793979 -0.41328722 -0.77419084 
-0.12177081 -0.16045476 -0.97950304 
0.14798224 -0.52634645 -0.8372937 
0.08114571 -0.61699444 -0.78277284 
0.23614027 -0.85416967 -0.463284 
-0.11657847 -0.77556646 -0.6204081 
0.25222185 -0.58505416 -0.7707762 
0.3948229 -0.3585964 -0.84588623 
-0.36421785 -0.4154588 -0.83351034 
0.42518902 -0.27051103 -0.863735 
0.016113503 0.69920284 -0.7147418 
-0.4953813 0.19777478 -0.8458621 
0.1020846 0.32800242 -0.9391449 
0.098822445 -0.20775531 -0.9731762 
-0.14249094 0.45776263 -0.8775817 
0.011576453 -0.18397142 -0.9828635 
-0.8128015 -0.34809467 -0.46710157 
-0.6980698 -0.3379553 -0.6312565 
-0.42004007 0.07919022 -0.90404385 
-0.32940573 -0.30285895 -0.89429766 
-0.15805237 -0.49419084 -0.8548655 
-0.6603358 0.10688915 -0.74332464 
0.07815044 -0.23339266 -0.9692371 
0.28228325 -0.6182745 -0.7335208 
0.081048906 -0.58646 -0.805913 
0.5560256 -0.2717065 -0.7855006 
0.86400473 -0.488754 0.12089396 
0.9227032 -0.08466439 -0.37609953 
0.43066558 -0.075393535 -0.899357 
0.67930216 -0.21688524 -0.7010773 
0.5226781 -0.51335573 -0.68064207 
-0.24413203 -0.030321276 -0.96926785 
-0.40721765 -0.29664814 -0.8638134 
0.32012936 -0.45610505 -0.8303526 
0.65370315 -0.52033764 -0.5494733 
0.97325474 -0.07591665 -0.21682262 
0.7068784 -0.009338803 -0.7072734 
0.84104687 -0.11204784 -0.52923113 
0.19761544 0.11546831 -0.9734553 
0.01341789 0.80213416 -0.5969932 
-0.29452255 0.5276782 -0.79675096 
-0.4894964 0.66217107 -0.5673825 
-0.008003233 0.344772 -0.93865234 
-0.63906604 -0.43835366 -0.6320132 
-0.24990721 -0.4835162 -0.8389031 
0.26758 -0.105291136 -0.9577656 
0.65617085 0.24999455 -0.71199906 
-0.17977343 -0.16968666 -0.9689623 
0.23478813 -0.6819299 -0.6927094 
0.27975124 -0.2036705 -0.9382205 
0.84299624 -0.12171029 -0.52396935 
0.3234826 0.06365586 -0.94409055 
0.6054223 -0.019189404 -0.7956731 
0.9317923 -0.1930842 -0.30737877 
-0.06208795 -0.6421067 -0.7640969 
-0.2650796 -0.17060345 -0.94901395 
-0.14148493 -0.7397168 -0.65787625 
0.4467421 0.5952881 -0.6678725 
0.31272376 0.5046742 -0.80467874 
0.39754805 0.20547494 -0.8942794 
0.3848091 0.5602951 -0.733479 
-0.12709323 0.85712427 -0.49918476 
-0.20087788 0.10204504 -0.97428685 
-0.054464467 -0.18207777 -0.9817746 
-0.12478871 0.005388044 -0.9921687 
0.52099466 -0.15857951 -0.83869976 
0.5795019 0.16490208 -0.79811335 
-0.3164391 -0.25630334 -0.91333187 
0.0665153 -0.46505573 -0.88277906 
-0.4446125 -0.2689547 -0.8543905 
0.26739904 0.14159523 -0.95312566 
0.324341 -0.3205977 -0.8899551 
-0.5662626 0.383968 -0.72932523 
0.12046015 -0.3342746 -0.93474585 
0.006569996 -0.38048205 -0.92476505 
0.13940388 -0.86811465 -0.47638598 
0.6888207 -0.11879983 -0.7151313 
-0.081705935 -0.50913554 -0.85679936 
0.56286085 0.21658461 -0.79767096 
0.16548851 -0.571193 -0.80396026 
0.4710515 -0.09186619 -0.877309 
-0.06913406 0.34155765 -0.9373148 
0.6881478 0.5136812 -0.51242995 
0.05853623 0.6843772 -0.7267747 
0.36324668 -0.041908078 -0.93075 
-0.07915946 -0.14216515 -0.98667264 
0.8467118 -0.5245426 -0.08907457 
0.90623033 -0.11968074 -0.40549114 
0.11188032 -0.44135422 -0.89033103 
-0.23881124 -0.21927698 -0.94598454 
0.42372274 -0.65357447 -0.62713593 
0.1548811 0.010360068 -0.98787886 
0.44768077 0.5613527 -0.69603527 
0.23029506 -0.28201964 -0.9313588 
-0.03895207 0.07512468 -0.9964131 
0.10327661 0.47026443 -0.87646186 
-0.08184942 0.26130864 -0.9617789 
0.021386174 0.07748458 -0.9967642 
-0.2453172 -0.128505 -0.9608881 
0.030433357 -0.5362946 -0.843482 
-0.0908696 -0.060534436 -0.9940213 
-0.63167053 -0.31062868 -0.71028316 
-0.41773328 0.14581752 -0.8967921 
-0.0017072499 0.079099834 -0.99686533 
0.56816125 -0.036501765 -0.82210743 
0.18962522 -0.550728 -0.8128597 
-0.5549662 -0.12825769 -0.8219261 
0.050034404 0.136394 -0.98939043 
-0.2610743 -0.60604244 -0.7513673 
-0.1885397 0.21504372 -0.9582322 
0.08320605 0.034563635 -0.9959328 
-0.33191338 0.22987399 -0.9148724 
-0.1794498 -0.23724316 -0.95473224 
-0.16438624 0.15958495 -0.9734011 
-0.32729968 -0.3683242 -0.87017953 
-0.32644597 -0.7849296 -0.52661055 
-0.5379531 -0.13540764 -0.8320284 
-0.3290716 -0.35626927 -0.8745194 
-0.4388293 -0.22723049 -0.86936474 
-0.573264 -0.1800629 -0.79934084 
0.37075484 -0.3053902 -0.87708485 
0.11997485 -0.58624446 -0.8012013 
0.49208406 -0.687605 -0.5339033 
-0.2301749 -0.65160644 -0.72279227 
0.31025642 -0.3296513 -0.89166754 
-0.042602383 -0.21401203 -0.9759016 
-0.026218317 -0.93927014 -0.34217563 
0.012018425 -0.9908407 0.13450027 
-0.4908065 -0.81066066 -0.31927776 
0.36120233 -0.6222257 -0.6945272 
0.3097134 -0.8468617 -0.43232256 
0.19700024 -0.6149624 -0.7635524 
0.4122935 -0.5278891 -0.7425276 
0.14394508 0.2075783 -0.9675697 
0.12924854 0.14204071 -0.9813865 
-0.14368798 0.43576878 -0.88851523 
-0.003276982 -0.359092 -0.93329644 
0.105083175 -0.34259933 -0.9335863 
-0.2394722 -0.06998736 -0.9683775 
0.2577909 -0.7560011 -0.60166967 
0.12444723 -0.51935375 -0.8454494 
-0.31267288 -0.3687002 -0.87538326 
-0.5505663 0.16897655 -0.81751066 
-0.4824244 -0.08526625 -0.8717778 
-0.03378408 -0.8468343 -0.5307828 
0.55083835 -0.13623458 -0.823418 
-0.28064904 0.30527985 -0.90996724 
0.2596224 0.045567114 -0.96463466 
0.55797744 -0.41629934 -0.71788305 
0.18247692 -0.29288283 -0.9385744 
0.63880056 0.24687207 -0.7286894 
0.38594583 0.073140554 -0.9196175 
-0.7593767 -0.10555406 -0.64203227 
-0.7435147 -0.3183322 -0.58809054 
0.20969428 0.39107186 -0.8961536 
0.07811947 -0.09382533 -0.99251914 
-0.025508158 -0.4052316 -0.91385823 
-0.0039513507 -0.25737944 -0.9663024 
-0.44906607 -0.26251292 -0.8540648 
0.07954512 -0.23989822 -0.9675337 
0.5900222 -0.626972 -0.5087043 
0.41036284 0.22884284 -0.882742 
0.046366975 -0.3014759 -0.9523457 
-0.044014547 0.5265297 -0.84901667 
-0.069039725 0.588724 -0.8053804 
-0.4124008 0.1802358 -0.89299536 
0.17946137 0.01541525 -0.98364425 
0.49356988 -0.56074435 -0.6647967 
-0.4293512 0.1180985 -0.8953828 
-0.07491755 -0.74354976 -0.6644706 
-0.0019181347 -0.5016479 -0.8650698 
0.1924891 -0.5953325 -0.78008145 
0.3979083 -0.4871041 -0.7774308 
-0.003839318 -0.62902117 -0.7773787 
0.70667815 -0.54446125 -0.45184952 
0.90892845 0.083472565 -0.4085112 
0.5243014 -0.52252644 -0.6723646 
0.5391504 -0.37889883 -0.7521653 
0.8085874 -0.39906663 -0.43235666 
0.3657974 -0.6353942 -0.68004894 
0.085939065 -0.09422205 -0.99183506 
-0.03982766 -0.24977611 -0.9674843 
-0.47751012 -0.49483624 -0.7260312 
-0.042713873 -0.555539 -0.8303926 
-0.05502797 -0.0030938801 -0.99848 
0.29592168 0.34720734 -0.88987505 
0.45578912 -0.07199985 -0.887171 
0.15755592 -0.026931157 -0.98714274 
0.3833683 -0.83470905 -0.39533493 
0.7864294 0.11960586 -0.60598963 
0.4623117 -0.04337931 -0.8856558 
-0.34910616 0.23076135 -0.90822583 
0.17103569 0.25877693 -0.95067424 
0.912879 0.12435417 -0.38882893 
-0.102724984 -0.11096756 -0.9885008 
-0.1421649 0.10442915 -0.984319 
0.32444724 0.4901139 -0.8090255 
0.40781435 -0.16587913 -0.89787054 
-0.29897547 -0.8529344 -0.4279214 
-0.25480074 -0.72894275 -0.6353889 
-0.37668607 -0.5097917 -0.77344704 
-0.049253263 -0.6131715 -0.78841287 
0.10420593 -0.27792373 -0.9549343 
0.43999976 -0.26858684 -0.85689056 
0.124637574 -0.4606437 -0.8787907 
0.17073798 -0.71166605 -0.6814544 
0.7217971 -0.040140446 -0.6909398 
0.69722515 -0.47424465 -0.5375586 
0.03677384 -0.24583927 -0.96861285 
0.30545118 -0.66403747 -0.6824616 
0.8451538 -0.30368426 -0.43987614 
0.092092864 -0.60857964 -0.7881306 
-0.24458615 -0.23574975 -0.9405316 
-0.27598178 0.06517917 -0.9589504 
0.15705869 -0.32878783 -0.9312525 
0.40547767 -0.6299178 -0.6624135 
0.1455547 0.4059098 -0.90224785 
-0.07248232 -0.05386568 -0.99591404 
0.48757187 -0.6627886 -0.5683178 
0.5582372 -0.16862512 -0.81236506 
0.046110712 -0.45858932 -0.8874513 
-0.24364029 -0.6970892 -0.674319 
-0.47497913 -0.7846252 -0.39844483 
-0.26895472 0.50978464 -0.81717986 