# OOMMF: rectangular mesh v1.0
# Segment count: 1
# Begin: Segment
# Begin: Header
# Desc: Time (s) :  9.010000000000025e-07
# Title: m
# meshtype: rectangular
# meshunit: m
# xbase: 2e-09
# ybase: 2e-09
# zbase: 5e-10
# xstepsize: 4e-09
# ystepsize: 4e-09
# zstepsize: 1e-09
# xmin: 0
# ymin: 0
# zmin: 0
# xmax: 1.024e-06
# ymax: 1.024e-06
# zmax: 1e-09
# xnodes: 256
# ynodes: 256
# znodes: 1
# ValueRangeMinMag: 1e-08
# ValueRangeMaxMag: 1
# valueunit: 
# valuemultiplier: 1
# End: Header
# Begin: Data Text
-0.42086756 -0.18566409 -0.8879186 
-0.47928852 -0.0750803 -0.8744401 
-0.7940276 -0.30822128 -0.5239464 
0.4744729 -0.6875391 -0.5496959 
0.25215054 -0.96310747 -0.09404436 
0.8154082 -0.5783895 0.023981944 
-0.13236809 0.0798195 -0.9879816 
-0.51883495 -0.05030641 -0.853393 
-0.06867351 0.2807292 -0.9573271 
-0.6865493 -0.54710597 -0.4788791 
-0.24792346 0.14096783 -0.9584687 
-0.75501174 0.0024973068 -0.65570647 
-0.7832896 -0.5236411 -0.33504853 
-0.40325618 -0.9149725 -0.01449312 
-0.04162869 -0.9724502 0.22936395 
-0.26611152 -0.8376787 -0.47694767 
0.3804801 -0.8212047 -0.42527366 
-0.6867894 -0.66464496 -0.29422334 
0.14921601 -0.8276894 -0.5409851 
-0.039282933 -0.38541517 -0.9219068 
0.40543967 -0.24083081 -0.8818273 
-0.32801926 -0.25304842 -0.9101483 
-0.08507196 -0.68240035 -0.7260115 
-0.64698786 -0.19976658 -0.7358669 
0.08356595 -0.45960808 -0.8841817 
-0.30954325 0.32778925 -0.89260143 
-0.56179494 -0.6528798 -0.50806934 
-0.013800352 0.027808608 -0.99951804 
0.14360374 -0.49364713 -0.8577241 
0.20550306 -0.4804009 -0.85263324 
-0.4779239 -0.3364334 -0.8114194 
-0.22194944 -0.3634808 -0.9047763 
-0.07421158 -0.5486958 -0.8327218 
0.35933006 -0.34534284 -0.86696047 
0.38632262 0.0010826272 -0.9223631 
0.10600234 -0.25317726 -0.961595 
-0.21344018 -0.053368285 -0.9754974 
0.4717681 -0.28315637 -0.83501947 
0.2480252 -0.30936238 -0.91802967 
-0.15725006 -0.65992874 -0.7346881 
0.38280186 -0.08744315 -0.91968286 
-0.36875102 0.020854333 -0.9292943 
0.0976253 -0.7376043 -0.6681386 
0.28563684 -0.28288764 -0.9156343 
0.06598948 -0.060322944 -0.9959953 
0.1295424 0.172112 -0.9765225 
-0.013198459 -0.6349022 -0.7724798 
-0.009087065 -0.49966168 -0.866173 
0.31958073 -0.7527407 -0.5755429 
-0.37009352 -0.7475331 -0.55156606 
-0.62065285 -0.3963397 -0.6765389 
-0.46031186 -0.626177 -0.6292975 
-0.25085706 -0.20261504 -0.94658226 
-0.34213135 -0.037624046 -0.9388987 
0.06266216 -0.9582053 -0.27913445 
-0.7515039 -0.12238188 -0.64827836 
-0.8671835 -0.30402035 -0.39441648 
0.14585355 -0.17846686 -0.97307575 
-0.16226313 0.4814572 -0.8613185 
0.03195028 0.11663563 -0.99266076 
0.6208766 -0.16017029 -0.76737076 
0.19062448 -0.66842616 -0.71893597 
0.5068082 -0.33097258 -0.7959916 
-0.31345394 -0.38795435 -0.8667399 
-0.5465741 -0.35664728 -0.75766706 
0.37049353 0.31650025 -0.87324816 
0.36227304 0.20927365 -0.9082747 
0.5773906 -0.33384827 -0.7450943 
-0.34883392 -0.5091804 -0.7867974 
0.43172374 -0.07474406 -0.8989037 
0.27618217 -0.65021306 -0.7077758 
0.27896518 -0.76890665 -0.5752921 
0.21583237 0.0010251964 -0.97643 
0.7927105 -0.4353271 -0.42673215 
0.4310707 -0.4170078 -0.80017656 
0.35292798 -0.47468042 -0.80630046 
0.118285656 -0.65229005 -0.748683 
0.82157654 -0.5513275 0.14508636 
0.85485727 -0.3571133 -0.3764164 
0.43404698 -0.35572892 -0.82768375 
0.3188407 -0.6130441 -0.7228538 
-0.48989713 -0.7255332 -0.48332447 
-0.39393488 -0.8612118 -0.32113817 
-0.55222565 -0.8195276 -0.15304047 
-0.50228053 -0.7253554 -0.47071645 
-0.46640348 -0.4517257 -0.7605339 
0.1963444 -0.20129378 -0.9596509 
-0.05072342 -0.8150556 -0.57715815 
-0.75035745 -0.6605929 0.024097798 
-0.5641051 -0.71448886 -0.41387334 
-0.3328596 -0.7866851 -0.5199337 
-0.53245217 -0.24947785 -0.8088607 
-0.16808665 -0.22072683 -0.9607428 
0.6176553 0.6373196 -0.4607881 
0.22633511 0.047506817 -0.9728904 
0.4000374 0.097578555 -0.9112896 
-0.75093037 -0.44566515 -0.4873255 
0.15722597 -0.5355523 -0.82973725 
-0.6510971 0.26913568 -0.709675 
-0.046761714 -0.045685574 -0.99786085 
0.040940296 -0.16663596 -0.9851683 
-0.2927582 -0.691561 -0.6603303 
-0.3184725 -0.7564163 -0.57132286 
-0.015495015 -0.8761529 -0.4817843 
-0.26056108 -0.8729582 -0.41237375 
-0.09103763 -0.9917901 -0.08980238 
-0.40577868 -0.52264094 -0.74979347 
0.18694668 -0.90122664 -0.39094967 
-0.46109816 -0.7217195 -0.5162456 
-0.05146158 -0.10062372 -0.9935928 
0.046489928 0.25871798 -0.9648335 
0.14197718 -0.16083354 -0.97671646 
-0.848349 0.45636606 -0.2683917 
-0.72066313 -0.25085378 -0.6463104 
-0.47327885 0.1828058 -0.8617362 
-0.7975993 0.4845137 -0.3592798 
-0.66374284 -0.68851006 -0.29223183 
0.71626306 -0.586473 -0.37817562 
0.13059847 -0.92306113 -0.36180416 
0.36771032 -0.7717096 -0.51889634 
-0.55117685 -0.21665607 -0.8057694 
-0.6873693 -0.70573324 -0.1716512 
0.22989818 -0.4458346 -0.86508876 
-0.06182376 -0.33120865 -0.94153 
-0.15001594 -0.043235637 -0.9877378 
-0.9303855 -0.36409488 0.042635445 
-0.19310504 0.047298517 -0.9800374 
0.5167884 -0.052848116 -0.85448045 
-0.25860295 -0.32099003 -0.9110927 
0.3822009 -0.7298136 -0.56682855 
-0.148311 -0.9210931 -0.35998794 
0.09778946 -0.7747855 -0.6246156 
-0.029618967 -0.2235469 -0.9742431 
0.22847962 0.54436725 -0.8071317 
0.49871615 0.33071312 -0.8011935 
0.82961535 0.22948448 -0.5089944 
0.63102186 -0.45026833 -0.63171977 
0.6886018 -0.14888242 -0.7096912 
0.012097465 0.039466836 -0.9991477 
0.55760735 -0.6134849 -0.55920506 
0.024792003 -0.09667678 -0.9950071 
-0.04964077 -0.32928243 -0.9429257 
0.8505013 -0.37574556 -0.3680529 
-0.17938466 -0.9820814 -0.05776831 
0.17750454 -0.67611974 -0.7150904 
-0.55723286 0.23121808 -0.7975148 
0.05933442 0.5561623 -0.8289529 
0.5943958 -0.061804004 -0.8017942 
0.29535738 -0.34809205 -0.88971674 
0.7516093 -0.4298162 -0.5003414 
0.052432146 -0.97570914 -0.21270293 
-0.044448793 -0.8467434 -0.5301416 
-0.7224727 0.06549985 -0.6882899 
0.21171685 0.2375717 -0.94801676 
0.26265994 -0.26615182 -0.9274552 
0.26610738 -0.9500963 -0.1628001 
0.75856483 -0.42999727 -0.48957294 
-0.21072118 0.15166612 -0.96570903 
-0.4478611 0.75257355 -0.48275614 
-0.2577217 0.6386588 -0.72504795 
0.2496118 0.63900226 -0.7275783 
-0.24579065 0.43952686 -0.8639462 
0.16995071 -0.16634478 -0.9713116 
0.16427185 -0.06709415 -0.9841306 
0.48632526 0.0852254 -0.8696116 
0.14235498 -0.6132971 -0.7769182 
0.24975176 -0.8062967 -0.53619945 
-0.34844935 -0.3579846 -0.86627376 
0.2987665 -0.1733181 -0.93845594 
0.9001597 0.05239735 -0.4323968 
0.42444214 -0.47867024 -0.76858544 
-0.13917221 -0.97978073 0.14373888 
-0.5186658 -0.8533233 0.05315334 
-0.6362543 -0.49722415 0.5898718 
-0.12075011 -0.61394334 -0.7800597 
-0.15039656 -0.35705885 -0.9218948 
0.1865652 -0.005667437 -0.9824262 
-0.44691396 -0.4901849 -0.74832267 
0.0018690084 0.012811002 -0.9999162 
0.42233923 -0.752429 -0.5054507 
-0.2241109 -0.25829226 -0.9397124 
0.09926665 -0.5087343 -0.85518163 
0.71139795 -0.30315843 -0.634041 
0.77754164 -0.3427405 -0.52721715 
0.6236968 -0.5544854 -0.55095214 
0.30106604 0.07482302 -0.9506634 
0.3678866 -0.6578644 -0.65717113 
0.30262926 -0.33604497 -0.8919021 
0.264378 0.32710344 -0.9072528 
0.17781976 -0.5201659 -0.8353488 
-0.18672591 -0.4408213 -0.87795794 
-0.37842727 -0.3885942 -0.84011155 
0.090640195 -0.40044627 -0.9118263 
-0.15984693 -0.7494185 -0.6425115 
-0.32482633 -0.21026075 -0.9221054 
0.1252289 -0.58858144 -0.79867995 
0.4975296 -0.19672816 -0.8448445 
0.2668068 -0.46369287 -0.8448688 
0.33497542 -0.1872815 -0.9234269 
-0.39355698 -0.01497782 -0.9191782 
-0.1300935 0.28818122 -0.94869775 
0.04538914 -0.17273468 -0.98392206 
-0.07686171 -0.49077052 -0.867892 
0.6936589 -0.33205032 -0.6392026 
0.46719596 -0.5022738 -0.7276325 
0.5263341 -0.8445429 0.09858857 
-0.18876383 -0.93761694 0.29196364 
0.12762564 -0.7894417 -0.6004112 
-0.109481476 -0.28787947 -0.95138806 
0.51464444 -0.18726721 -0.8367031 
0.53330034 -0.44324082 -0.7205056 
-0.28912166 -0.4477098 -0.84614694 
0.45078066 -0.50175583 -0.7382669 
0.9047657 0.0028669385 -0.42589998 
0.67997795 -0.7319251 0.04377002 
0.44021487 -0.8267726 -0.3502259 
0.78197527 -0.13917103 -0.60757405 
0.5547491 0.10953672 -0.8247759 
0.53709424 -0.35514125 -0.7651174 
0.8023674 -0.596599 -0.016621912 
-0.06885644 -0.92887574 -0.36393496 
-0.36178797 -0.4386877 -0.8225951 
-0.067108035 -0.025965424 -0.99740785 
0.049119435 -0.22185001 -0.97384286 
0.42320448 -0.25241426 -0.8701639 
0.56531084 -0.5730013 -0.5933745 
0.28081867 -0.9102794 0.30419135 
-0.5885364 -0.79516286 -0.14608593 
-0.45957902 -0.84876794 -0.26149622 
-0.66947204 0.08291473 -0.7381954 
-0.6605945 -0.05019285 -0.7490632 
-0.10960246 -0.5141155 -0.8506894 
0.4583969 0.23889285 -0.85603887 
0.39769006 -0.081089646 -0.91392946 
0.13700725 0.18715242 -0.9727297 
-0.032787852 -0.14560314 -0.9887997 
-0.5248548 -0.8232151 -0.21643543 
0.22458486 -0.2947772 -0.9287992 
-0.023321226 -0.46025985 -0.8874779 
0.5265295 -0.7966448 -0.29685667 
-0.22337931 -0.37128448 -0.90124893 
0.34354722 0.5095913 -0.78885484 
0.53157526 -0.008841953 -0.84696496 
-0.778337 0.00729775 -0.62780446 
0.12351584 -0.5082994 -0.8522767 
0.12900296 -0.54786325 -0.8265616 
-0.19176985 -0.45353413 -0.8703627 
-0.024646673 -0.38713533 -0.9216935 
0.2394152 -0.78782624 -0.56745946 
-0.20961615 -0.071718134 -0.9751501 
0.3266399 -0.03634161 -0.94445 
0.3601707 0.025150372 -0.9325474 
0.8208018 0.20507158 -0.53313243 
0.2654183 -0.31588024 -0.9109188 
0.19104882 -0.37714362 -0.9062357 
0.48544776 0.3285551 -0.81018025 
-0.3518728 0.21796367 -0.91031724 
0.04848279 -0.2766133 -0.9597575 
0.5839959 -0.6888478 -0.42946216 
0.7963624 -0.45996717 -0.39273053 
0.69954395 -0.6898175 -0.1865214 
0.6123196 -0.64845186 -0.45229954 
-0.32915455 -0.6397816 -0.6945047 
-0.53181523 -0.26003075 -0.8059508 
-0.40493035 -0.7448271 -0.5303435 
-0.3024403 -0.49799767 -0.812729 
-0.54601467 -0.4939626 -0.6766601 
-0.45463228 0.31678945 -0.83243865 
-0.11860105 -0.4328549 -0.89362776 
-0.017250095 -0.7884102 -0.614908 
0.12854391 -0.35025442 -0.92779225 
-0.0012810502 -0.44235525 -0.8968391 
0.067355946 0.041474566 -0.99686664 
-0.22407131 -0.6740245 -0.7039056 
0.076189324 -0.37101144 -0.92549753 
0.32926473 -0.31370082 -0.8906047 
-0.07254255 0.024383577 -0.9970672 
-0.13467455 -0.15198602 -0.97916454 
0.120632194 0.17273633 -0.9775531 
-0.49216762 0.29965645 -0.81729865 
-0.47326458 -0.20906818 -0.8557518 
-0.17979881 -0.08668752 -0.9798764 
0.00918445 -0.48864865 -0.8724323 
0.6771254 -0.5595994 -0.4778597 
-0.49164924 -0.84111845 -0.22539063 
0.4689363 0.0017536207 -0.8832303 
0.00055975525 -0.27712512 -0.96083367 
-0.44272313 -0.46949056 -0.7639208 
0.007953872 0.44093034 -0.89750606 
-0.035823677 0.25825244 -0.96541303 
-0.18623842 0.07360451 -0.9797437 
-0.16269132 -0.4229164 -0.89144456 
-0.270757 0.046324864 -0.9615325 
0.16270994 0.14030012 -0.97664803 
0.22845483 -0.49118623 -0.8405621 
-0.11143391 -0.09911194 -0.9888172 
-0.16609378 0.22778149 -0.95944184 
-0.38416615 0.09304729 -0.91856337 
-0.3057657 -0.3674455 -0.8783458 
-0.18609302 -0.6153843 -0.76594496 
-0.22416781 0.19807397 -0.9542093 
-0.3659947 -0.5485727 -0.75174195 
0.45043865 -0.45779675 -0.76650316 
-0.5213258 -0.47295785 -0.71030295 
-0.96561456 0.16361816 -0.20203406 
-0.6057948 0.029839318 -0.79506123 
-0.38638124 -0.007156281 -0.9223114 
-0.26595572 -0.71419716 -0.64744896 
-0.4427218 -0.21200176 -0.87123626 
0.26224497 0.02274752 -0.96473324 
-0.12386158 -0.30125907 -0.94546354 
-0.51836276 -0.49771234 -0.6954011 
-0.0951038 -0.17521282 -0.97992647 
-0.24576509 -0.14150766 -0.9589448 
-0.3297807 0.11703323 -0.93677527 
-0.17028967 -0.2800419 -0.9447634 
0.22264883 -0.17815304 -0.9584827 
0.09019623 -0.07623867 -0.9930017 
0.041878164 0.37657055 -0.92544085 
0.116490476 -0.13497092 -0.9839781 
-0.23795946 -0.25502154 -0.93719757 
0.08454116 0.11747459 -0.9894709 
0.011897828 0.18325117 -0.98299414 
-0.023929419 0.12565573 -0.9917853 
-0.25511023 -0.41113532 -0.87514955 
-0.5439567 0.050266627 -0.8376064 
0.10091344 -0.30657262 -0.9464829 
0.061279986 -0.45786566 -0.8869069 
0.14538293 -0.3781372 -0.9142626 
0.20893882 -0.04068443 -0.97708213 
0.25819683 0.024158476 -0.9657902 
0.2560375 -0.14161062 -0.95623815 
-0.2762202 -0.5363541 -0.7975129 
0.6860933 0.19250533 -0.7015823 
0.6523952 0.43323272 -0.62184405 
0.05471864 0.22556622 -0.9726899 
0.18468046 -0.15399107 -0.97065955 
-0.5264976 -0.41056004 -0.7444735 
-0.05173493 -0.794081 -0.6056064 
-0.2582575 -0.9214676 -0.29017326 
-0.24776438 -0.45323837 -0.8562638 
0.016429197 -0.5662017 -0.824103 
-0.09243035 -0.39154717 -0.9155039 
0.3692716 -0.01841374 -0.92913914 
-0.1939119 -0.23024765 -0.95361644 
-0.75148296 -0.38056004 -0.53893185 
-0.2108853 -0.6197203 -0.75595915 
-0.3219025 -0.5105096 -0.79734486 
-0.0680909 -0.21788062 -0.9735973 
0.107288785 -0.20901434 -0.97200936 
0.2023304 -0.16811338 -0.96478 
-0.23382491 -0.30911544 -0.92183167 
0.03526896 -0.10348773 -0.99400526 
0.2608361 0.15361916 -0.9530822 
-0.49504393 -0.12067607 -0.86044693 
0.33969867 -0.39100322 -0.85540706 
-0.74093807 -0.10230445 -0.6637354 
-0.30386916 -0.8267106 -0.47351167 
-0.6945189 -0.48447338 -0.5319109 
0.004503393 -0.13681883 -0.9905859 
-0.15250257 -0.2370679 -0.95944875 
-0.09055993 0.38414058 -0.9188226 
-0.30464673 0.2968956 -0.90501016 
0.044764176 -0.44778642 -0.8930193 
-0.25872946 -0.57799083 -0.77394164 
0.0065332833 -0.11433782 -0.99342054 
-0.14987707 0.3754502 -0.9146442 
-0.42584294 0.18364131 -0.8859649 
-0.3963335 0.66288257 -0.6352216 
-0.92047757 0.050713174 -0.38749108 
-0.65705466 0.23825648 -0.71520144 
-0.34106296 -0.36731097 -0.86530846 
-0.68682915 -0.68251437 -0.2498798 
0.15535407 -0.85571444 -0.4935767 
-0.11527638 -0.84663385 -0.51954055 
0.19670057 -0.9155459 -0.3508345 
-0.4533912 -0.29351646 -0.8415964 
-0.15992817 -0.005676565 -0.9871124 
0.25714645 -0.024210403 -0.9660692 
-0.40081188 -0.51532954 -0.75748634 
-0.5147223 0.06976033 -0.85451424 
-0.6402017 -0.68315476 -0.35134232 
-0.28834638 0.48181146 -0.82747465 
-0.18887128 -0.115464054 -0.9751901 
-0.33308354 -0.40802068 -0.85004383 
-0.0323215 0.09178188 -0.99525446 
0.6153721 0.22431993 -0.7556439 
-0.08653062 -0.9649337 -0.24782145 
-0.01926403 -0.12653072 -0.9917757 
0.248218 0.2060174 -0.9465435 
0.5432833 0.2407298 -0.8042962 
0.6559197 0.03953651 -0.75379467 
0.9535242 0.17957215 -0.2419619 
0.49547052 -0.45506743 -0.7398802 
0.10792685 -0.8351564 -0.5393197 
0.5453539 0.050628327 -0.8366756 
0.32067105 -0.42587012 -0.8460525 
0.8199113 -0.2706242 -0.5044879 
0.68289053 -0.44457862 -0.579664 
0.11563054 -0.38226992 -0.91678756 
0.4094145 -0.5045909 -0.7601104 
0.22777149 -0.4496843 -0.86365753 
0.63350415 0.0024197209 -0.7737355 
0.1303978 0.15350658 -0.9795061 
0.020654067 -0.343591 -0.93889225 
0.16525152 -0.88029826 -0.44471008 
0.32878402 -0.5550726 -0.7640652 
0.12665595 -0.17793319 -0.9758576 
-0.25008044 -0.26414472 -0.9314974 
0.034931283 -0.065115444 -0.9972662 
0.5771299 0.32512346 -0.7491435 
0.77491975 0.204498 -0.5980635 
0.7380694 -0.5075013 -0.4446302 
0.030993067 -0.41072163 -0.91123384 
-0.3918138 0.24114871 -0.88787913 
0.21860981 -0.034038752 -0.97521853 
0.5194626 -0.49620315 -0.69565874 
0.0429993 -0.45141286 -0.89127856 
0.6569056 -0.23957846 -0.71489674 
0.7460265 -0.42298526 -0.51432276 
0.3442909 -0.5268761 -0.7770878 
0.64957374 -0.38031712 -0.658341 
0.31703466 -0.4017995 -0.85909617 
-0.014009057 0.01038155 -0.999848 
0.44573987 0.5210891 -0.72786146 
0.49248117 0.16066109 -0.8553657 
0.13648939 -0.22464134 -0.96483517 
0.08671698 -0.82063496 -0.5648349 
0.44912502 -0.5211367 -0.72574335 
-0.02328667 -0.6667423 -0.7449245 
-0.12073298 -0.1898441 -0.9743628 
-0.01543564 -0.22715947 -0.9737353 
-0.29830962 -0.60816026 -0.73563075 
-0.023234943 -0.56035304 -0.8279279 
0.0071190554 -0.47344136 -0.88079655 
-0.10078685 -0.25780126 -0.96092695 
0.072231375 0.1578145 -0.98482347 
0.78088677 -0.16902746 -0.6013698 
0.66554713 -0.5022679 -0.55206335 
0.37851083 -0.48389265 -0.7890359 
0.77347994 -0.30828282 -0.5537964 
0.82294595 0.4351928 -0.3651948 
0.62598985 -0.61873406 -0.47466293 
0.4659668 0.020207986 -0.8845714 
0.6906583 -0.6291178 -0.3566539 
0.5123155 -0.2138013 -0.8317583 
0.53718716 -0.43094957 -0.7250603 
-0.0026467952 0.0063768495 -0.99997616 
0.04088801 -0.05506225 -0.9976454 
-0.11080493 -0.22469135 -0.96810955 
0.17233157 -0.44439644 -0.8790983 
0.20786242 -0.7051714 -0.67788386 
-0.30347535 -0.18006347 -0.9356709 
0.207648 -0.054157324 -0.9767033 
0.21536641 -0.3852827 -0.89731514 
-0.053723436 -0.18064488 -0.98208004 
0.2885203 0.23754309 -0.92753947 
-0.4734336 -0.09888819 -0.87526095 
-0.1179866 -0.1273076 -0.98482084 
0.058071032 -0.6438014 -0.762986 
-0.2358554 -0.9240567 -0.30081797 
0.36617422 -0.87696993 0.3111917 
-0.21077077 -0.97391886 0.084010996 
-0.4418946 -0.8173918 -0.369594 
-0.10723561 -0.44949305 -0.8868239 
0.12518747 -0.6207939 -0.7739141 
0.7513199 -0.38189214 -0.53821635 
0.51124996 0.24679938 -0.8232337 
-0.36862734 0.13791367 -0.9192898 
-0.5662116 0.015380297 -0.8241164 
-0.15683253 -0.93840367 -0.30789974 
0.37801263 -0.9006344 -0.21439263 
0.3389285 -0.5161822 -0.7865644 
0.17778513 -0.59768486 -0.78177065 
-0.021194946 -0.5213539 -0.8530774 
0.43886006 -0.21340653 -0.8728457 
-0.047201432 -0.652033 -0.75672007 
0.22880466 -0.2814169 -0.93190825 
-0.14560007 -0.024125053 -0.9890494 
-0.019893305 0.15913264 -0.9870568 
0.5611603 0.3898227 -0.73016256 
-0.017283835 -0.18855134 -0.9819113 
0.13345155 -0.15575227 -0.97874 
0.34318137 -0.71022457 -0.6146607 
-0.65536964 -0.7139993 0.24636497 
-0.3710364 0.11773113 -0.9211251 
-0.69798464 0.012459734 -0.7160044 
-0.40984464 -0.2783393 -0.86865103 
-0.7036618 0.20024733 -0.6817339 
0.67523295 0.02230921 -0.73726714 
0.59286755 0.38369676 -0.70801485 
0.6450973 -0.25422925 -0.7205671 
-0.25219035 -0.04576235 -0.96659505 
0.5015734 0.7625436 -0.408597 
0.1052323 -0.088989235 -0.990458 
0.2584715 -0.75314075 -0.60495573 
0.6948727 -0.22527736 -0.6829364 
-0.054400064 -0.5573488 -0.82849437 
-0.37590784 -0.46245375 -0.80301297 
-0.24805485 -0.15257423 -0.95665556 
-0.05931875 -0.7781565 -0.625263 
0.36753216 0.14933835 -0.91794246 
0.64521873 0.20827186 -0.73506176 
-0.063490875 -0.6293622 -0.7745142 
0.35713154 -0.40223402 -0.8430095 
0.39877918 -0.32739148 -0.85661554 
0.2776659 0.31056497 -0.90909356 
0.22341809 -0.17706484 -0.9585053 
0.39106908 0.030104944 -0.9198689 
0.51643515 0.5815746 -0.62854254 
0.5456662 0.54407084 -0.63736594 
0.94173115 0.16216928 -0.2946923 
-0.20229678 0.21416344 -0.9556202 
0.20089443 -0.5824718 -0.7876345 
0.25736877 -0.5478993 -0.79596967 
0.5500155 -0.23271498 -0.8020766 
0.8609728 -0.042382427 -0.50688213 
0.44919157 -0.46517378 -0.76278454 
-0.052863743 -0.64004934 -0.7665131 
0.21370769 -0.5310984 -0.81991684 
0.016562615 -0.7637487 -0.6453012 
0.31394705 -0.3952873 -0.8632412 
-0.041719507 -0.9293992 -0.3667105 
-0.59687376 0.3643418 -0.7148405 
0.042539343 -0.24127385 -0.9695243 
-0.1905006 -0.30115137 -0.93435407 
-0.031056875 -0.42830166 -0.90310204 
-0.58035785 -0.36521363 -0.72787625 
-0.13996214 -0.30842724 -0.9408949 
-0.16380265 -0.1675164 -0.9721661 
-0.48478097 -0.5145795 -0.707245 
-0.6247487 -0.22152808 -0.7487419 
0.10450619 0.32087266 -0.9413391 
0.038788345 -0.004222826 -0.99923855 
0.22732458 -0.5567077 -0.7989994 
0.066334285 -0.50056726 -0.86315256 
-0.04253331 -0.19342369 -0.980193 
-0.14691585 -0.35911232 -0.92165834 
-0.31381953 -0.1956173 -0.9291132 
0.0682565 -0.76536274 -0.63996947 
-0.26138243 -0.18749401 -0.9468502 
-0.09723582 -0.11567102 -0.98851687 
0.30844983 -0.7032973 -0.64049333 
0.29249263 -0.6171523 -0.7304596 
0.32479247 0.17544588 -0.92937 
-0.20406516 -0.22431761 -0.9529109 
0.47736412 0.14720002 -0.8662884 
0.29469055 0.2193158 -0.930085 
-0.065085724 -0.16910832 -0.9834462 
-0.30258006 -0.20641074 -0.9305052 
0.32979488 -0.5206933 -0.787473 
0.18434672 -0.5216527 -0.8330034 
-0.09920218 0.31376705 -0.9443036 
-0.25848275 -0.36325145 -0.8951174 
0.30137432 -0.4336032 -0.84921247 
-0.03896604 -0.23671469 -0.9707975 
-0.16369338 -0.22337975 -0.96088815 
0.29648027 -0.39908847 -0.8676565 
0.091559865 -0.20839354 -0.97374994 
0.35024175 -0.8144518 -0.46260032 
-0.04610281 -0.43980217 -0.89691055 
-0.40554518 -0.3642305 -0.83837295 
-0.72086716 -0.20878331 -0.66087824 
-0.42569613 -0.24702708 -0.8704944 
-0.29777092 -0.8182537 -0.49172503 
-0.16518867 -0.5126372 -0.842565 
0.5613948 0.16774471 -0.8103689 
-0.027366906 0.11151103 -0.9933864 
0.53235966 -0.5741243 -0.6220728 
-0.39998376 0.2747507 -0.87437135 
-0.0056620804 -0.07468571 -0.9971911 
-0.11668061 0.3471109 -0.93053734 
0.26500967 0.6426762 -0.71884435 
0.8209886 0.49347305 -0.2871623 
0.42969397 -0.012014765 -0.9028946 
0.24425757 0.37166533 -0.8956579 
0.40185624 -0.108767085 -0.9092202 
-0.372131 -0.35280058 -0.85851634 
0.21820234 -0.46283877 -0.85916704 
0.55011815 -0.69935447 -0.45636982 
0.07648589 -0.30772594 -0.9483959 
-0.098603584 0.5231461 -0.8465196 
-0.03903713 0.0019378779 -0.99923587 
0.20549425 0.119716674 -0.9713084 
0.10956365 -0.039706267 -0.9931865 
0.53915936 0.25378403 -0.80305725 
0.14907505 0.25467664 -0.9554666 
0.7359658 0.16664387 -0.6561892 
-0.020514706 -0.12844491 -0.9915045 
0.23097597 0.18721491 -0.9547779 
-0.46078277 0.5686811 -0.68138176 
-0.023965716 0.23412542 -0.971911 
-0.029945148 -0.2758684 -0.96072894 
-0.06418432 0.096036546 -0.99330634 
0.22611888 -0.4679284 -0.8543497 
-0.19128695 -0.431239 -0.8817269 
-0.58772564 -0.43617797 -0.6814157 
0.22781193 -0.39239332 -0.8911394 
0.54942435 -0.13224953 -0.8250109 
0.5494571 -0.40197125 -0.73247254 
0.66364837 0.13052444 -0.7365692 
0.3754836 -0.38193563 -0.84447455 
0.22410668 0.1200358 -0.96714413 
-0.14691754 -0.63246834 -0.7605255 
-0.36328685 -0.6112097 -0.7031682 
-0.312509 -0.2980224 -0.90195394 
-0.15886503 -0.39139295 -0.906407 
0.015548613 -0.024121284 -0.99958813 
0.03167423 -0.10599912 -0.9938616 
-0.08674355 0.36593807 -0.9265878 
-0.6902881 0.27901515 -0.6675724 
-0.61373025 -0.010061456 -0.7894518 
-0.38238817 -0.2833899 -0.8794711 
-0.5839677 -0.7539713 -0.30084747 
0.10402642 -0.6131682 -0.78307295 
0.021383634 -0.2034426 -0.9788534 
-0.12785682 -0.47621968 -0.86998135 
-0.4023674 -0.12102033 -0.907444 
-0.34159324 0.36914733 -0.8643173 
-0.4464002 -0.2605028 -0.85607547 
0.22369428 -0.42009977 -0.87947553 
0.183694 0.07149664 -0.98038 
-0.07465264 0.25691664 -0.963546 
-0.43169394 -0.56784433 -0.70085186 
-0.64990586 0.050050523 -0.7583649 
-0.93815273 -0.042770807 -0.34356982 
0.028848182 -0.13629432 -0.99024826 
-0.430998 0.34315845 -0.8345557 
-0.52274096 0.019852258 -0.8522605 
-0.7284583 -0.6514401 -0.21207176 
-0.48820347 -0.8467409 -0.21139379 
-0.072270766 -0.7068592 -0.7036527 
-0.42296365 -0.41042072 -0.8078716 
0.2795231 0.32679987 -0.9028115 
0.09061203 -0.8237667 -0.55964094 
0.111303374 -0.3089222 -0.9445521 
-0.22871655 -0.39144188 -0.89132595 
-0.21718971 -0.27927133 -0.93532676 
-0.3239553 -0.24576494 -0.9135933 
-0.5424078 0.21822599 -0.81127757 
-0.7172774 -0.3945539 -0.57431734 
-0.26325753 0.10616618 -0.9588662 
0.23789859 -0.27930632 -0.9302646 
0.4818285 -0.4490768 -0.75244355 
-0.14364047 -0.2327964 -0.9618593 
0.85870355 -0.17509612 -0.48163238 
0.728401 -0.66364545 -0.17031361 
0.8920738 -0.42611805 -0.15042548 
0.98275375 -0.16577615 0.081935644 
0.31764868 -0.8230232 -0.47088438 
0.18510358 -0.39693496 -0.8989879 
0.27751753 -0.111646585 -0.95421124 
-0.032302346 -0.5470721 -0.836462 
-0.079705834 0.31447086 -0.9459149 
-0.16363008 -0.3991925 -0.9021478 
0.483155 -0.54296416 -0.6868414 
-0.16520025 -0.5732727 -0.80253804 
0.102534704 -0.70586705 -0.700884 
0.20092878 -0.936766 -0.28652593 
0.5079187 -0.54098266 -0.6703405 
0.6573731 -0.2632504 -0.70608777 
0.33274436 -0.6527166 -0.68061906 
0.37680075 -0.6149621 -0.6927069 
0.313412 -0.027786389 -0.9492107 
-0.6001576 -0.5696311 -0.56154376 
-0.23257731 -0.21887426 -0.9476296 
0.29403067 -0.21949156 -0.93025243 
0.73738253 0.03887289 -0.67435604 
0.5192111 0.7438909 -0.4207687 
-0.020467844 0.32443535 -0.9456864 
0.38559988 0.41993946 -0.8215617 
0.4106312 0.10929792 -0.9052271 
0.4196535 0.47393924 -0.774127 
0.76345617 -0.19572258 -0.6154896 
0.7898182 -0.43937838 -0.4279414 
0.78125596 -0.42320052 -0.45884687 
-0.23782574 -0.7650883 -0.598397 
-0.08296852 -0.15439576 -0.9845193 
0.2689678 -0.044611517 -0.96211547 
0.075696915 -0.19707058 -0.9774626 
-0.1519707 0.53691274 -0.8298371 
0.3347802 0.5739678 -0.7473174 
-0.4956199 0.38520014 -0.7784484 
-0.2498832 0.015338591 -0.96815455 
0.2226384 -0.16661675 -0.9605577 
-0.074497364 0.11674855 -0.99036354 
0.040982746 0.058760814 -0.9974305 
0.21669634 -0.6697215 -0.7102929 
-0.22942716 -0.17771143 -0.95696497 
-0.3838776 0.28618658 -0.8779153 
-0.07078587 -0.6892585 -0.7210493 
0.06133125 -0.20632906 -0.9765587 
-0.29010406 -0.010425894 -0.9569383 
0.2945967 -0.0878015 -0.95157963 
-0.1392059 -0.25035158 -0.9580949 
0.08724385 -0.3508489 -0.9323592 
0.9384885 0.16806182 -0.30165312 
0.9004672 0.43456376 -0.017696872 
0.66887593 -0.053315505 -0.7414597 
0.19083759 0.2026362 -0.9604789 
-0.15647681 -0.24292634 -0.9573411 
0.5246104 0.0018955057 -0.8513404 
0.51147157 0.2652654 -0.8173317 
0.69183457 -0.049663857 -0.7203461 
-0.122996114 -0.23232599 -0.96482986 
-0.75737697 -0.41485703 -0.5042557 
-0.6997484 -0.14660788 -0.699184 
0.1629341 -0.21439116 -0.9630623 
-0.06009697 -0.29234025 -0.95442426 
0.58358604 -0.2697489 -0.7659393 
0.44594905 0.046211608 -0.89386463 
-0.05065771 -0.46865126 -0.8819296 
-0.43745598 -0.08621265 -0.89509755 
-0.041181542 -0.1403861 -0.9892401 
0.22655684 -0.04889844 -0.9727698 
-0.11798466 -0.4833479 -0.8674414 
-0.47410277 -0.5960159 -0.6480678 
-0.35949937 -0.5789766 -0.73181033 
-0.55724454 -0.2688351 -0.78562486 
-0.25631285 -0.5977699 -0.75958854 
-0.65309227 -0.17252102 -0.73736495 
0.33222076 -0.32503784 -0.88542634 
0.59693444 0.05287919 -0.8005456 
0.26546577 0.26642263 -0.92657804 
0.13179976 -0.75292355 -0.64477515 
0.37101573 0.13913475 -0.9181442 
0.5185056 -0.6330909 -0.57475895 
0.4113389 -0.6815125 -0.60526127 
0.31739792 -0.1684012 -0.9332201 
0.07316945 0.2302095 -0.97038645 
0.430304 -0.48578689 -0.76082164 
0.716662 -0.31157482 -0.6239526 
0.41867387 -0.35624582 -0.835345 
-0.19335204 0.4310923 -0.881348 
-0.3961958 0.53193575 -0.7483805 
-0.1566015 0.5248048 -0.83669347 
-0.38897625 0.62270445 -0.6789232 
-0.20823514 -0.18778363 -0.9598831 
-0.08726139 -0.19454111 -0.97700524 
0.29695404 -0.36558 -0.8821393 
0.2793467 -0.8745779 -0.3963321 
0.44057736 -0.3419037 -0.83005625 
-0.44081947 -0.49195465 -0.7507721 
-0.108290955 -0.13526946 -0.98487324 
-0.06635993 -0.52571255 -0.84807 
-0.18574779 0.22270405 -0.9570271 
0.024873737 0.020434681 -0.99948174 
0.30962148 0.19109766 -0.9314592 
0.1632243 -0.3060951 -0.9379039 
0.2347314 -0.31228903 -0.9205308 
0.2597438 -0.28412864 -0.9229324 
0.31918496 -0.3065945 -0.8967279 
0.52449685 -0.034456942 -0.8507148 
0.28880128 -0.4533582 -0.8432439 
0.11426837 0.13329737 -0.98446673 
-0.71731454 -0.40445963 -0.567338 
-0.77888656 -0.30423516 -0.54843104 
0.5730741 0.41565567 -0.7062694 
0.37438834 0.31798604 -0.8710444 
0.13502315 0.3532078 -0.92574996 
0.37473628 -0.38240695 -0.8445932 
0.10937389 -0.2736678 -0.95558536 
0.33528835 -0.31062618 -0.8894342 
0.111166686 0.39111802 -0.9136021 
0.42283624 -0.2665991 -0.86610305 
0.41446877 -0.19634098 -0.8886314 
0.60335684 0.12711336 -0.7872755 
0.51936126 0.17599286 -0.83623594 
0.086206004 0.37157685 -0.92439127 
-0.23669682 -0.060920067 -0.9696718 
0.761811 -0.4282602 -0.4860425 
0.5692422 -0.099035636 -0.81618345 
0.5188217 -0.20034917 -0.83107424 
0.20047344 -0.42103845 -0.88461125 
-0.16637112 -0.548342 -0.8195375 
0.08865177 -0.3344894 -0.9382205 
0.39112315 -0.29931572 -0.8703062 
-0.2560548 -0.0076123355 -0.9666323 
-0.06553694 -0.5382298 -0.84024614 
0.078771465 -0.38103148 -0.92120034 
0.22794351 -0.87788886 -0.4211332 
-0.25258115 -0.6000625 -0.7590308 
0.11014571 -0.42287636 -0.8994685 
-0.20506805 -0.21114391 -0.95570153 
0.06799282 0.058222596 -0.99598557 
0.39237222 0.6812408 -0.61802524 
0.1861519 -0.38627127 -0.9034058 
-0.35294986 -0.32129663 -0.8787462 
0.08352926 -0.39453536 -0.9150763 
-0.11453721 -0.5565003 -0.8229148 
0.011834765 -0.23047046 -0.97300744 
0.02795786 0.4175232 -0.908236 
-0.67224866 0.22636348 -0.70486975 
0.07472942 0.31393006 -0.9465007 
0.12724821 -0.3118462 -0.94157314 
0.45875412 -0.094974995 -0.8834729 
0.47955224 -0.17524968 -0.8598357 
0.17887115 -0.41334885 -0.8928314 
0.07691127 -0.6331865 -0.7701685 
-0.01734192 0.04231227 -0.99895394 
0.8589589 0.121128626 -0.49751136 
0.38367897 -0.49125355 -0.78195935 
0.20797269 -0.17642336 -0.9620926 
-0.17621052 0.3034752 -0.9364041 
-0.27658632 0.013770667 -0.9608904 
-0.74251646 -0.34683987 -0.57303715 
-0.5348772 -0.36194968 -0.76347816 
-0.049574487 0.12792502 -0.99054414 
-0.05546171 0.14599365 -0.9877297 
0.034391325 -0.10502808 -0.99387443 
-0.00437663 -0.7620298 -0.6475272 
0.073342554 -0.22089362 -0.9725363 
0.29111654 0.012172205 -0.95661026 
0.33992845 0.3177443 -0.8851481 
-0.046397563 0.43793666 -0.89780784 
-0.15946443 0.20293908 -0.9661195 
0.14287587 -0.3139346 -0.9386329 
0.8686369 -0.31293496 -0.38411164 
0.37720215 -0.13791473 -0.9158046 
-0.080261536 0.679712 -0.7290746 
0.31331614 -0.036097143 -0.9489627 
0.35312143 -0.4334237 -0.8291255 
0.46819463 0.25069964 -0.84731543 
0.2677759 0.16374902 -0.94946426 
0.51905537 0.4054486 -0.752458 
0.31572706 -0.0521656 -0.947415 
-0.631952 0.16879992 -0.7564015 
0.43850312 -0.4472941 -0.7795146 
0.030290108 0.52261573 -0.85203016 
0.2577658 0.3959936 -0.88133186 
0.8541267 0.3445648 -0.3895419 
0.56135345 0.17740963 -0.80833673 
0.23040877 0.061685592 -0.97113687 
0.11227027 -0.17859818 -0.9774959 
-0.046855483 0.50121546 -0.8640531 
0.2707301 0.03736053 -0.96193004 
-0.29860976 -0.2454626 -0.9222691 
-0.1654669 0.11982188 -0.9789094 
-0.7334294 0.31180096 -0.60403776 