# t (s)	mx ()	my ()	mz ()	B_extx (T)	B_exty (T)	B_extz (T)
1e-08	0.003600472	-0.0020277807	0.8835803	0	0	0.19999991
2e-08	0.0032673322	-0.00044919722	0.88470745	0	0	0.19499996
3.0000000000000004e-08	0.0005572797	-0.000360655	0.8833289	0	0	0.18999994
4e-08	-0.001070008	-0.0013559776	0.8836506	0	0	0.18500006
5e-08	-0.000112395	-0.0010729326	0.8833779	0	0	0.18000002
6e-08	0.0013835691	-0.00016804671	0.8833861	0	0	0.17500007
6.999999999999999e-08	-0.0007398608	-0.00033177296	0.8835648	0	0	0.17000006
7.999999999999999e-08	0.0010510789	0.0025717916	0.8830337	0	0	0.16499998
8.999999999999999e-08	0.00046838258	0.0033287986	0.88271344	0	0	0.15999994
9.999999999999998e-08	-0.00030790752	-0.0020747683	0.8822762	0	0	0.15500008
1.0999999999999998e-07	0.0016198943	0.00037207265	0.8820731	0	0	0.15000005
1.2e-07	0.0026292591	0.0013842055	0.88203037	0	0	0.145
1.3e-07	0.002314306	0.0004498081	0.8810914	0	0	0.13999996
1.4e-07	0.0012320634	-0.000616713	0.8816813	0	0	0.1350001
1.5000000000000002e-07	-0.0010877808	0.0019503402	0.8809167	0	0	0.1300001
1.6000000000000003e-07	4.569258e-05	-0.0008151255	0.8814856	0	0	0.125
1.7000000000000004e-07	-0.0027695044	0.004623942	0.88078743	0	0	0.1199999
1.8000000000000005e-07	0.00065950106	-0.0014506785	0.88081497	0	0	0.11499991
1.9000000000000006e-07	0.0025805659	0.0019774113	0.88070816	0	0	0.11000001
2.0000000000000007e-07	-0.0029304125	0.0026272838	0.8801077	0	0	0.10500001
2.1000000000000008e-07	-0.0010839539	-0.0035057236	0.88045394	0	0	0.09999996
2.200000000000001e-07	0.0005392539	-0.00069800764	0.88069427	0	0	0.09499997
2.300000000000001e-07	0.003165243	-0.00036265343	0.87996775	0	0	0.09000001
2.400000000000001e-07	-0.00019581486	0.0004747732	0.879632	0	0	0.08500003
2.500000000000001e-07	0.0013113361	0.0002855127	0.87975353	0	0	0.07999997
2.600000000000001e-07	-0.0018544969	-0.0009391724	0.879751	0	0	0.075000025
2.700000000000001e-07	0.0013930605	-0.0018867318	0.8793178	0	0	0.06999998
2.800000000000001e-07	0.0016312493	-0.0034068115	0.8785282	0	0	0.06500005
2.9000000000000014e-07	-0.0017363227	-0.0010703417	0.8785753	0	0	0.05999995
3.0000000000000015e-07	-0.0010669408	-0.0022457936	0.87827253	0	0	0.055000003
3.1000000000000016e-07	0.001754754	0.0015184969	0.8788905	0	0	0.04999998
3.2000000000000017e-07	0.00035945073	-0.00038449425	0.8781338	0	0	0.045000006
3.300000000000002e-07	0.0014066932	0.0005049556	0.8784408	0	0	0.039999984
3.400000000000002e-07	0.0022062093	0.0049915845	0.8785815	0	0	0.03499999
3.500000000000002e-07	0.0012810696	0.000832006	0.8778783	0	0	0.029999975
3.600000000000002e-07	-0.004456841	0.0001690477	0.87697786	0	0	0.02499999
3.700000000000002e-07	0.0012052079	-0.003343358	0.8764095	0	0	0.019999992
3.800000000000002e-07	0.0043127667	-0.00025282582	0.876906	0	0	0.014999988
3.9000000000000024e-07	0.00041425714	0.003280815	0.87618077	0	0	0.009999996
4.0000000000000025e-07	0.0013831959	0.0007384218	0.87632746	0	0	0.004999998
4.1000000000000026e-07	0.002067726	0.0018493544	0.8750008	0	0	0
4.2000000000000027e-07	0.00041878776	0.0025653096	0.8763605	0	0	-0.004999998
4.300000000000003e-07	0.00053840847	-0.0017941067	0.87518024	0	0	-0.009999996
4.400000000000003e-07	0.00014679493	0.0008785119	0.8751939	0	0	-0.014999988
4.500000000000003e-07	-0.0020228254	0.0038186926	0.87576634	0	0	-0.019999992
4.600000000000003e-07	-0.0010368568	-0.0030119438	0.8755017	0	0	-0.02499999
4.700000000000003e-07	0.0014984208	0.00041156635	0.8749198	0	0	-0.029999975
4.800000000000003e-07	-0.0035438023	-0.0012392234	0.8748811	0	0	-0.03499999
4.900000000000003e-07	-0.00023831528	0.0014058374	0.8743969	0	0	-0.039999984
5.000000000000003e-07	-0.0012825904	0.0022539038	0.87428564	0	0	-0.045000006
5.100000000000003e-07	-0.0013822267	-0.0042713103	0.87382805	0	0	-0.04999998
5.200000000000003e-07	-0.000905271	0.0006094407	0.87426656	0	0	-0.055000003
5.300000000000003e-07	0.0016501473	0.00051362946	0.87346786	0	0	-0.05999995
5.400000000000003e-07	-0.0008388457	-0.004132017	0.87309843	0	0	-0.06500005
5.500000000000003e-07	9.279132e-06	0.001646566	0.8732485	0	0	-0.06999998
5.600000000000004e-07	-0.00022662485	0.0029074142	0.87370014	0	0	-0.075000025
5.700000000000004e-07	-0.0020246739	0.0002557432	0.87182766	0	0	-0.07999997
5.800000000000004e-07	0.0004822754	0.0011441202	0.8732606	0	0	-0.08500003
5.900000000000004e-07	-0.0009990426	0.003030096	0.87179434	0	0	-0.09000001
6.000000000000004e-07	-0.0018401864	0.002057647	0.87144005	0	0	-0.09499997
6.100000000000004e-07	-0.0051611937	-0.0027159308	0.87063396	0	0	-0.09999996
6.200000000000004e-07	-0.0029737744	-0.00076314865	0.87101215	0	0	-0.10500001
6.300000000000004e-07	-0.004419194	-2.6247664e-05	0.8707214	0	0	-0.11000001
6.400000000000004e-07	-0.00032735194	-0.0003854195	0.87053525	0	0	-0.11499991
6.500000000000004e-07	-0.00152234	0.0006405008	0.8695553	0	0	-0.1199999
6.600000000000005e-07	0.0019337032	-0.0010365908	0.86981004	0	0	-0.125
6.700000000000005e-07	0.000347643	0.0021193514	0.86921704	0	0	-0.1300001
6.800000000000005e-07	0.0016198943	0.002019346	0.8705288	0	0	-0.1350001
6.900000000000005e-07	0.0011825971	0.0006168164	0.86848325	0	0	-0.13999996
7.000000000000005e-07	-0.002848737	-8.6460066e-05	0.86945087	0	0	-0.145
7.100000000000005e-07	-0.0029132937	-0.0014972213	0.8684276	0	0	-0.15000005
7.200000000000005e-07	0.0015306672	-0.0016193656	0.86829567	0	0	-0.15500008
7.300000000000005e-07	0.0024337277	-0.0012469449	0.86846954	0	0	-0.15999994
7.400000000000005e-07	0.0025362691	-0.0009508352	0.86864156	0	0	-0.16499998
7.500000000000005e-07	-0.0008087611	-0.001176104	0.86796635	0	0	-0.17000006
7.600000000000006e-07	-0.0062610093	0.003544033	0.8673344	0	0	-0.17500007
7.700000000000006e-07	0.003475096	0.00036559333	0.8672537	0	0	-0.18000002
7.800000000000006e-07	-0.0015062437	0.0010644753	0.86641777	0	0	-0.18500006
7.900000000000006e-07	-0.0015020715	0.0031157087	0.86621153	0	0	-0.18999994
8.000000000000006e-07	-0.0039642975	0.0018424472	0.86621964	0	0	-0.19499996
8.100000000000006e-07	-0.0028064286	0.000104752595	0.8644233	0	0	-0.19999991
8.200000000000006e-07	-0.0029112208	6.792388e-05	0.8654724	0	0	-0.19999991
8.300000000000006e-07	-0.0017523785	0.00333046	0.8668187	0	0	-0.19499996
8.400000000000006e-07	0.002214242	0.0018414942	0.8661304	0	0	-0.18999994
8.500000000000006e-07	-0.0002864327	-0.0020475576	0.8663487	0	0	-0.18500006
8.600000000000007e-07	-0.0018713012	0.0007344908	0.86677974	0	0	-0.18000002
8.700000000000007e-07	0.004968741	0.0023919716	0.86725897	0	0	-0.17500007
8.800000000000007e-07	-0.0026887315	-0.0027987666	0.86692226	0	0	-0.17000006
8.900000000000007e-07	-0.00016979195	0.0017556738	0.8681437	0	0	-0.16499998
9.000000000000007e-07	0.0016623907	-0.00069064513	0.8685885	0	0	-0.15999994
9.100000000000007e-07	-0.003576171	0.0009455307	0.86777896	0	0	-0.15500008
9.200000000000007e-07	0.0006929989	-0.0018967204	0.86809474	0	0	-0.15000005
9.300000000000007e-07	-0.0011522634	-0.00076605094	0.8687153	0	0	-0.145
9.400000000000007e-07	-0.0010715483	0.0010997755	0.86919457	0	0	-0.13999996
9.500000000000008e-07	0.001351959	-0.0006679575	0.86935955	0	0	-0.1350001
9.600000000000008e-07	0.0005306747	-0.00071610924	0.8701371	0	0	-0.1300001
9.700000000000007e-07	0.00038379588	-0.00027533932	0.87035894	0	0	-0.125
9.800000000000006e-07	-0.0023707815	0.002794555	0.8706092	0	0	-0.1199999
9.900000000000005e-07	0.0030588056	0.00019934647	0.8704753	0	0	-0.11499991
1.0000000000000004e-06	0.0023689584	-0.0015697916	0.8711589	0	0	-0.11000001
1.0100000000000003e-06	0.0025603364	0.0007459335	0.8709353	0	0	-0.10500001
1.0200000000000002e-06	0.0012467973	0.0029169507	0.8713688	0	0	-0.09999996
1.03e-06	0.0011233089	0.0010056463	0.871756	0	0	-0.09499997
1.04e-06	-0.0008764692	-0.0059010983	0.8726048	0	0	-0.09000001
1.05e-06	-0.002507685	0.0011569073	0.87262315	0	0	-0.08500003
1.0599999999999998e-06	-0.0017469928	0.00010713855	0.872533	0	0	-0.07999997
1.0699999999999997e-06	0.0003943056	-0.0034103228	0.8725365	0	0	-0.075000025
1.0799999999999996e-06	0.0003539851	-0.0025568537	0.8723895	0	0	-0.06999998
1.0899999999999995e-06	0.002951044	0.0041533993	0.8730215	0	0	-0.06500005
1.0999999999999994e-06	0.0010818138	0.0013758697	0.87331635	0	0	-0.05999995
1.1099999999999993e-06	0.0012976639	0.0015512242	0.8740043	0	0	-0.055000003
1.1199999999999992e-06	0.00048292853	-0.0065561635	0.8734444	0	0	-0.04999998
1.1299999999999991e-06	0.0002249537	0.0046698274	0.8741889	0	0	-0.045000006
1.139999999999999e-06	-0.00022416709	-0.002278149	0.87337416	0	0	-0.039999984
1.149999999999999e-06	-0.0024038197	0.0032099742	0.875225	0	0	-0.03499999
1.1599999999999988e-06	0.0016012003	0.0022793494	0.8745435	0	0	-0.029999975
1.1699999999999988e-06	-0.0024242066	-0.0016309215	0.875515	0	0	-0.02499999
1.1799999999999987e-06	-0.0028162624	0.0009617374	0.8755228	0	0	-0.019999992
1.1899999999999986e-06	-0.0020372937	-0.0012220538	0.87624747	0	0	-0.014999988
1.1999999999999985e-06	0.0021728424	0.00053973467	0.87607765	0	0	-0.009999996
1.2099999999999984e-06	0.0038500824	-0.0006739114	0.8759347	0	0	-0.004999998
1.2199999999999983e-06	0.0007803537	-0.00010626683	0.8759714	0	0	0
1.2299999999999982e-06	-0.0029401216	0.0020179446	0.87609106	0	0	0.004999998
1.239999999999998e-06	-0.0025160643	0.0036733614	0.87652916	0	0	0.009999996
1.249999999999998e-06	-0.0037270861	-0.00016924387	0.87684786	0	0	0.014999988
1.2599999999999979e-06	-0.0019346582	0.00022746483	0.87711775	0	0	0.019999992
1.2699999999999978e-06	-0.0039086645	0.00051447685	0.8768565	0	0	0.02499999
1.2799999999999977e-06	0.000101373866	-0.0050974838	0.876874	0	0	0.029999975
1.2899999999999976e-06	0.0005029351	-0.0018372452	0.87755996	0	0	0.03499999
1.2999999999999975e-06	-0.00013198913	-0.0030191091	0.8776249	0	0	0.039999984
1.3099999999999974e-06	-0.0024651594	0.0024557028	0.8784393	0	0	0.045000006
1.3199999999999973e-06	0.0029619306	0.0005567023	0.87838304	0	0	0.04999998
1.3299999999999972e-06	-0.002598218	-0.0026481126	0.8784045	0	0	0.055000003
1.3399999999999971e-06	0.0032870662	-0.0022334591	0.8783735	0	0	0.05999995
1.349999999999997e-06	-0.0016193081	-0.0013338028	0.8787218	0	0	0.06500005
1.359999999999997e-06	0.0016363307	-0.002512297	0.8794953	0	0	0.06999998
1.3699999999999968e-06	-0.0018745121	0.00084017625	0.8792505	0	0	0.075000025
1.3799999999999967e-06	0.0016682565	-0.0011612297	0.8799272	0	0	0.07999997
1.3899999999999966e-06	-0.0020688248	0.001518523	0.8795533	0	0	0.08500003
1.3999999999999965e-06	0.004058967	-0.003285357	0.8802248	0	0	0.09000001
1.4099999999999965e-06	0.0012198268	0.0008302775	0.88031685	0	0	0.09499997
1.4199999999999964e-06	-0.00080049876	-0.0016731416	0.8799377	0	0	0.09999996
1.4299999999999963e-06	0.00058532093	0.00018774283	0.880465	0	0	0.10500001
1.4399999999999962e-06	-0.00074880297	-0.00048859755	0.88089657	0	0	0.11000001
1.449999999999996e-06	-0.0036876334	0.0018753668	0.88043606	0	0	0.11499991
1.459999999999996e-06	0.001963356	-0.00075230625	0.8806629	0	0	0.1199999
1.4699999999999959e-06	0.0011276464	0.0002742749	0.8818084	0	0	0.125
1.4799999999999958e-06	-0.00012506444	-0.0006982717	0.8815373	0	0	0.1300001
1.4899999999999957e-06	-0.0013551889	0.0015815861	0.8814922	0	0	0.1350001
1.4999999999999956e-06	0.001607158	0.0040916093	0.8823366	0	0	0.13999996
1.5099999999999955e-06	1.13282085e-05	-0.0005563192	0.8820843	0	0	0.145
1.5199999999999954e-06	-0.0019959954	0.0018192821	0.8820445	0	0	0.15000005
1.5299999999999953e-06	0.0021884043	0.00091916224	0.8826977	0	0	0.15500008
1.5399999999999952e-06	0.001689865	-0.0011274314	0.88237256	0	0	0.15999994
1.5499999999999951e-06	-0.0010187512	0.00016418089	0.88293976	0	0	0.16499998
1.559999999999995e-06	-0.0025998924	-0.00086687616	0.8828988	0	0	0.17000006
1.569999999999995e-06	0.0025147242	0.0030748392	0.88319486	0	0	0.17500007
1.5799999999999948e-06	-8.3142495e-06	0.0025808357	0.8835555	0	0	0.18000002
1.5899999999999947e-06	-0.0029236097	-0.0026064725	0.8834917	0	0	0.18500006
1.5999999999999946e-06	0.00049339636	-0.004183296	0.88367784	0	0	0.18999994
1.6099999999999945e-06	0.0029001662	0.00021115837	0.88362473	0	0	0.19499996
1.6199999999999944e-06	0.0012566963	-0.0004412758	0.8835723	0	0	0.19999991